Title
82329
    1SAPS     N    1   5.245   0.924  11.054 -0.3211  0.7809 -0.1891
    1SAPS   HN1    2   5.168   0.992  11.075  0.0352  0.6668  1.7490
    1SAPS   HN2    3   5.321   0.985  11.019 -0.9663  0.7598 -1.6660
    1SAPS   HN3    4   5.222   0.854  10.981 -0.4646  0.3637  0.2474
    1SAPS   C12    5   5.278   0.845  11.177  0.2432  0.0764  0.9475
    1SAPS  H12A    6   5.314   0.908  11.257 -0.1770  1.1018  0.3557
    1SAPS   C13    7   5.159   0.761  11.230  0.5712 -0.4627 -0.0896
    1SAPS  O13A    8   5.055   0.762  11.158  0.1502 -0.3397  0.1477
    1SAPS  O13B    9   5.159   0.725  11.345  0.0757  0.0308  0.1352
    1SAPS   C11   10   5.387   0.748  11.127 -0.0061 -1.0985  0.6965
    1SAPS  H11A   11   5.338   0.677  11.057 -0.6684  0.9510 -1.0344
    1SAPS  H11B   12   5.438   0.708  11.218  2.1731 -3.0603 -1.2338
    1SAPS     P   13   5.604   0.730  10.968 -0.6734  0.1835  0.2771
    1SAPS   O13   14   5.650   0.816  10.858 -0.2754 -0.7999 -0.2434
    1SAPS   O14   15   5.718   0.691  11.059  0.6326 -0.3057  0.4464
    1SAPS   O12   16   5.492   0.813  11.044  0.3940  0.1915  0.1018
    1SAPS   O11   17   5.537   0.602  10.906  0.3220  0.3819 -0.0756
    1SAPS    C1   18   5.428   0.608  10.813 -0.0968 -0.1892 -0.6110
    1SAPS    HA   19   5.355   0.526  10.829 -1.5672  1.4247  1.4207
    1SAPS    HB   20   5.368   0.701  10.801 -1.8080 -1.1169  0.3558
    1SAPS    C2   21   5.477   0.570  10.672 -0.0266  0.0109 -0.0598
    1SAPS    HS   22   5.523   0.469  10.680 -2.0727 -1.0956 -1.4745
    1SAPS   O21   23   5.563   0.681  10.617  0.1522  0.6299  0.3418
    1SAPS   C21   24   5.662   0.639  10.540  0.4132 -0.2588  0.0236
    1SAPS   O22   25   5.709   0.527  10.536 -0.5592  0.2732  0.5020
    1SAPS   C22   26   5.719   0.755  10.453  0.1858 -0.1853 -1.3651
    1SAPS   H2R   27   5.825   0.730  10.431 -0.0437 -2.0781 -0.4817
    1SAPS   H2S   28   5.668   0.772  10.355  0.6473  1.3438 -1.3628
    1SAPS    C3   29   5.362   0.526  10.571 -0.4142 -0.4228  0.3039
    1SAPS    HX   30   5.300   0.618  10.560  1.2413  0.8357  1.0126
    1SAPS    HY   31   5.292   0.454  10.619  0.1604 -0.3900  1.1992
    1SAPS   O31   32   5.406   0.494  10.440 -0.1336 -0.2068 -0.4472
    1SAPS   C31   33   5.447   0.365  10.432 -0.2324  0.6128 -0.3406
    1SAPS   O32   34   5.443   0.280  10.514  0.2539  0.4944 -0.0070
    1SAPS   C32   35   5.516   0.362  10.294 -0.2093  0.4114  0.5771
    1SAPS   H2X   36   5.617   0.317  10.308 -0.2313  0.2140  0.1178
    1SAPS   H2Y   37   5.537   0.462  10.250  1.7707 -0.2616 -0.1098
    1SAPS   C23   38   5.718   0.889  10.519 -0.2485 -0.7021  0.0025
    1SAPS   H3R   39   5.757   0.898  10.623  2.2426  2.1651 -0.9930
    1SAPS   H3S   40   5.616   0.934  10.520  0.8329  2.0723 -1.6521
    1SAPS   C24   41   5.791   0.994  10.434 -0.1106  0.2860  0.5431
    1SAPS   H4R   42   5.757   0.995  10.328  1.9835  0.9871 -0.1708
    1SAPS   H4S   43   5.900   0.974  10.431 -0.0876  0.4349  0.3824
    1SAPS   C25   44   5.787   1.134  10.492  0.1200 -0.0008 -0.1330
    1SAPS   H5R   45   5.837   1.143  10.590  1.1320  0.4857 -0.6752
    1SAPS   C26   46   5.731   1.242  10.435 -0.5340 -0.1996 -0.2260
    1SAPS   H6R   47   5.724   1.336  10.490 -0.8077  0.2711 -1.0505
    1SAPS   C27   48   5.656   1.253  10.308  0.4969  0.2247  0.9783
    1SAPS   H7R   49   5.609   1.353  10.301 -0.9349 -0.5276 -0.8292
    1SAPS   H7S   50   5.579   1.174  10.298  1.7000 -0.7552 -1.5574
    1SAPS   C28   51   5.743   1.216  10.190 -0.0664 -0.5793 -0.0299
    1SAPS   H8R   52   5.847   1.185  10.206 -0.2572 -0.8837  0.6405
    1SAPS   C29   53   5.692   1.201  10.062 -0.5701  0.3354 -0.3181
    1SAPS   H9R   54   5.763   1.188   9.979  0.6751  0.9126  0.6149
    1SAPS  C210   55   5.548   1.193  10.022 -0.3361 -0.0179  0.0507
    1SAPS  H10R   56   5.479   1.157  10.102 -1.6172  0.3109 -0.8736
    1SAPS  H10S   57   5.534   1.107   9.953 -0.6837 -0.2516  0.4020
    1SAPS  C211   58   5.493   1.319   9.956 -0.2938  0.5786 -0.1837
    1SAPS  H11R   59   5.544   1.414   9.979 -0.3879  0.3091  1.2818
    1SAPS  C212   60   5.388   1.317   9.867  0.2560 -0.6404  0.3037
    1SAPS  H12R   61   5.365   1.410   9.813 -0.6237 -1.2317 -0.3587
    1SAPS  C213   62   5.308   1.200   9.813  0.1921 -0.2340  0.2694
    1SAPS  H13R   63   5.206   1.209   9.856 -0.9410  2.1811 -2.5273
    1SAPS  H13S   64   5.350   1.105   9.851  1.8504  0.1833 -0.4081
    1SAPS  C214   65   5.297   1.200   9.664  0.2985  0.3723  0.9157
    1SAPS  H14R   66   5.202   1.240   9.623  2.3260  2.3951 -2.2592
    1SAPS  C215   67   5.384   1.165   9.568  1.6760  0.1205  0.5719
    1SAPS  H15R   68   5.353   1.168   9.463  2.3454  0.1479  0.3680
    1SAPS  C216   69   5.526   1.106   9.594  0.3523  0.0866 -0.2854
    1SAPS  H16R   70   5.524   0.998   9.566 -0.8540  0.1116 -0.3851
    1SAPS  H16S   71   5.548   1.105   9.703  0.4410  0.4584 -0.3025
    1SAPS  C217   72   5.630   1.176   9.509 -0.6989 -0.3600  0.4180
    1SAPS  H17R   73   5.730   1.140   9.544 -0.4066 -1.3957 -1.3395
    1SAPS  H17S   74   5.632   1.286   9.524  1.5370 -0.1832 -0.7405
    1SAPS  C218   75   5.611   1.137   9.359  0.6876  0.7041 -0.2894
    1SAPS  H18R   76   5.526   1.199   9.324 -1.0243  0.2211  2.6410
    1SAPS  H18S   77   5.568   1.035   9.348 -0.7685  1.5546 -4.1484
    1SAPS  C219   78   5.736   1.155   9.272 -0.3832  0.0384 -0.0573
    1SAPS  H19R   79   5.823   1.095   9.306  0.6596  1.6669  0.2933
    1SAPS  H19S   80   5.764   1.262   9.281 -2.7278  0.5761  2.1402
    1SAPS  C220   81   5.719   1.100   9.130  0.1481 -0.7002  0.0945
    1SAPS  H20R   82   5.653   1.156   9.061  1.5805 -0.7529 -1.3661
    1SAPS  H20S   83   5.697   0.991   9.138 -0.3436 -0.4927  2.0925
    1SAPS  H20T   84   5.820   1.112   9.084  0.1187  1.4308  0.5210
    1SAPS   C33   85   5.428   0.273  10.210 -0.5547 -0.3362  0.3053
    1SAPS   H3X   86   5.318   0.284  10.215 -0.6254 -1.0543  0.4718
    1SAPS   H3Y   87   5.433   0.165  10.237 -0.2381 -0.9046 -1.8188
    1SAPS   C34   88   5.481   0.275  10.066 -0.5065 -1.0319 -0.0665
    1SAPS   H4X   89   5.545   0.364  10.051  1.2724 -2.0476  1.1069
    1SAPS   H4Y   90   5.400   0.261   9.992 -0.7733 -0.9896  0.2132
    1SAPS   C35   91   5.568   0.148  10.047  0.1559 -0.2145 -0.1243
    1SAPS   H5X   92   5.512   0.054  10.068  1.0328 -1.4881 -3.0173
    1SAPS   H5Y   93   5.652   0.137  10.119 -0.5118 -0.9165  0.5699
    1SAPS   C36   94   5.628   0.134   9.910 -0.2878  0.4117  0.3585
    1SAPS   H6X   95   5.711   0.060   9.918 -0.1240  0.4343 -0.8899
    1SAPS   H6Y   96   5.662   0.232   9.872 -1.3950 -0.2188 -2.5294
    1SAPS   C37   97   5.519   0.087   9.805  0.1782 -0.4832  1.0637
    1SAPS   H7X   98   5.442   0.166   9.814 -0.4820 -0.8274 -0.9576
    1SAPS   H7Y   99   5.463  -0.007   9.821  1.1352 -0.8161  2.6427
    1SAPS   C38  100   5.579   0.090   9.665 -0.8594 -0.3908 -0.4151
    1SAPS   H8X  101   5.503   0.035   9.605 -0.8286 -0.3545 -0.4882
    1SAPS   H8Y  102   5.671   0.027   9.664 -0.4458  0.1381  1.0818
    1SAPS   C39  103   5.609   0.229   9.611  0.5078 -0.0928  0.0230
    1SAPS   H9X  104   5.674   0.288   9.680 -0.1263 -0.5009  0.9857
    1SAPS   H9Y  105   5.515   0.286   9.600 -1.8635 -3.3357  1.7226
    1SAPS  C310  106   5.676   0.232   9.472  0.2550  0.3372 -0.4163
    1SAPS  H10X  107   5.765   0.167   9.487 -1.6888 -1.8897  2.5083
    1SAPS  H10Y  108   5.705   0.338   9.455 -0.9450  0.8236  0.4335
    1SAPS  C311  109   5.593   0.177   9.358  0.6992  0.5396  0.3106
    1SAPS  H11X  110   5.494   0.226   9.372  2.2945  4.3409 -0.6692
    1SAPS  H11Y  111   5.579   0.067   9.366 -1.7810  0.6430 -1.2735
    1SAPS  C312  112   5.654   0.221   9.227 -0.0507  0.1363 -0.0802
    1SAPS  H12X  113   5.748   0.161   9.225  0.3889  0.5409  3.1680
    1SAPS  H12Y  114   5.673   0.330   9.225 -2.8136  0.6766 -2.0141
    1SAPS  C313  115   5.568   0.197   9.105 -0.8019 -0.5558  0.3327
    1SAPS  H13X  116   5.627   0.220   9.014  0.2827  0.7028  1.3030
    1SAPS  H13Y  117   5.480   0.264   9.099  0.1143  0.5570 -1.2155
    1SAPS  C314  118   5.528   0.053   9.086 -0.3750 -0.5774 -0.4324
    1SAPS  H14X  119   5.451   0.028   9.163 -0.9364  0.6030 -0.5904
    1SAPS  H14Y  120   5.616  -0.013   9.103 -0.9038 -0.8378  1.5283
    1SAPS  C315  121   5.468   0.023   8.948 -0.2891 -0.7894  0.1512
    1SAPS  H15X  122   5.397   0.102   8.916  0.9282  0.1326 -0.3910
    1SAPS  H15Y  123   5.424  -0.078   8.938 -1.8760  0.0821 -2.7313
    1SAPS  C316  124   5.578   0.018   8.838  0.6800  0.6000  0.2665
    1SAPS  H16X  125   5.629  -0.080   8.851  2.2529  1.2582 -0.7262
    1SAPS  H16Y  126   5.654   0.099   8.844 -0.3876  1.5163  3.2416
    1SAPS  C317  127   5.515   0.010   8.699 -0.7803 -0.3504 -0.3228
    1SAPS  H17X  128   5.464   0.109   8.692  0.0252  0.1882  0.9897
    1SAPS  H17Y  129   5.446  -0.076   8.688 -0.3371 -0.8407  0.6525
    1SAPS  C318  130   5.612  -0.007   8.581  0.6230 -0.2982  0.6713
    1SAPS  H18X  131   5.544  -0.007   8.493  0.5562 -1.4531  0.7162
    1SAPS  H18Y  132   5.668  -0.102   8.583 -1.8684 -1.8538  0.6535
    1SAPS  H18Z  133   5.683   0.078   8.564  1.4569 -1.1424 -0.1912
    2SAPS     N  134   3.652   6.720  10.659 -0.3641 -0.5366 -0.0415
    2SAPS   HN1  135   3.728   6.780  10.695 -0.8576 -0.6673  1.2946
    2SAPS   HN2  136   3.696   6.631  10.626 -0.6523  0.1959 -2.6409
    2SAPS   HN3  137   3.606   6.762  10.576 -1.2843 -2.6377 -0.6892
    2SAPS   C12  138   3.540   6.719  10.760 -0.1539  0.1710 -0.8065
    2SAPS  H12A  139   3.458   6.674  10.707  0.3672 -0.4461 -1.1070
    2SAPS   C13  140   3.562   6.645  10.892 -0.0336 -0.3610 -0.5256
    2SAPS  O13A  141   3.674   6.594  10.918  0.4851 -0.2858 -0.1086
    2SAPS  O13B  142   3.460   6.611  10.957  0.3949  0.2551 -0.0129
    2SAPS   C11  143   3.507   6.869  10.786  0.1870  0.3416  0.4223
    2SAPS  H11A  144   3.594   6.925  10.826  0.0431  0.0582  1.1682
    2SAPS  H11B  145   3.427   6.873  10.864 -0.0172  1.1036  0.1821
    2SAPS     P  146   3.398   7.077  10.657  0.0156 -0.1300  0.0048
    2SAPS   O13  147   3.303   7.071  10.544 -0.1612  0.1706  0.2877
    2SAPS   O14  148   3.348   7.116  10.786  0.2452  0.4629 -0.1104
    2SAPS   O12  149   3.462   6.932  10.665  0.5487  0.0219  0.5484
    2SAPS   O11  150   3.517   7.165  10.619 -0.1948  0.3430  0.2767
    2SAPS    C1  151   3.626   7.122  10.541  0.3578 -0.1194 -0.0042
    2SAPS    HA  152   3.696   7.086  10.619 -0.6511 -0.5790  0.7236
    2SAPS    HB  153   3.607   7.031  10.480  0.6824 -0.5836  0.5694
    2SAPS    C2  154   3.694   7.230  10.449 -0.6101  0.0481  0.9376
    2SAPS    HS  155   3.709   7.326  10.503 -0.4443 -0.4657  1.8176
    2SAPS   O21  156   3.613   7.245  10.335  0.3337  0.5634 -0.3877
    2SAPS   C21  157   3.511   7.324  10.341  0.2908 -0.2013  0.3503
    2SAPS   O22  158   3.472   7.398  10.429  0.0125  0.7459  0.2028
    2SAPS   C22  159   3.427   7.305  10.216 -0.4984  0.6693  0.1966
    2SAPS   H2R  160   3.457   7.388  10.148  0.0772  2.4873  2.5258
    2SAPS   H2S  161   3.453   7.205  10.175  0.9746  1.7090 -1.5407
    2SAPS    C3  162   3.840   7.180  10.409  0.0567  0.9299  0.5754
    2SAPS    HX  163   3.835   7.081  10.357 -0.3306  1.2782 -0.0628
    2SAPS    HY  164   3.905   7.153  10.494  2.8234 -0.6375 -1.8421
    2SAPS   O31  165   3.918   7.275  10.332 -0.3181  0.2608  0.3934
    2SAPS   C31  166   3.913   7.258  10.198 -0.6092  0.4292  0.3982
    2SAPS   O32  167   3.842   7.178  10.141 -0.0416  0.0329  0.2633
    2SAPS   C32  168   4.013   7.352  10.128 -0.0122  0.1024  0.0837
    2SAPS   H2X  169   4.112   7.308  10.153  0.5327 -0.1298 -2.3033
    2SAPS   H2Y  170   3.999   7.450  10.179  1.3944 -0.0479  0.8074
    2SAPS   C23  171   3.276   7.309  10.248  1.0591 -0.8646 -0.3482
    2SAPS   H3R  172   3.252   7.411  10.284 -0.0786 -0.5755 -1.8063
    2SAPS   H3S  173   3.250   7.242  10.333  0.1093  0.2409  0.2643
    2SAPS   C24  174   3.178   7.271  10.126 -0.4446  0.2031 -0.1447
    2SAPS   H4R  175   3.214   7.330  10.039 -2.3483 -1.0247 -1.8449
    2SAPS   H4S  176   3.072   7.303  10.136 -0.3032  0.3679  1.0585
    2SAPS   C25  177   3.177   7.124  10.106 -0.4827 -0.0655 -0.2008
    2SAPS   H5R  178   3.126   7.068  10.186  0.7745 -0.8139  0.1079
    2SAPS   C26  179   3.215   7.056   9.998 -0.0594  0.0900 -0.1093
    2SAPS   H6R  180   3.223   6.947   9.990  1.7759  0.0602  1.3458
    2SAPS   C27  181   3.272   7.121   9.879 -0.0411 -0.4634 -0.4371
    2SAPS   H7R  182   3.333   7.047   9.822 -2.7596 -1.3645 -2.3475
    2SAPS   H7S  183   3.343   7.200   9.911 -1.0292  0.3403 -0.1914
    2SAPS   C28  184   3.170   7.188   9.794 -0.3724 -0.2120  0.3141
    2SAPS   H8R  185   3.077   7.239   9.823  1.1484  1.0158  3.4562
    2SAPS   C29  186   3.187   7.182   9.653 -0.3499 -0.2009  0.0395
    2SAPS   H9R  187   3.107   7.224   9.592 -0.2469  0.3699  0.2899
    2SAPS  C210  188   3.288   7.104   9.569  0.2871 -0.4270  0.0257
    2SAPS  H10R  189   3.341   7.029   9.633 -0.6547 -1.2993 -0.1865
    2SAPS  H10S  190   3.370   7.169   9.531 -0.1859  0.1120 -0.0705
    2SAPS  C211  191   3.215   7.039   9.457 -0.1771  0.8591 -0.4059
    2SAPS  H11R  192   3.148   6.956   9.486  1.4766 -0.2387  0.4347
    2SAPS  C212  193   3.240   7.045   9.327  0.5390  0.0104 -0.1239
    2SAPS  H12R  194   3.187   6.979   9.257  1.4262 -1.7020  0.7562
    2SAPS  C213  195   3.335   7.141   9.261  0.2739 -0.2487  0.6422
    2SAPS  H13R  196   3.441   7.136   9.295  0.4023  0.7836  0.4314
    2SAPS  H13S  197   3.303   7.247   9.265 -0.6575 -0.4112 -1.3584
    2SAPS  C214  198   3.342   7.101   9.116  0.1622  0.3078 -0.3767
    2SAPS  H14R  199   3.427   7.033   9.103  0.0438  0.1083 -0.1235
    2SAPS  C215  200   3.274   7.154   9.017 -0.3490  0.1959 -0.1790
    2SAPS  H15R  201   3.303   7.110   8.921  0.3095  0.3592 -0.0611
    2SAPS  C216  202   3.162   7.259   9.010 -0.1286 -0.5478 -0.9458
    2SAPS  H16R  203   3.158   7.311   9.107 -1.6906  0.6791 -1.6302
    2SAPS  H16S  204   3.065   7.204   9.001 -0.2525 -0.8138  1.5115
    2SAPS  C217  205   3.191   7.366   8.904  0.1802 -0.3700 -0.7281
    2SAPS  H17R  206   3.293   7.408   8.915  0.2635 -0.7603  0.0226
    2SAPS  H17S  207   3.116   7.448   8.909  0.9542  0.3237 -0.3274
    2SAPS  C218  208   3.195   7.314   8.760  0.3968  0.1235  0.1168
    2SAPS  H18R  209   3.103   7.253   8.744  0.0068  0.5675  0.6168
    2SAPS  H18S  210   3.281   7.245   8.752  0.2119 -0.5460  2.8831
    2SAPS  C219  211   3.190   7.424   8.650 -0.1070  0.0175 -0.2384
    2SAPS  H19R  212   3.267   7.389   8.577  0.4551  0.7079  0.0186
    2SAPS  H19S  213   3.245   7.515   8.682  0.9453  0.0988 -2.1024
    2SAPS  C220  214   3.054   7.455   8.590  0.1098  0.1179  0.0474
    2SAPS  H20R  215   2.979   7.478   8.667 -0.9064 -2.9631  0.1037
    2SAPS  H20S  216   3.019   7.361   8.541  0.5655 -0.4041  0.7016
    2SAPS  H20T  217   3.066   7.527   8.506 -1.2547 -2.5846 -2.6484
    2SAPS   C33  218   3.986   7.344   9.978  0.1837  0.7884  0.0783
    2SAPS   H3X  219   3.883   7.375   9.948 -0.3132  0.4356  1.3326
    2SAPS   H3Y  220   4.002   7.240   9.942  0.8188  1.8953 -3.1804
    2SAPS   C34  221   4.090   7.428   9.895  0.2548  0.4068  0.6169
    2SAPS   H4X  222   4.189   7.413   9.943 -0.6305 -0.4276  2.2726
    2SAPS   H4Y  223   4.059   7.531   9.921 -2.0464 -1.0183  4.3046
    2SAPS   C35  224   4.083   7.391   9.746 -0.3649  0.1880  0.0082
    2SAPS   H5X  225   3.979   7.401   9.709 -0.3569 -2.1269 -0.8245
    2SAPS   H5Y  226   4.101   7.281   9.738 -0.8511  0.2101 -1.6822
    2SAPS   C36  227   4.190   7.462   9.663 -0.2120  0.0666 -0.1342
    2SAPS   H6X  228   4.287   7.430   9.706 -1.0290 -1.4646  0.6920
    2SAPS   H6Y  229   4.168   7.571   9.660  0.7698  0.3547  1.7740
    2SAPS   C37  230   4.200   7.423   9.513 -0.2373 -0.1845 -0.2381
    2SAPS   H7X  231   4.105   7.421   9.456  1.2106 -0.9890 -2.7990
    2SAPS   H7Y  232   4.234   7.317   9.512 -1.2002 -0.5048 -1.9913
    2SAPS   C38  233   4.312   7.506   9.445  0.1744  0.0544 -0.0341
    2SAPS   H8X  234   4.401   7.511   9.511  2.6622  0.8298 -3.2139
    2SAPS   H8Y  235   4.274   7.609   9.426  1.2334  0.6065  0.7292
    2SAPS   C39  236   4.348   7.438   9.306 -0.5128 -0.0877  0.3774
    2SAPS   H9X  237   4.251   7.433   9.252  1.2253 -0.8477 -2.9527
    2SAPS   H9Y  238   4.390   7.335   9.305 -0.3122 -0.0060 -0.8428
    2SAPS  C310  239   4.440   7.523   9.225 -0.3259 -0.1257  0.3485
    2SAPS  H10X  240   4.532   7.540   9.285  1.3332 -1.9046 -1.5240
    2SAPS  H10Y  241   4.387   7.618   9.199 -0.9453 -0.8745 -1.2986
    2SAPS  C311  242   4.485   7.457   9.091 -0.1897  0.4997  0.0412
    2SAPS  H11X  243   4.400   7.433   9.024 -0.0462 -0.6271  0.2582
    2SAPS  H11Y  244   4.536   7.359   9.102 -0.7513  0.1396 -0.4589
    2SAPS  C312  245   4.577   7.559   9.011 -0.1652  0.3679  0.7437
    2SAPS  H12X  246   4.661   7.596   9.073  0.9804 -0.1504 -0.4410
    2SAPS  H12Y  247   4.524   7.650   8.975 -0.0402  0.0527 -0.2640
    2SAPS  C313  248   4.640   7.496   8.886  0.1300 -0.3649  0.0137
    2SAPS  H13X  249   4.560   7.449   8.827  0.0760 -0.1219 -0.1079
    2SAPS  H13Y  250   4.707   7.414   8.921 -1.1102 -1.4809 -0.1732
    2SAPS  C314  251   4.719   7.595   8.804 -0.1525 -0.4874  0.2198
    2SAPS  H14X  252   4.778   7.651   8.879  1.6672 -1.0967 -0.7027
    2SAPS  H14Y  253   4.646   7.666   8.761 -1.4637 -1.3189  0.9861
    2SAPS  C315  254   4.785   7.522   8.693 -0.0920 -0.1101 -0.2069
    2SAPS  H15X  255   4.706   7.467   8.637  0.9085 -0.5845 -1.1974
    2SAPS  H15Y  256   4.861   7.446   8.721  2.1112  1.9199 -0.3540
    2SAPS  C316  257   4.863   7.617   8.598 -0.7692  0.4053 -0.3297
    2SAPS  H16X  258   4.900   7.571   8.505 -0.8498  0.2177 -0.2688
    2SAPS  H16Y  259   4.956   7.642   8.653 -1.4072  0.1297  0.9262
    2SAPS  C317  260   4.801   7.750   8.548 -0.3243  0.1997 -0.6275
    2SAPS  H17X  261   4.797   7.830   8.626 -2.6305 -0.9884  0.5712
    2SAPS  H17Y  262   4.693   7.734   8.528  0.2884 -3.2124 -1.8955
    2SAPS  C318  263   4.878   7.808   8.425  0.2746 -0.9964  0.2545
    2SAPS  H18X  264   4.867   7.740   8.337 -0.3877  0.2462 -0.6474
    2SAPS  H18Y  265   4.986   7.808   8.452  0.4285 -1.6274 -0.3258
    2SAPS  H18Z  266   4.833   7.906   8.399 -0.9526 -1.2209  1.4529
    3SAPS     N  267   4.278   3.095  11.167  0.2919  0.3308  0.5718
    3SAPS   HN1  268   4.329   3.162  11.228  0.5457 -0.1284  0.8721
    3SAPS   HN2  269   4.285   3.128  11.068  0.3840  1.5029  0.9579
    3SAPS   HN3  270   4.179   3.091  11.197 -0.8176 -1.8439 -2.8628
    3SAPS   C12  271   4.326   2.949  11.171 -0.6379  0.4083 -0.5353
    3SAPS  H12A  272   4.406   2.938  11.099 -0.7992  1.6563 -0.9358
    3SAPS   C13  273   4.381   2.904  11.312  0.1169 -0.8086  0.0196
    3SAPS  O13A  274   4.338   2.958  11.416  0.1429 -0.0768 -0.3551
    3SAPS  O13B  275   4.430   2.790  11.314 -0.4219  0.1242 -0.2287
    3SAPS   C11  276   4.205   2.860  11.130  0.3611 -0.1808  0.4824
    3SAPS  H11A  277   4.124   2.857  11.206  0.1923  0.2343  0.3223
    3SAPS  H11B  278   4.241   2.755  11.129 -0.5020 -0.4828  0.6879
    3SAPS     P  279   4.034   2.810  10.949  0.1252 -0.2766  0.3364
    3SAPS   O13  280   4.085   2.674  10.950  0.3054 -0.6823 -0.3785
    3SAPS   O14  281   3.918   2.833  11.033  0.2511  0.4373  0.2527
    3SAPS   O12  282   4.149   2.901  10.995  0.4803  0.5126  0.1159
    3SAPS   O11  283   3.996   2.860  10.804 -0.1673 -0.3440 -0.0120
    3SAPS    C1  284   4.104   2.927  10.730  0.2211  0.4318  0.5623
    3SAPS    HA  285   4.203   2.921  10.780 -0.2517  0.1676  1.4762
    3SAPS    HB  286   4.122   2.877  10.632  0.7799  3.2607 -0.8932
    3SAPS    C2  287   4.072   3.063  10.675 -0.4916 -0.1708 -0.4074
    3SAPS    HS  288   4.039   3.114  10.768  0.1336 -0.8680  0.2146
    3SAPS   O21  289   3.970   3.055  10.571  0.0552  0.1767 -0.3025
    3SAPS   C21  290   3.902   3.165  10.542 -0.3786 -0.4147 -0.1907
    3SAPS   O22  291   3.905   3.276  10.596 -0.1999  0.0338 -0.2458
    3SAPS   C22  292   3.816   3.121  10.424  0.2112 -0.1796  0.6494
    3SAPS   H2R  293   3.747   3.041  10.459 -3.5103  2.1469 -0.6910
    3SAPS   H2S  294   3.742   3.200  10.401 -1.2239 -1.2635  1.3796
    3SAPS    C3  295   4.196   3.136  10.619 -0.7203  0.7933  0.1616
    3SAPS    HX  296   4.279   3.152  10.691 -0.6339  1.1380 -0.0140
    3SAPS    HY  297   4.157   3.235  10.587 -0.1428 -0.0036 -3.4195
    3SAPS   O31  298   4.249   3.073  10.498  0.1840  0.3995  0.0433
    3SAPS   C31  299   4.368   3.015  10.499 -0.2769  0.3319  0.2978
    3SAPS   O32  300   4.443   3.012  10.594 -0.0149  0.1424  0.2945
    3SAPS   C32  301   4.390   2.941  10.365  0.1094  0.3219 -0.0471
    3SAPS   H2X  302   4.373   3.017  10.285 -2.6822  0.7080  0.8074
    3SAPS   H2Y  303   4.307   2.867  10.365  0.2332 -0.0057  3.9065
    3SAPS   C23  304   3.891   3.067  10.301 -0.2913  1.5228  0.3960
    3SAPS   H3R  305   3.987   3.015  10.321 -1.1972 -0.7800 -0.8764
    3SAPS   H3S  306   3.922   3.157  10.244  0.8891  1.8517  1.5377
    3SAPS   C24  307   3.811   2.982  10.207 -0.0436 -0.2918  0.1456
    3SAPS   H4R  308   3.857   2.970  10.106 -1.6267 -5.0306 -0.2589
    3SAPS   H4S  309   3.711   3.027  10.188  1.1292  3.3031  1.6964
    3SAPS   C25  310   3.804   2.845  10.279  0.3295  0.0227 -0.6997
    3SAPS   H5R  311   3.704   2.816  10.316  0.8165 -1.5605 -0.5367
    3SAPS   C26  312   3.899   2.746  10.282 -0.2073 -0.0978  0.5458
    3SAPS   H6R  313   3.880   2.653  10.338 -0.9679  0.4075  1.1589
    3SAPS   C27  314   4.045   2.754  10.238  0.1918 -0.6093 -0.0195
    3SAPS   H7R  315   4.109   2.748  10.329  0.4738 -0.2434 -0.1900
    3SAPS   H7S  316   4.062   2.858  10.203  2.7348 -0.7340  0.6566
    3SAPS   C28  317   4.098   2.659  10.131  0.7111 -0.4438  0.1013
    3SAPS   H8R  318   4.177   2.591  10.165 -1.8344 -2.8016  1.7761
    3SAPS   C29  319   4.046   2.640  10.012 -0.4061 -0.3046  0.1668
    3SAPS   H9R  320   4.075   2.550   9.955  0.7116 -0.5150  1.0293
    3SAPS  C210  321   3.950   2.718   9.937  0.9373  0.3827 -0.1384
    3SAPS  H10R  322   3.996   2.742   9.839  1.9662  0.0919  0.2585
    3SAPS  H10S  323   3.929   2.810   9.997  0.1703 -0.3345  0.7373
    3SAPS  C211  324   3.810   2.655   9.928 -1.2090  0.0488  0.4371
    3SAPS  H11R  325   3.776   2.601  10.017 -1.4804  0.7594  0.7726
    3SAPS  C212  326   3.739   2.636   9.820  0.1555  0.1030 -0.1330
    3SAPS  H12R  327   3.642   2.584   9.818  0.0180  0.3768 -0.9193
    3SAPS  C213  328   3.784   2.684   9.683  0.1609 -0.0748 -0.0838
    3SAPS  H13R  329   3.790   2.795   9.675  0.2750 -0.1678 -1.3764
    3SAPS  H13S  330   3.696   2.665   9.617 -0.5194 -0.6769  0.9619
    3SAPS  C214  331   3.901   2.607   9.634  0.1792  0.1260  0.4955
    3SAPS  H14R  332   3.943   2.527   9.697  1.8377  1.9428  1.8014
    3SAPS  C215  333   3.951   2.619   9.515  0.5189 -0.5722 -0.5090
    3SAPS  H15R  334   4.042   2.561   9.494  1.1119  0.1056  0.1161
    3SAPS  C216  335   3.911   2.726   9.414  0.4756  0.1254  0.0687
    3SAPS  H16R  336   3.992   2.800   9.396 -0.7248  1.1686 -1.3632
    3SAPS  H16S  337   3.826   2.784   9.455 -0.0018 -1.5666  1.6007
    3SAPS  C217  338   3.865   2.661   9.275  0.2750  0.0838 -0.0651
    3SAPS  H17R  339   3.783   2.733   9.254 -0.5524 -0.2205  1.9545
    3SAPS  H17S  340   3.834   2.556   9.296  0.3072  0.4045  1.7142
    3SAPS  C218  341   3.989   2.664   9.179  0.1112  0.5198  0.3187
    3SAPS  H18R  342   4.060   2.594   9.228  1.8465  2.1858  0.3062
    3SAPS  H18S  343   4.037   2.763   9.162  0.5820  0.1897 -0.3210
    3SAPS  C219  344   3.939   2.604   9.040 -0.3688  0.0989 -0.0430
    3SAPS  H19R  345   3.851   2.664   9.011 -1.9643 -1.9674  0.3164
    3SAPS  H19S  346   3.909   2.499   9.057  0.7919 -0.2383  0.0708
    3SAPS  C220  347   4.046   2.604   8.929  0.3198  0.4249  0.0411
    3SAPS  H20R  348   4.091   2.705   8.916 -1.2481  0.9551 -1.7181
    3SAPS  H20S  349   4.011   2.570   8.829 -0.7910 -0.5551  0.7425
    3SAPS  H20T  350   4.127   2.535   8.962 -0.3709 -0.7860 -0.7211
    3SAPS   C33  351   4.523   2.872  10.353 -0.1681 -0.4667  0.0477
    3SAPS   H3X  352   4.527   2.786  10.424 -0.4085 -0.8412 -0.3829
    3SAPS   H3Y  353   4.602   2.945  10.381 -1.2786  0.0888  1.9005
    3SAPS   C34  354   4.572   2.823  10.219  0.1700 -0.3012  0.0564
    3SAPS   H4X  355   4.486   2.762  10.182 -1.1253  0.8163  1.1355
    3SAPS   H4Y  356   4.661   2.758  10.235  0.6798 -0.1066 -1.7458
    3SAPS   C35  357   4.595   2.942  10.126 -0.2558 -0.1772  0.1790
    3SAPS   H5X  358   4.667   3.006  10.181 -0.7064 -3.3237  4.9857
    3SAPS   H5Y  359   4.500   2.998  10.117  0.9525  2.0150  0.4444
    3SAPS   C36  360   4.651   2.907   9.987  0.0438  0.3602  1.4140
    3SAPS   H6X  361   4.569   2.882   9.916  1.9685 -0.2498 -0.7474
    3SAPS   H6Y  362   4.718   2.820  10.005 -1.5443 -1.2092  0.1590
    3SAPS   C37  363   4.722   3.014   9.898  0.2206 -0.1068 -0.2859
    3SAPS   H7X  364   4.810   3.043   9.960  0.4980  0.3844 -0.9056
    3SAPS   H7Y  365   4.659   3.105   9.885  0.9634  0.4150 -0.3320
    3SAPS   C38  366   4.762   2.968   9.761  0.3720  0.9068  0.4976
    3SAPS   H8X  367   4.666   2.972   9.704 -0.9881  2.2749  2.7396
    3SAPS   H8Y  368   4.797   2.863   9.756 -1.3700  0.3397 -1.6220
    3SAPS   C39  369   4.849   3.069   9.687 -0.3516  0.3909 -0.6241
    3SAPS   H9X  370   4.955   3.059   9.719 -0.4681  0.5367 -0.1841
    3SAPS   H9Y  371   4.807   3.171   9.702 -2.6792 -0.4576 -0.9552
    3SAPS  C310  372   4.843   3.026   9.537 -0.6543  0.0961 -0.0894
    3SAPS  H10X  373   4.741   2.987   9.521 -1.2476  1.8601 -0.9000
    3SAPS  H10Y  374   4.918   2.948   9.511  1.1560  2.7789 -3.9191
    3SAPS  C311  375   4.873   3.146   9.453  0.4844 -0.1405  0.5003
    3SAPS  H11X  376   4.972   3.192   9.474  1.1324 -2.4383  2.9710
    3SAPS  H11Y  377   4.797   3.226   9.468  0.0909 -0.1154 -1.2880
    3SAPS  C312  378   4.871   3.119   9.302  0.1302 -0.6683  0.0063
    3SAPS  H12X  379   4.765   3.112   9.268 -0.3729 -1.7274  1.6775
    3SAPS  H12Y  380   4.917   3.018   9.306 -0.2336 -0.8473 -0.2055
    3SAPS  C313  381   4.965   3.201   9.218  0.0572 -0.0528  0.4040
    3SAPS  H13X  382   5.072   3.205   9.249  0.2800  1.4203 -0.4390
    3SAPS  H13Y  383   4.921   3.303   9.220  0.5048  0.2485 -2.1211
    3SAPS  C314  384   4.986   3.149   9.082  0.0265 -0.3410  0.0727
    3SAPS  H14X  385   4.897   3.093   9.046  0.5305 -1.0299 -0.1314
    3SAPS  H14Y  386   5.065   3.072   9.074  0.2278  0.0307 -2.2894
    3SAPS  C315  387   5.027   3.257   8.982 -0.2604  0.2134  0.0929
    3SAPS  H15X  388   5.138   3.261   8.973 -0.3788 -0.4436 -2.4554
    3SAPS  H15Y  389   4.984   3.356   9.007 -3.2035 -1.1194  0.7483
    3SAPS  C316  390   4.981   3.210   8.843  0.0110  0.5011 -0.2763
    3SAPS  H16X  391   4.870   3.212   8.852  0.1604  0.5363  2.2794
    3SAPS  H16Y  392   4.991   3.101   8.831  0.5373  0.6230 -0.9958
    3SAPS  C317  393   5.036   3.285   8.728 -0.1479  0.1437  0.8962
    3SAPS  H17X  394   5.142   3.254   8.715 -0.6049 -0.2306 -3.5360
    3SAPS  H17Y  395   5.018   3.393   8.746 -1.3286  0.2952 -0.9712
    3SAPS  C318  396   4.950   3.247   8.600 -0.8431 -0.2500 -0.2766
    3SAPS  H18X  397   4.979   3.143   8.575  0.3949 -0.9141  3.3305
    3SAPS  H18Y  398   4.990   3.304   8.513 -2.5208 -0.3657 -1.1658
    3SAPS  H18Z  399   4.839   3.240   8.599 -0.7405 -2.6207 -0.3849
    4SAPS     N  400   0.167   3.237  10.809 -0.7237 -0.2962  0.0241
    4SAPS   HN1  401   0.098   3.168  10.772 -2.2738  0.5120  1.2793
    4SAPS   HN2  402   0.256   3.227  10.756 -0.6469 -0.1256  0.1204
    4SAPS   HN3  403   0.183   3.209  10.908 -2.9752  2.1270  1.1722
    4SAPS   C12  404   0.123   3.374  10.802  0.1726 -0.2351 -0.8152
    4SAPS  H12A  405   0.057   3.391  10.885  3.4605  0.5714  1.8198
    4SAPS   C13  406   0.231   3.479  10.833 -0.8193 -0.0581  0.3687
    4SAPS  O13A  407   0.342   3.445  10.892  0.3563  0.4074 -0.4504
    4SAPS  O13B  408   0.199   3.601  10.825 -0.2876 -0.2718 -0.2587
    4SAPS   C11  409   0.052   3.414  10.667  0.2828  0.1041  0.5334
    4SAPS  H11A  410   0.123   3.414  10.583 -0.5098  0.0400 -0.1521
    4SAPS  H11B  411   0.036   3.523  10.676 -2.6108 -0.3020  1.6564
    4SAPS     P  412  -0.120   3.223  10.589 -0.1558  0.1653 -0.0524
    4SAPS   O13  413  -0.035   3.125  10.663 -0.0876 -0.1378  0.4121
    4SAPS   O14  414  -0.264   3.217  10.606  0.1972 -0.7153 -0.0908
    4SAPS   O12  415  -0.084   3.367  10.649 -0.8856 -0.5717  0.3250
    4SAPS   O11  416  -0.078   3.235  10.439  0.7107  0.8647  0.3167
    4SAPS    C1  417  -0.059   3.348  10.364  0.0011 -0.0844 -0.2835
    4SAPS    HA  418   0.009   3.421  10.414  0.3268 -1.5861  1.5661
    4SAPS    HB  419  -0.018   3.325  10.264  0.2373  1.2892 -0.5221
    4SAPS    C2  420  -0.188   3.440  10.346  0.0948 -0.0800 -0.0985
    4SAPS    HS  421  -0.256   3.450  10.433 -0.5553  1.9874 -0.7873
    4SAPS   O21  422  -0.255   3.376  10.233  0.1796  0.3644  0.0346
    4SAPS   C21  423  -0.374   3.427  10.200  0.3105  0.2526 -0.5947
    4SAPS   O22  424  -0.434   3.523  10.258 -0.4455  0.2005  0.4388
    4SAPS   C22  425  -0.442   3.339  10.095  0.5903  0.2337  0.1990
    4SAPS   H2R  426  -0.363   3.280  10.044  2.1302  1.0614  1.5237
    4SAPS   H2S  427  -0.503   3.255  10.137 -0.2986  0.9570  0.3803
    4SAPS    C3  428  -0.145   3.587  10.312 -0.1796  0.3981  0.0038
    4SAPS    HX  429  -0.074   3.617  10.392 -0.3223 -1.4093  0.8720
    4SAPS    HY  430  -0.237   3.648  10.313 -2.3460 -2.5997 -1.3973
    4SAPS   O31  431  -0.079   3.590  10.185 -0.1178 -0.3230 -0.5012
    4SAPS   C31  432  -0.034   3.710  10.154  0.4014  0.5569  0.9817
    4SAPS   O32  433  -0.025   3.807  10.224  0.5517 -0.2845 -0.1104
    4SAPS   C32  434   0.019   3.711  10.003  0.5197  0.0547 -1.1036
    4SAPS   H2X  435   0.128   3.723  10.016  0.6909 -1.7951 -0.5671
    4SAPS   H2Y  436  -0.020   3.800   9.950 -0.6698 -0.6902 -1.5286
    4SAPS   C23  437  -0.519   3.426   9.987 -0.4895  0.6987  0.5026
    4SAPS   H3R  438  -0.463   3.519   9.962  0.2594 -0.0167 -0.6101
    4SAPS   H3S  439  -0.621   3.455  10.020 -1.5630 -0.3633 -1.6937
    4SAPS   C24  440  -0.541   3.341   9.856  0.4021  0.5119 -0.1948
    4SAPS   H4R  441  -0.614   3.394   9.792  0.3289  1.5353  0.7002
    4SAPS   H4S  442  -0.595   3.249   9.885  0.8005 -0.3537 -2.0440
    4SAPS   C25  443  -0.408   3.312   9.786  0.1332 -0.4307  1.0190
    4SAPS   H5R  444  -0.344   3.238   9.836 -0.3822 -0.5565  1.5111
    4SAPS   C26  445  -0.367   3.354   9.666 -0.0253  0.2902  0.2133
    4SAPS   H6R  446  -0.270   3.322   9.624  1.0679  2.2532  1.0777
    4SAPS   C27  447  -0.426   3.462   9.578  0.5207 -0.6601  0.2512
    4SAPS   H7R  448  -0.347   3.497   9.508  0.7336 -0.2128  0.7166
    4SAPS   H7S  449  -0.444   3.555   9.636  1.7849 -0.5961  0.5780
    4SAPS   C28  450  -0.552   3.423   9.500 -0.7066  0.2918 -0.0454
    4SAPS   H8R  451  -0.642   3.402   9.560 -0.5988 -0.4388 -0.1254
    4SAPS   C29  452  -0.558   3.384   9.369  0.0128 -0.4523 -0.1669
    4SAPS   H9R  453  -0.657   3.370   9.323 -0.7108  4.1319 -0.5184
    4SAPS  C210  454  -0.436   3.386   9.279 -0.2536 -0.3420  0.5699
    4SAPS  H10R  455  -0.429   3.291   9.222 -0.7490  0.8034 -1.4884
    4SAPS  H10S  456  -0.344   3.383   9.341 -0.1978  0.3343  0.5264
    4SAPS  C211  457  -0.427   3.506   9.194  1.2045  0.7396 -1.2216
    4SAPS  H11R  458  -0.465   3.602   9.234  2.4171  1.4969 -1.8023
    4SAPS  C212  459  -0.357   3.503   9.079 -0.4927 -0.2868 -0.0513
    4SAPS  H12R  460  -0.371   3.588   9.011  0.4232  0.8891  1.1741
    4SAPS  C213  461  -0.291   3.381   9.015  0.6776 -0.0896  0.3779
    4SAPS  H13R  462  -0.253   3.321   9.101 -0.8754 -2.1846 -0.3117
    4SAPS  H13S  463  -0.215   3.410   8.940 -1.9217 -1.6075 -3.0861
    4SAPS  C214  464  -0.387   3.285   8.936 -0.3981 -0.3889  0.6391
    4SAPS  H14R  465  -0.475   3.238   8.984 -1.2318 -1.6146 -1.9104
    4SAPS  C215  466  -0.376   3.240   8.809  0.2470  0.2754  0.1907
    4SAPS  H15R  467  -0.459   3.178   8.773 -1.2714  0.3530  3.2370
    4SAPS  C216  468  -0.258   3.257   8.715 -0.6197  1.1013 -0.2476
    4SAPS  H16R  469  -0.172   3.317   8.751  0.8812 -1.1273  0.0697
    4SAPS  H16S  470  -0.302   3.311   8.628 -2.0127  2.5464  1.2774
    4SAPS  C217  471  -0.189   3.136   8.640 -0.2658  0.2137  0.1418
    4SAPS  H17R  472  -0.271   3.092   8.580 -1.2350 -0.8461  2.1595
    4SAPS  H17S  473  -0.167   3.055   8.714 -0.1164 -0.0004 -0.1355
    4SAPS  C218  474  -0.067   3.162   8.552  0.6685  0.5288 -0.2548
    4SAPS  H18R  475   0.013   3.189   8.625  0.6212 -0.4830  0.1898
    4SAPS  H18S  476  -0.093   3.252   8.492  2.0131 -0.1952 -1.9961
    4SAPS  C219  477  -0.039   3.054   8.446 -0.4832 -0.1912  0.0659
    4SAPS  H19R  478  -0.136   3.009   8.414  0.4326 -0.6531 -2.2790
    4SAPS  H19S  479   0.012   2.962   8.483  0.9146  0.2826 -0.6375
    4SAPS  C220  480   0.039   3.108   8.327 -0.0665 -0.4834  0.3922
    4SAPS  H20R  481  -0.021   3.171   8.258  0.0414 -0.2014  0.5535
    4SAPS  H20S  482   0.087   3.026   8.269 -0.6169  0.7956 -2.0402
    4SAPS  H20T  483   0.122   3.173   8.361  0.1982  0.0386 -1.1597
    4SAPS   C33  484  -0.023   3.587   9.919  0.1046 -0.1100 -0.2901
    4SAPS   H3X  485  -0.128   3.552   9.909 -0.0348 -0.6914  2.3816
    4SAPS   H3Y  486   0.027   3.513   9.985 -1.2323  1.1385  2.2957
    4SAPS   C34  487   0.032   3.600   9.775 -0.1289 -0.4465 -0.0773
    4SAPS   H4X  488   0.136   3.637   9.786 -0.2469  0.3574 -1.3500
    4SAPS   H4Y  489  -0.031   3.676   9.723 -0.3693  0.4279  1.4177
    4SAPS   C35  490   0.022   3.473   9.690 -0.7268  0.4664 -0.6801
    4SAPS   H5X  491  -0.081   3.433   9.682 -0.3973 -0.8609  1.1388
    4SAPS   H5Y  492   0.085   3.396   9.740  0.7732  1.1436 -1.4802
    4SAPS   C36  493   0.080   3.488   9.548  0.0054  0.2498 -0.2795
    4SAPS   H6X  494   0.107   3.388   9.507 -1.4015 -0.0416 -0.5390
    4SAPS   H6Y  495   0.174   3.547   9.554  0.2452 -0.2261  1.0413
    4SAPS   C37  496  -0.014   3.548   9.442 -0.1956 -0.1846  0.3535
    4SAPS   H7X  497   0.020   3.653   9.434 -0.3623 -0.1935 -0.6221
    4SAPS   H7Y  498  -0.119   3.552   9.477 -0.9099  2.1318 -1.7418
    4SAPS   C38  499  -0.018   3.493   9.299  0.1785 -0.1701 -0.1089
    4SAPS   H8X  500  -0.103   3.534   9.241 -1.2131 -2.9990 -0.2742
    4SAPS   H8Y  501  -0.029   3.382   9.299  1.5484 -0.3623 -2.0457
    4SAPS   C39  502   0.117   3.513   9.227 -0.0102  0.1558 -0.1788
    4SAPS   H9X  503   0.200   3.456   9.274  0.3862  0.5940 -0.3499
    4SAPS   H9Y  504   0.134   3.623   9.223  0.4605  0.0573 -1.1428
    4SAPS  C310  505   0.083   3.465   9.083  0.4647  0.1903  0.3037
    4SAPS  H10X  506  -0.002   3.525   9.044  1.1289 -0.2803 -2.0291
    4SAPS  H10Y  507   0.039   3.364   9.076  1.7894 -0.3311 -1.1890
    4SAPS  C311  508   0.208   3.491   8.985  0.9836 -0.5861  0.4067
    4SAPS  H11X  509   0.306   3.467   9.032  1.7506 -1.0005 -1.3256
    4SAPS  H11Y  510   0.212   3.602   8.978 -0.4674 -0.5162  0.3924
    4SAPS  C312  511   0.198   3.432   8.847  0.4966  0.4142  0.1131
    4SAPS  H12X  512   0.096   3.428   8.803  0.2776 -1.2155  0.7069
    4SAPS  H12Y  513   0.218   3.323   8.861  0.9749  0.5132  0.2300
    4SAPS  C313  514   0.298   3.493   8.750  0.3617 -0.6382 -0.1816
    4SAPS  H13X  515   0.401   3.484   8.791  0.2749 -2.5293 -0.2839
    4SAPS  H13Y  516   0.278   3.601   8.736  2.4013  0.0351  1.5274
    4SAPS  C314  517   0.311   3.423   8.615 -0.7622  0.2792  0.1482
    4SAPS  H14X  518   0.208   3.416   8.576 -0.8722 -0.7830  0.6102
    4SAPS  H14Y  519   0.360   3.324   8.604  0.5619  0.9922 -0.5912
    4SAPS  C315  520   0.389   3.513   8.516  0.6272  0.7758  0.3768
    4SAPS  H15X  521   0.496   3.515   8.546  0.7016  2.0523  0.0626
    4SAPS  H15Y  522   0.354   3.618   8.514 -1.8518  0.0326  0.9851
    4SAPS  C316  523   0.395   3.444   8.377  0.4099  0.0295 -0.2692
    4SAPS  H16X  524   0.293   3.431   8.335  0.0545 -1.9527  1.0990
    4SAPS  H16Y  525   0.441   3.344   8.391 -2.1641 -1.1533  0.3268
    4SAPS  C317  526   0.474   3.528   8.279 -0.6607  0.5150  0.0619
    4SAPS  H17X  527   0.473   3.470   8.184  0.7551 -1.8025  1.3588
    4SAPS  H17Y  528   0.573   3.522   8.330 -0.3598  0.6852 -0.4955
    4SAPS  C318  529   0.430   3.671   8.253  0.2836 -0.1051 -0.2877
    4SAPS  H18X  530   0.424   3.727   8.348 -0.6221 -0.2822 -0.2311
    4SAPS  H18Y  531   0.327   3.663   8.211  0.0002 -0.8796  0.5133
    4SAPS  H18Z  532   0.488   3.719   8.172 -0.7962  1.0014 -0.4309
    5SAPS     N  533   4.082   4.036  11.321  0.4602 -0.1513  0.7090
    5SAPS   HN1  534   4.060   3.995  11.228 -1.1843 -1.1661  1.4898
    5SAPS   HN2  535   4.146   4.118  11.315 -0.1504  0.2463 -1.2537
    5SAPS   HN3  536   4.124   3.960  11.377 -1.2421 -1.1927  0.6351
    5SAPS   C12  537   3.957   4.071  11.389 -0.0808 -0.1211  0.0136
    5SAPS  H12A  538   3.896   3.982  11.397 -2.2254  1.2543 -0.0741
    5SAPS   C13  539   3.988   4.124  11.538  0.4670 -0.1827  0.5885
    5SAPS  O13A  540   4.105   4.123  11.585  0.0046 -0.0623 -0.4716
    5SAPS  O13B  541   3.880   4.144  11.598 -0.1095 -0.5641  0.0348
    5SAPS   C11  542   3.870   4.168  11.306 -0.9511  0.2227  0.2553
    5SAPS  H11A  543   3.915   4.269  11.291 -2.7755  0.8993 -1.0437
    5SAPS  H11B  544   3.778   4.186  11.365 -1.6755 -0.0795 -0.7434
    5SAPS     P  545   3.714   4.150  11.098  0.0620 -0.0354  0.0778
    5SAPS   O13  546   3.589   4.139  11.182  0.1537 -0.1746 -0.1847
    5SAPS   O14  547   3.748   4.280  11.029 -0.0019 -0.0416  0.4793
    5SAPS   O12  548   3.839   4.108  11.181 -0.4270 -0.0607 -0.4114
    5SAPS   O11  549   3.701   4.029  10.997 -0.1294 -0.0985 -0.2821
    5SAPS    C1  550   3.807   3.936  10.970 -0.1709 -0.0965 -0.1649
    5SAPS    HA  551   3.898   3.986  10.932 -0.6051 -1.1118 -2.7563
    5SAPS    HB  552   3.821   3.872  11.060  0.7447  0.5490  0.1684
    5SAPS    C2  553   3.773   3.843  10.859  0.1123 -0.5939  0.1329
    5SAPS    HS  554   3.844   3.758  10.866  1.2122  0.4273  2.6237
    5SAPS   O21  555   3.776   3.911  10.737 -0.2894  0.0260  0.4070
    5SAPS   C21  556   3.886   3.897  10.663 -0.7361  0.7900 -0.2668
    5SAPS   O22  557   3.989   3.843  10.699 -0.3341  0.3184  0.0264
    5SAPS   C22  558   3.864   3.961  10.523  0.2718  0.5412 -0.5668
    5SAPS   H2R  559   3.808   3.886  10.462  1.3301  0.4019 -1.4049
    5SAPS   H2S  560   3.815   4.058  10.546 -0.6402 -0.1689  0.6168
    5SAPS    C3  561   3.631   3.791  10.884 -0.0127  0.1021 -0.5205
    5SAPS    HX  562   3.562   3.877  10.870 -1.1737 -0.6760  0.2025
    5SAPS    HY  563   3.605   3.768  10.990 -1.0039 -0.1512 -0.8024
    5SAPS   O31  564   3.607   3.681  10.796  0.4880  0.0882 -0.1987
    5SAPS   C31  565   3.502   3.681  10.714 -0.1881  0.4252  0.1562
    5SAPS   O32  566   3.417   3.764  10.706  0.3391  0.7012  0.4186
    5SAPS   C32  567   3.500   3.550  10.624 -0.1195 -0.1098  0.1216
    5SAPS   H2X  568   3.411   3.556  10.557  1.8509 -0.0575 -2.6970
    5SAPS   H2Y  569   3.484   3.461  10.688 -1.5145  0.8370  1.1368
    5SAPS   C23  570   3.996   4.001  10.446  0.5499 -0.7202  0.1420
    5SAPS   H3R  571   4.062   3.911  10.447  2.7257  0.6864  3.3366
    5SAPS   H3S  572   4.046   4.083  10.502 -0.4449 -0.6526  0.9487
    5SAPS   C24  573   3.947   4.032  10.305  0.4282 -0.0888  0.1069
    5SAPS   H4R  574   3.880   4.120  10.294  1.5745  0.5327 -2.9705
    5SAPS   H4S  575   3.898   3.946  10.254  1.9789 -1.3136  0.6023
    5SAPS   C25  576   4.058   4.092  10.231  0.6266  0.5220  0.0543
    5SAPS   H5R  577   4.133   4.146  10.290 -0.5764  2.0872  0.2420
    5SAPS   C26  578   4.084   4.064  10.105 -0.0315 -0.1341  0.1642
    5SAPS   H6R  579   4.165   4.105  10.043  0.1639 -1.1118 -0.2510
    5SAPS   C27  580   3.990   3.983  10.015 -0.0779  0.1695  0.2633
    5SAPS   H7R  581   3.946   4.057   9.944 -0.4987  0.7383  1.1067
    5SAPS   H7S  582   3.893   3.944  10.053  1.2971 -1.3921  2.3693
    5SAPS   C28  583   4.067   3.878   9.934 -0.2169 -0.4154  0.5515
    5SAPS   H8R  584   4.155   3.828   9.979  1.1716  0.6845 -0.8427
    5SAPS   C29  585   4.035   3.818   9.822  0.1221 -0.7558 -0.3879
    5SAPS   H9R  586   4.087   3.732   9.778  0.1841 -0.8267 -0.1761
    5SAPS  C210  587   3.908   3.849   9.741  0.3561 -0.1397  0.3101
    5SAPS  H10R  588   3.942   3.885   9.641  0.0021  0.3261  0.3504
    5SAPS  H10S  589   3.845   3.927   9.789 -0.0327 -1.8284  2.7123
    5SAPS  C211  590   3.836   3.722   9.739 -0.2620  0.3134 -0.1718
    5SAPS  H11R  591   3.780   3.689   9.828  0.8795 -1.1613  0.0418
    5SAPS  C212  592   3.826   3.630   9.638  0.3953 -0.4841  0.1285
    5SAPS  H12R  593   3.757   3.545   9.656 -2.5726  1.7940  0.2315
    5SAPS  C213  594   3.874   3.643   9.493  0.5064  0.1718  0.2267
    5SAPS  H13R  595   3.949   3.724   9.479  0.1567  0.1981 -1.8662
    5SAPS  H13S  596   3.785   3.678   9.437  1.2891  1.6375 -0.1559
    5SAPS  C214  597   3.921   3.521   9.430  0.0310 -0.1421  0.0650
    5SAPS  H14R  598   3.926   3.432   9.493  0.7155  0.0184  0.2459
    5SAPS  C215  599   3.986   3.523   9.313  1.0876  0.1738  0.0182
    5SAPS  H15R  600   4.033   3.430   9.278 -1.2966 -0.8426 -0.6946
    5SAPS  C216  601   3.988   3.639   9.214 -0.0178  0.3670  0.2323
    5SAPS  H16R  602   4.092   3.662   9.180  0.0020  1.3897  0.9222
    5SAPS  H16S  603   3.949   3.732   9.261 -1.8848 -1.4579  2.5682
    5SAPS  C217  604   3.902   3.611   9.091 -0.1143 -0.4101  0.2121
    5SAPS  H17R  605   3.802   3.659   9.089 -0.1678 -0.5127  0.3373
    5SAPS  H17S  606   3.871   3.509   9.061 -1.5660  0.5337 -1.6976
    5SAPS  C218  607   3.962   3.670   8.966  0.5099  0.0006  0.6282
    5SAPS  H18R  608   4.001   3.774   8.973 -1.1292  0.6321  0.6938
    5SAPS  H18S  609   4.050   3.604   8.947  0.6766  1.1382 -3.3024
    5SAPS  C219  610   3.865   3.646   8.849 -0.2812  0.8650  0.1957
    5SAPS  H19R  611   3.896   3.718   8.770  0.7255  1.4875  1.1261
    5SAPS  H19S  612   3.768   3.675   8.895 -0.3803  0.2362  0.3939
    5SAPS  C220  613   3.850   3.506   8.792 -0.0464 -0.2626  0.2045
    5SAPS  H20R  614   3.952   3.479   8.759 -0.0250 -0.5900  0.5278
    5SAPS  H20S  615   3.796   3.510   8.695 -0.5853  1.0438  0.5438
    5SAPS  H20T  616   3.819   3.432   8.869  1.8178 -0.7567  0.5313
    5SAPS   C33  617   3.630   3.528  10.539 -0.0822 -0.5338  0.0311
    5SAPS   H3X  618   3.680   3.430  10.556 -0.3268 -1.0945 -2.0997
    5SAPS   H3Y  619   3.700   3.604  10.579 -3.1849  2.6105  0.0260
    5SAPS   C34  620   3.615   3.552  10.390  0.2054 -0.4050 -0.7665
    5SAPS   H4X  621   3.569   3.653  10.379 -0.2727 -0.2862  1.7202
    5SAPS   H4Y  622   3.555   3.473  10.339 -0.7838 -0.5066  0.4944
    5SAPS   C35  623   3.752   3.567  10.331  0.3881 -0.4561 -0.2075
    5SAPS   H5X  624   3.806   3.473  10.357  1.7665  0.0545 -1.1169
    5SAPS   H5Y  625   3.800   3.655  10.377 -0.3662 -0.0139 -0.2468
    5SAPS   C36  626   3.752   3.582  10.180  0.3059 -1.2893  0.6007
    5SAPS   H6X  627   3.832   3.656  10.158  0.0274 -1.5622 -1.5049
    5SAPS   H6Y  628   3.656   3.622  10.142  0.7043 -0.1892  0.6995
    5SAPS   C37  629   3.795   3.450  10.126  0.5819  0.3805  0.1604
    5SAPS   H7X  630   3.720   3.378  10.166  1.7442 -1.7382 -1.2715
    5SAPS   H7Y  631   3.896   3.421  10.161  0.1806 -3.0143 -1.1188
    5SAPS   C38  632   3.793   3.437   9.970  0.6252 -0.2153  0.5472
    5SAPS   H8X  633   3.876   3.495   9.924  1.8410 -1.4545  1.0973
    5SAPS   H8Y  634   3.695   3.462   9.924 -0.6104 -3.1188  1.3784
    5SAPS   C39  635   3.831   3.295   9.923  0.3835 -0.0757 -0.2555
    5SAPS   H9X  636   3.798   3.239  10.013 -1.1886  1.7886  0.4077
    5SAPS   H9Y  637   3.940   3.288   9.907  0.3873 -2.1458  0.4120
    5SAPS  C310  638   3.751   3.266   9.791  0.4308  0.7820  0.5289
    5SAPS  H10X  639   3.776   3.347   9.720  0.7813  0.3610  0.1655
    5SAPS  H10Y  640   3.644   3.278   9.821  0.9770  0.6379  2.6811
    5SAPS  C311  641   3.773   3.127   9.733 -0.2693  0.1114  0.5423
    5SAPS  H11X  642   3.734   3.048   9.800 -0.1676 -0.7032 -0.3334
    5SAPS  H11Y  643   3.881   3.102   9.718 -0.4565 -0.1435 -0.4940
    5SAPS  C312  644   3.693   3.112   9.603 -0.3396 -0.4706  0.0863
    5SAPS  H12X  645   3.584   3.128   9.619 -0.8996 -0.3958 -3.0406
    5SAPS  H12Y  646   3.710   3.009   9.565  1.0685 -0.0877 -0.3835
    5SAPS  C313  647   3.749   3.209   9.491  0.8885  0.2143 -0.0931
    5SAPS  H13X  648   3.858   3.224   9.504  0.9118  0.8282 -0.9092
    5SAPS  H13Y  649   3.702   3.308   9.511  2.0340  1.3830 -2.6036
    5SAPS  C314  650   3.714   3.164   9.355  0.5534  0.2654 -0.0652
    5SAPS  H14X  651   3.660   3.244   9.299 -0.4706 -0.2574  0.1429
    5SAPS  H14Y  652   3.640   3.080   9.361  0.0875  0.7789  2.2883
    5SAPS  C315  653   3.828   3.107   9.272 -0.0654 -0.3841  0.3420
    5SAPS  H15X  654   3.860   3.011   9.317 -0.4822 -0.2122  1.0078
    5SAPS  H15Y  655   3.919   3.171   9.282  0.4172 -1.1209  0.7566
    5SAPS  C316  656   3.794   3.107   9.122 -0.7671 -0.2871  0.1519
    5SAPS  H16X  657   3.780   3.210   9.084  0.0018 -0.2743 -0.1157
    5SAPS  H16Y  658   3.699   3.053   9.103 -0.9786  0.8374 -2.3261
    5SAPS  C317  659   3.888   3.034   9.034  0.3600 -0.5163  0.6749
    5SAPS  H17X  660   3.908   2.932   9.075  3.5180  0.1708  1.1110
    5SAPS  H17Y  661   3.988   3.081   9.032 -0.0007  0.3303 -2.7165
    5SAPS  C318  662   3.826   3.003   8.897  0.7999  0.2120  0.5093
    5SAPS  H18X  663   3.733   2.943   8.905  0.9201  0.1854  1.9033
    5SAPS  H18Y  664   3.899   2.938   8.843 -0.0792  0.7763 -1.4612
    5SAPS  H18Z  665   3.818   3.090   8.828  1.1759 -0.2471 -0.1209
    6SAPS     N  666   2.341   0.081  10.768 -0.2546 -0.5236  0.1750
    6SAPS   HN1  667   2.291   0.118  10.685  2.8157 -0.6811 -1.8969
    6SAPS   HN2  668   2.410   0.156  10.789 -2.3570  1.2688  1.0811
    6SAPS   HN3  669   2.382  -0.009  10.737  1.1380  0.8353 -2.1643
    6SAPS   C12  670   2.267   0.072  10.901  0.2904  0.1518 -0.0005
    6SAPS  H12A  671   2.198  -0.010  10.896  0.7545 -0.2449 -0.0031
    6SAPS   C13  672   2.359   0.028  11.027  0.7188 -0.2236 -0.0043
    6SAPS  O13A  673   2.483   0.014  11.003 -0.2140 -0.0476 -0.2104
    6SAPS  O13B  674   2.313   0.005  11.141 -0.0404 -0.5385 -0.0858
    6SAPS   C11  675   2.181   0.196  10.940  0.2792  0.2933  0.3364
    6SAPS  H11A  676   2.246   0.282  10.912  1.4645 -0.7426 -0.1779
    6SAPS  H11B  677   2.164   0.188  11.049 -1.1634 -1.1162  0.0382
    6SAPS     P  678   1.943   0.298  10.893 -0.1647  0.1118  0.1149
    6SAPS   O13  679   1.832   0.259  10.799  0.6245  0.0178  0.1653
    6SAPS   O14  680   1.906   0.313  11.033  0.0229 -0.8119 -0.5506
    6SAPS   O12  681   2.055   0.194  10.868 -0.7718 -0.4558  0.2255
    6SAPS   O11  682   1.992   0.443  10.844  0.2648 -0.1869  0.5875
    6SAPS    C1  683   2.021   0.456  10.709 -0.3378 -0.2130  0.7190
    6SAPS    HA  684   2.095   0.383  10.673 -0.4209 -1.0687  2.2003
    6SAPS    HB  685   1.932   0.444  10.644  1.7208 -0.2177 -2.2830
    6SAPS    C2  686   2.067   0.607  10.680  0.2094  0.3134 -0.1057
    6SAPS    HS  687   2.012   0.674  10.750 -0.0526  0.3560 -0.3498
    6SAPS   O21  688   2.027   0.632  10.551 -0.2135  0.3904  0.2319
    6SAPS   C21  689   2.041   0.755  10.510 -1.8007 -0.7568  0.2044
    6SAPS   O22  690   2.069   0.851  10.583  0.2333 -0.1130 -0.2450
    6SAPS   C22  691   2.017   0.766  10.359  0.2023  0.3015 -0.9060
    6SAPS   H2R  692   2.064   0.681  10.304 -0.5498 -1.5966  1.2247
    6SAPS   H2S  693   1.909   0.757  10.336  0.6412 -0.6854 -2.8797
    6SAPS    C3  694   2.220   0.615  10.699 -0.1745  0.2156  0.1622
    6SAPS    HX  695   2.240   0.573  10.800  0.3914  0.3117  0.0933
    6SAPS    HY  696   2.263   0.718  10.706  2.5866 -0.9314  2.0984
    6SAPS   O31  697   2.294   0.528  10.601  0.2663  0.5672 -0.4972
    6SAPS   C31  698   2.341   0.597  10.498  0.3478  0.2365  0.0075
    6SAPS   O32  699   2.322   0.715  10.472  1.2432 -0.3893 -0.3965
    6SAPS   C32  700   2.427   0.505  10.410  0.5889  0.5311 -1.2873
    6SAPS   H2X  701   2.431   0.409  10.466 -2.9297  1.7512  1.3759
    6SAPS   H2Y  702   2.526   0.551  10.390  0.3847  0.3761 -2.8228
    6SAPS   C23  703   2.063   0.902  10.297 -0.2227 -0.2030 -0.3882
    6SAPS   H3R  704   2.173   0.916  10.296 -0.2334  0.2827  1.7345
    6SAPS   H3S  705   2.016   0.987  10.351  1.0016 -1.6211  3.1701
    6SAPS   C24  706   1.998   0.909  10.160  0.7673 -0.4519 -0.5002
    6SAPS   H4R  707   2.010   1.013  10.121 -1.5431 -0.4438 -1.3593
    6SAPS   H4S  708   1.889   0.895  10.171  1.2055 -3.2678  1.1353
    6SAPS   C25  709   2.064   0.818  10.055 -0.0464 -0.6151 -0.2587
    6SAPS   H5R  710   2.129   0.736  10.090 -1.2097 -0.8749  1.4515
    6SAPS   C26  711   2.049   0.830   9.921 -0.4735 -0.1544 -0.1536
    6SAPS   H6R  712   2.090   0.741   9.870  0.3962 -0.5164  1.1185
    6SAPS   C27  713   1.969   0.927   9.840 -0.1001  0.5662  0.7357
    6SAPS   H7R  714   2.020   0.925   9.741 -1.4941  0.7507 -0.0110
    6SAPS   H7S  715   1.967   1.027   9.887  0.1910  1.1797 -0.5107
    6SAPS   C28  716   1.834   0.871   9.821 -0.1509  0.5108 -0.0367
    6SAPS   H8R  717   1.783   0.851   9.916  1.0687  1.2813  0.8237
    6SAPS   C29  718   1.777   0.838   9.708  0.5957  0.6347  0.2324
    6SAPS   H9R  719   1.676   0.795   9.704 -0.2211  2.5270 -0.1379
    6SAPS  C210  720   1.846   0.866   9.576 -0.2761  0.1423  0.4014
    6SAPS  H10R  721   1.951   0.831   9.565  0.2161  0.2755  3.5321
    6SAPS  H10S  722   1.861   0.975   9.561 -0.4310 -0.1091 -1.8860
    6SAPS  C211  723   1.768   0.821   9.457  1.1683 -0.4525  0.0924
    6SAPS  H11R  724   1.715   0.899   9.401 -0.5872 -0.7259  1.2980
    6SAPS  C212  725   1.776   0.693   9.413 -0.0246 -0.2582 -0.5272
    6SAPS  H12R  726   1.715   0.658   9.328 -0.2258  0.1663 -0.5596
    6SAPS  C213  727   1.842   0.579   9.481 -0.5434 -0.0260 -0.0920
    6SAPS  H13R  728   1.797   0.478   9.465 -0.0398 -0.6144  1.9324
    6SAPS  H13S  729   1.847   0.590   9.591  0.3261 -1.1973  0.0018
    6SAPS  C214  730   1.982   0.551   9.430  0.8924 -0.4575  0.3905
    6SAPS  H14R  731   2.054   0.528   9.510  1.8626 -2.1145 -0.8854
    6SAPS  C215  732   2.029   0.535   9.304 -0.7871 -0.2110 -1.0798
    6SAPS  H15R  733   2.136   0.508   9.299 -0.4874  0.8593 -0.5689
    6SAPS  C216  734   1.947   0.540   9.175  0.6269 -0.4842  0.0364
    6SAPS  H16R  735   1.839   0.559   9.195  0.7742 -0.0739  0.4580
    6SAPS  H16S  736   1.947   0.436   9.136  0.0677 -1.3556  2.2142
    6SAPS  C217  737   1.984   0.650   9.072  0.1099 -0.5738 -0.4760
    6SAPS  H17R  738   2.000   0.749   9.121  0.4529 -0.5752 -0.5791
    6SAPS  H17S  739   1.907   0.661   8.993 -0.0864 -1.7096 -0.4574
    6SAPS  C218  740   2.117   0.619   8.989 -0.2000 -0.0693 -0.3828
    6SAPS  H18R  741   2.093   0.516   8.954 -1.3644  0.7399 -2.1092
    6SAPS  H18S  742   2.200   0.622   9.063  0.9119  0.3988 -1.6037
    6SAPS  C219  743   2.141   0.710   8.867  0.0229  0.5987 -0.6873
    6SAPS  H19R  744   2.146   0.814   8.906 -1.4179  0.1190  0.8852
    6SAPS  H19S  745   2.061   0.704   8.790 -1.3593 -0.7699  0.7980
    6SAPS  C220  746   2.268   0.681   8.790 -0.5218  0.2916 -0.2671
    6SAPS  H20R  747   2.292   0.574   8.771  1.4660  0.9059 -1.5752
    6SAPS  H20S  748   2.354   0.725   8.844 -1.1090  1.0594  0.0617
    6SAPS  H20T  749   2.274   0.737   8.694  1.0105  0.9444  0.1912
    6SAPS   C33  750   2.345   0.494  10.275  0.4007  0.6338  0.3594
    6SAPS   H3X  751   2.414   0.446  10.203  0.2243 -1.3902  1.4603
    6SAPS   H3Y  752   2.313   0.596  10.245 -0.2151  0.1896 -0.5367
    6SAPS   C34  753   2.217   0.407  10.280  0.1772  0.8475  0.8527
    6SAPS   H4X  754   2.144   0.430  10.360 -2.2837 -1.0039 -0.6906
    6SAPS   H4Y  755   2.245   0.302  10.304 -2.6283 -0.0137  0.6936
    6SAPS   C35  756   2.144   0.397  10.145 -0.3690  0.3700 -0.5535
    6SAPS   H5X  757   2.161   0.488  10.083 -0.4812  1.2977  0.7436
    6SAPS   H5Y  758   2.036   0.392  10.167 -0.6606  1.0645 -1.7291
    6SAPS   C36  759   2.178   0.273  10.063  0.0544 -1.0119 -0.2992
    6SAPS   H6X  760   2.095   0.233  10.000 -2.2380  2.3172  0.3239
    6SAPS   H6Y  761   2.186   0.195  10.142  0.6271  1.2082  1.9604
    6SAPS   C37  762   2.313   0.261   9.989  0.1894 -0.1019 -0.0527
    6SAPS   H7X  763   2.316   0.155   9.955 -2.1496 -0.4689  0.7560
    6SAPS   H7Y  764   2.395   0.289  10.058 -1.6657  0.7106  1.8994
    6SAPS   C38  765   2.305   0.348   9.863 -1.1146  0.6367  0.3794
    6SAPS   H8X  766   2.408   0.350   9.822 -1.1940  2.5994  0.2117
    6SAPS   H8Y  767   2.263   0.449   9.878 -1.3599  0.3769  1.5925
    6SAPS   C39  768   2.227   0.282   9.745 -0.8330 -0.4622 -0.3077
    6SAPS   H9X  769   2.117   0.286   9.760 -0.6025 -1.2938  1.9722
    6SAPS   H9Y  770   2.242   0.172   9.744  0.6709 -0.3277  1.8367
    6SAPS  C310  771   2.288   0.330   9.608  0.5665 -0.3709 -0.4170
    6SAPS  H10X  772   2.394   0.299   9.618 -0.3943 -4.6694 -1.4014
    6SAPS  H10Y  773   2.283   0.441   9.614  0.4949 -0.4201  0.5779
    6SAPS  C311  774   2.220   0.271   9.477  0.2064  0.6937  0.6131
    6SAPS  H11X  775   2.117   0.314   9.470 -0.8068 -1.6875 -0.2669
    6SAPS  H11Y  776   2.211   0.162   9.497  2.0249  0.3285 -0.4183
    6SAPS  C312  777   2.312   0.295   9.363 -0.3650 -0.4229  0.0648
    6SAPS  H12X  778   2.409   0.243   9.374 -0.2460 -0.3099 -0.3835
    6SAPS  H12Y  779   2.334   0.404   9.353  0.2221 -0.5294  0.1897
    6SAPS  C313  780   2.243   0.238   9.233 -0.1651  1.1088 -0.1380
    6SAPS  H13X  781   2.163   0.310   9.206 -1.4578 -0.3317 -0.2986
    6SAPS  H13Y  782   2.189   0.146   9.266  2.5198  0.0843  1.7169
    6SAPS  C314  783   2.336   0.206   9.117 -0.2552  0.2476 -0.2214
    6SAPS  H14X  784   2.281   0.168   9.029 -1.4874  0.9520  0.2253
    6SAPS  H14Y  785   2.417   0.141   9.157 -0.0761  0.0559 -0.8923
    6SAPS  C315  786   2.393   0.336   9.065  0.1063  0.5736 -0.2302
    6SAPS  H15X  787   2.450   0.385   9.147  1.2251  0.5819 -0.9882
    6SAPS  H15Y  788   2.313   0.407   9.037 -2.2298 -0.8716  2.2516
    6SAPS  C316  789   2.505   0.323   8.964  0.0881  0.5264  0.3555
    6SAPS  H16X  790   2.477   0.328   8.856 -0.6912  1.3833  0.5879
    6SAPS  H16Y  791   2.567   0.234   8.987  1.4523  1.0873 -0.9536
    6SAPS  C317  792   2.608   0.438   8.984  0.9843 -0.2368  0.7442
    6SAPS  H17X  793   2.653   0.412   9.082  2.8020 -0.4985 -0.1356
    6SAPS  H17Y  794   2.564   0.535   9.017  1.9784 -0.6276  3.4840
    6SAPS  C318  795   2.721   0.435   8.883 -0.2244  0.6309  0.2422
    6SAPS  H18X  796   2.792   0.517   8.904 -1.0946  1.5518 -0.3385
    6SAPS  H18Y  797   2.680   0.461   8.783 -2.3175 -1.6433  0.4013
    6SAPS  H18Z  798   2.761   0.332   8.869  0.5328  1.2322 -2.4579
    7SAPS     N  799   4.552   3.599  11.177 -0.4922 -0.1918  0.3858
    7SAPS   HN1  800   4.564   3.549  11.267  0.3280 -0.0962  0.3338
    7SAPS   HN2  801   4.602   3.690  11.175 -0.3941 -0.2405  0.6076
    7SAPS   HN3  802   4.454   3.632  11.165 -0.3382  1.3795  2.8025
    7SAPS   C12  803   4.593   3.504  11.065 -0.5390 -0.2708 -0.2786
    7SAPS  H12A  804   4.600   3.562  10.974  2.9681 -0.6714 -0.3918
    7SAPS   C13  805   4.732   3.437  11.093  0.0594 -0.7052 -0.9903
    7SAPS  O13A  806   4.817   3.484  11.174  0.3047  0.4106  0.3724
    7SAPS  O13B  807   4.763   3.350  11.009 -0.0379 -0.4449 -0.4446
    7SAPS   C11  808   4.487   3.393  11.049 -0.7202  0.3218  0.2647
    7SAPS  H11A  809   4.471   3.344  11.147 -2.0324 -2.2300 -1.0989
    7SAPS  H11B  810   4.518   3.321  10.970  2.5546  1.5329  0.2934
    7SAPS     P  811   4.259   3.375  10.914 -0.2038  0.3654 -0.2794
    7SAPS   O13  812   4.281   3.227  10.931  0.6363  0.6854  0.6951
    7SAPS   O14  813   4.128   3.432  10.941  0.0052 -0.1712 -0.0031
    7SAPS   O12  814   4.369   3.450  11.007 -0.4148  0.2387 -0.2815
    7SAPS   O11  815   4.297   3.409  10.770  0.3416 -0.2950  0.2490
    7SAPS    C1  816   4.369   3.526  10.719  1.0585 -0.3644  0.2257
    7SAPS    HA  817   4.316   3.622  10.733 -0.8403 -1.1217 -1.2732
    7SAPS    HB  818   4.463   3.545  10.775  2.3388 -1.6235 -1.4049
    7SAPS    C2  819   4.425   3.503  10.575  0.6049  0.0898 -0.0044
    7SAPS    HS  820   4.493   3.585  10.548  0.5359  0.4808  0.9554
    7SAPS   O21  821   4.311   3.512  10.487 -0.0175 -0.9636 -0.3079
    7SAPS   C21  822   4.258   3.630  10.476  0.0326  0.0006  0.4862
    7SAPS   O22  823   4.298   3.738  10.521  0.0398  0.2883  0.2910
    7SAPS   C22  824   4.129   3.620  10.382 -0.9342 -0.6784 -0.0865
    7SAPS   H2R  825   4.067   3.531  10.407 -0.6575 -0.3924  1.7365
    7SAPS   H2S  826   4.080   3.717  10.404 -1.2704 -0.5457 -1.3314
    7SAPS    C3  827   4.501   3.367  10.556  0.3037 -0.6374 -0.1815
    7SAPS    HX  828   4.429   3.297  10.603  1.1174  0.3966  2.8398
    7SAPS    HY  829   4.591   3.370  10.622  0.4897  1.9703 -0.4588
    7SAPS   O31  830   4.523   3.326  10.419  0.7037  0.0622  0.8410
    7SAPS   C31  831   4.616   3.395  10.349 -0.4580  0.1052 -0.0782
    7SAPS   O32  832   4.685   3.481  10.391 -0.5026 -0.4327 -0.8338
    7SAPS   C32  833   4.617   3.349  10.207 -0.1263 -0.2296  0.7176
    7SAPS   H2X  834   4.539   3.269  10.200 -0.9944  0.6683 -0.2327
    7SAPS   H2Y  835   4.715   3.301  10.189 -0.5283 -1.1766  0.9738
    7SAPS   C23  836   4.155   3.606  10.230 -0.3353  0.7253  0.2191
    7SAPS   H3R  837   4.201   3.702  10.199  1.2765  0.5248  1.8204
    7SAPS   H3S  838   4.056   3.605  10.179 -0.6324  0.5235  0.7940
    7SAPS   C24  839   4.246   3.489  10.189  0.0328 -0.2073 -0.0388
    7SAPS   H4R  840   4.346   3.489  10.237  0.8337 -0.3256 -1.6343
    7SAPS   H4S  841   4.262   3.496  10.080 -1.7265 -0.0903 -0.3213
    7SAPS   C25  842   4.202   3.347  10.234 -0.7852  0.1182 -0.4186
    7SAPS   H5R  843   4.203   3.333  10.344 -2.2251  1.9927 -0.1217
    7SAPS   C26  844   4.170   3.239  10.158  0.1010  0.4266 -0.2832
    7SAPS   H6R  845   4.165   3.145  10.215  0.5029  1.4660  1.5653
    7SAPS   C27  846   4.177   3.230  10.007 -0.0516  0.2626 -0.0912
    7SAPS   H7R  847   4.135   3.323   9.963 -0.6547  0.0746  0.0883
    7SAPS   H7S  848   4.106   3.150   9.979 -1.3666  0.3695  2.6009
    7SAPS   C28  849   4.320   3.206   9.952  1.0649 -0.3067 -0.4844
    7SAPS   H8R  850   4.404   3.236  10.017  0.6979 -0.2910 -0.0040
    7SAPS   C29  851   4.340   3.165   9.829 -0.2663  0.1954 -0.3910
    7SAPS   H9R  852   4.448   3.152   9.811 -0.0621 -0.0259  0.8896
    7SAPS  C210  853   4.241   3.139   9.714 -1.3314  0.4398 -0.0004
    7SAPS  H10R  854   4.281   3.187   9.622 -2.4694  2.0091  0.2831
    7SAPS  H10S  855   4.146   3.193   9.736 -0.9316  1.3141 -0.3772
    7SAPS  C211  856   4.203   2.998   9.701 -0.2668  0.1102 -0.5649
    7SAPS  H11R  857   4.161   2.955   9.793 -1.0168  1.3537 -0.3141
    7SAPS  C212  858   4.212   2.927   9.579  0.3082  0.5564  0.1132
    7SAPS  H12R  859   4.155   2.834   9.562  0.5306  0.4635 -0.1463
    7SAPS  C213  860   4.269   2.974   9.452  0.1461 -0.1239  0.5676
    7SAPS  H13R  861   4.225   3.074   9.433  0.1688 -0.1562  0.3401
    7SAPS  H13S  862   4.221   2.906   9.378  0.2435 -2.0813  2.2135
    7SAPS  C214  863   4.411   2.990   9.439 -0.0655  0.2552  0.2499
    7SAPS  H14R  864   4.466   2.968   9.532  0.6242 -2.1938 -0.6654
    7SAPS  C215  865   4.482   3.019   9.331 -0.2299 -0.4357 -0.4882
    7SAPS  H15R  866   4.584   3.054   9.352 -1.2438  1.2418  2.2684
    7SAPS  C216  867   4.422   3.038   9.191 -0.0954 -0.3103  0.7000
    7SAPS  H16R  868   4.380   3.140   9.180  0.0058 -0.3271  0.1326
    7SAPS  H16S  869   4.334   2.975   9.167 -0.3685  0.6847 -1.0959
    7SAPS  C217  870   4.531   3.024   9.079 -0.3243 -0.1996  0.1016
    7SAPS  H17R  871   4.596   2.935   9.090 -0.1093 -0.1433 -0.6357
    7SAPS  H17S  872   4.604   3.107   9.070  0.2665 -0.8011 -0.7824
    7SAPS  C218  873   4.461   2.999   8.947  0.4251  0.4224  0.4438
    7SAPS  H18R  874   4.384   2.919   8.954 -2.6865  3.2610  0.9679
    7SAPS  H18S  875   4.545   2.973   8.879  0.9040 -0.0580  1.1959
    7SAPS  C219  876   4.376   3.112   8.893 -0.1567 -0.5368 -0.5971
    7SAPS  H19R  877   4.451   3.187   8.859  0.9295  2.2095  6.2162
    7SAPS  H19S  878   4.319   3.154   8.979  0.0778 -2.1071  0.3718
    7SAPS  C220  879   4.286   3.062   8.786 -0.0855  0.5644 -0.2914
    7SAPS  H20R  880   4.347   3.005   8.713 -4.5559 -1.6583 -2.6948
    7SAPS  H20S  881   4.237   3.140   8.724 -1.6381 -1.6290 -1.9901
    7SAPS  H20T  882   4.209   2.993   8.828 -1.8423  1.8679 -1.2357
    7SAPS   C33  883   4.603   3.465  10.104  0.6084 -0.6531 -0.0924
    7SAPS   H3X  884   4.662   3.556  10.129 -0.7682  0.1419  0.4035
    7SAPS   H3Y  885   4.497   3.498  10.102  0.5459 -0.8779 -0.6066
    7SAPS   C34  886   4.651   3.426   9.962 -0.0551  0.4160  0.1700
    7SAPS   H4X  887   4.652   3.316   9.947  0.0054  0.4595 -0.1478
    7SAPS   H4Y  888   4.754   3.466   9.953 -0.5421  1.2596 -2.5470
    7SAPS   C35  889   4.570   3.493   9.854  0.0085 -0.1875  0.9589
    7SAPS   H5X  890   4.563   3.603   9.866 -1.4558  0.1191 -1.9260
    7SAPS   H5Y  891   4.464   3.461   9.841 -0.1792  0.6351  0.3875
    7SAPS   C36  892   4.635   3.459   9.719 -0.1527 -0.5312  0.6567
    7SAPS   H6X  893   4.625   3.348   9.715 -2.7030 -0.3306 -0.4636
    7SAPS   H6Y  894   4.739   3.498   9.707 -0.4613 -0.3647 -2.5216
    7SAPS   C37  895   4.550   3.516   9.596  0.0370  0.2738 -0.3387
    7SAPS   H7X  896   4.541   3.626   9.602  1.4462  0.3846  0.3817
    7SAPS   H7Y  897   4.454   3.460   9.598 -0.1111  0.3750 -2.4874
    7SAPS   C38  898   4.623   3.456   9.470  0.8187 -0.7688  0.3942
    7SAPS   H8X  899   4.623   3.346   9.483 -3.2559 -0.6466  3.2243
    7SAPS   H8Y  900   4.725   3.499   9.466  1.4600 -2.1089  1.4477
    7SAPS   C39  901   4.561   3.500   9.338  0.0442  0.1022 -0.4133
    7SAPS   H9X  902   4.577   3.609   9.323  1.7757  0.0973  1.0494
    7SAPS   H9Y  903   4.452   3.479   9.341  0.0277  0.2651  0.1143
    7SAPS  C310  904   4.631   3.422   9.223 -0.6270 -0.2417 -0.6550
    7SAPS  H10X  905   4.616   3.311   9.228 -0.4253 -0.2288  0.8791
    7SAPS  H10Y  906   4.739   3.444   9.225 -0.7477  0.3631  0.9829
    7SAPS  C311  907   4.594   3.476   9.083  0.8447 -0.9156 -0.0622
    7SAPS  H11X  908   4.624   3.583   9.073  1.2690 -0.9603  0.6322
    7SAPS  H11Y  909   4.483   3.488   9.079  0.9536  1.8355  1.6952
    7SAPS  C312  910   4.650   3.410   8.964  0.1634  0.2000  0.3197
    7SAPS  H12X  911   4.604   3.310   8.954 -2.7520  1.5358 -0.6930
    7SAPS  H12Y  912   4.760   3.412   8.982  0.1941  3.5176  0.5336
    7SAPS  C313  913   4.632   3.497   8.831 -0.4797  0.7945 -0.1211
    7SAPS  H13X  914   4.709   3.475   8.755 -1.7302  0.6471 -1.3957
    7SAPS  H13Y  915   4.652   3.603   8.858  1.8427  0.2606  0.4645
    7SAPS  C314  916   4.494   3.484   8.757 -0.1856 -0.6291 -0.2236
    7SAPS  H14X  917   4.420   3.511   8.836  0.5029  2.0310 -0.4037
    7SAPS  H14Y  918   4.475   3.378   8.731 -0.3491  0.1071 -3.5154
    7SAPS  C315  919   4.479   3.570   8.635  0.7168 -0.2072  0.5020
    7SAPS  H15X  920   4.530   3.665   8.662  0.0310  0.3308 -0.0641
    7SAPS  H15Y  921   4.376   3.603   8.612  0.5359 -1.5812 -0.8892
    7SAPS  C316  922   4.541   3.494   8.515 -0.2579  0.0389  0.6870
    7SAPS  H16X  923   4.627   3.430   8.543  2.5890  2.0322 -2.6778
    7SAPS  H16Y  924   4.577   3.561   8.434 -1.2951 -0.3124 -0.0890
    7SAPS  C317  925   4.441   3.403   8.452 -0.8442  0.0665  0.3156
    7SAPS  H17X  926   4.345   3.451   8.425 -1.4195 -0.6553  1.0217
    7SAPS  H17Y  927   4.405   3.329   8.528 -0.9809  0.8356  1.0122
    7SAPS  C318  928   4.488   3.321   8.330 -0.6838 -0.7779 -0.3050
    7SAPS  H18X  929   4.507   3.393   8.248 -0.5063 -2.0258 -1.4021
    7SAPS  H18Y  930   4.408   3.252   8.295 -2.2143  0.3626  0.8104
    7SAPS  H18Z  931   4.588   3.275   8.347 -1.4453 -1.5589  2.6423
    8SAPS     N  932   2.911   5.156  10.744 -0.3777 -0.1598 -0.1855
    8SAPS   HN1  933   2.939   5.253  10.769 -2.6106  0.1588  1.4275
    8SAPS   HN2  934   2.994   5.099  10.771  0.7639  2.5290  2.5351
    8SAPS   HN3  935   2.886   5.149  10.643  0.8849  0.9234 -0.6059
    8SAPS   C12  936   2.796   5.128  10.839 -0.9828 -0.1866 -0.1989
    8SAPS  H12A  937   2.765   5.025  10.830 -0.1814 -0.3914 -0.7138
    8SAPS   C13  938   2.839   5.123  10.993 -0.4251 -0.4668 -0.5260
    8SAPS  O13A  939   2.963   5.127  11.022 -0.2203  0.0873 -0.2531
    8SAPS  O13B  940   2.752   5.095  11.078 -0.1466 -0.6088  0.0229
    8SAPS   C11  941   2.677   5.226  10.804 -0.4865  0.1425 -0.0272
    8SAPS  H11A  942   2.712   5.330  10.823 -0.0172  0.1876 -1.0732
    8SAPS  H11B  943   2.596   5.195  10.873  0.3778  1.3907  1.6356
    8SAPS     P  944   2.562   5.090  10.606 -0.4221 -0.2587  0.1111
    8SAPS   O13  945   2.642   4.968  10.636 -0.4421 -0.4464 -0.5423
    8SAPS   O14  946   2.423   5.095  10.643  0.2033  0.4692 -0.5435
    8SAPS   O12  947   2.634   5.210  10.667 -0.4962 -0.2261  0.0464
    8SAPS   O11  948   2.561   5.122  10.450  0.3395 -0.8326  0.4565
    8SAPS    C1  949   2.532   5.263  10.412  0.1133  0.0965  0.3451
    8SAPS    HA  950   2.450   5.295  10.480  0.4371  0.7990  0.4214
    8SAPS    HB  951   2.616   5.336  10.405 -0.0163  0.4599  2.0790
    8SAPS    C2  952   2.464   5.266  10.266 -0.8879 -0.4825  0.3043
    8SAPS    HS  953   2.381   5.194  10.280 -1.3350 -0.1184 -0.4279
    8SAPS   O21  954   2.565   5.244  10.164  0.0567 -0.1559  0.0790
    8SAPS   C21  955   2.535   5.176  10.054  0.1486  0.0493 -0.5817
    8SAPS   O22  956   2.424   5.131  10.029 -0.4285 -0.4395 -0.3741
    8SAPS   C22  957   2.657   5.140   9.971 -0.0421 -0.4697 -0.4268
    8SAPS   H2R  958   2.691   5.227   9.911  2.6714 -2.3352 -1.7688
    8SAPS   H2S  959   2.740   5.100  10.033 -0.9279 -2.0695 -0.2094
    8SAPS    C3  960   2.401   5.407  10.244 -0.2583 -0.3463 -0.5376
    8SAPS    HX  961   2.484   5.481  10.245 -0.2206 -0.3931 -0.1887
    8SAPS    HY  962   2.334   5.436  10.327  0.3853  1.5432 -0.6207
    8SAPS   O31  963   2.348   5.423  10.111  0.2774 -0.2215 -0.3109
    8SAPS   C31  964   2.224   5.365  10.106 -0.9334 -0.3190  0.3618
    8SAPS   O32  965   2.172   5.307  10.198 -0.5789  0.0241 -0.3063
    8SAPS   C32  966   2.159   5.377   9.965  0.2698  0.2814 -0.0006
    8SAPS   H2X  967   2.111   5.477   9.960  0.7587  0.5248  0.1324
    8SAPS   H2Y  968   2.089   5.291   9.957 -1.2689  1.5836 -1.1064
    8SAPS   C23  969   2.619   5.044   9.864  0.7193 -0.0737  0.3015
    8SAPS   H3R  970   2.568   4.955   9.906 -0.1199  0.2562  0.0061
    8SAPS   H3S  971   2.713   5.009   9.817  0.4446  1.4835 -1.5835
    8SAPS   C24  972   2.549   5.102   9.740 -0.5694  0.0834  0.3014
    8SAPS   H4R  973   2.621   5.161   9.679 -1.2230 -0.1762 -0.7397
    8SAPS   H4S  974   2.463   5.168   9.766 -0.8135  0.8178 -2.1558
    8SAPS   C25  975   2.496   4.993   9.653  0.4130 -0.1211  0.1786
    8SAPS   H5R  976   2.423   4.927   9.703 -1.9662  0.3325 -2.4350
    8SAPS   C26  977   2.507   4.965   9.523 -0.1541 -0.5374 -0.3930
    8SAPS   H6R  978   2.460   4.873   9.485 -1.8938 -1.1362  2.8323
    8SAPS   C27  979   2.596   5.048   9.435 -0.1386 -0.1179 -0.1384
    8SAPS   H7R  980   2.635   4.976   9.359  0.3367  0.5791 -0.5622
    8SAPS   H7S  981   2.679   5.094   9.492 -0.3609 -1.8846  1.7328
    8SAPS   C28  982   2.514   5.167   9.386  0.1511 -0.4056  0.0814
    8SAPS   H8R  983   2.493   5.244   9.462 -0.3045  0.7690 -1.2049
    8SAPS   C29  984   2.470   5.201   9.261  0.4268  0.0712  0.1819
    8SAPS   H9R  985   2.396   5.282   9.252  0.3572 -0.2362 -3.2531
    8SAPS  C210  986   2.491   5.124   9.129  0.4383 -0.1329  0.0311
    8SAPS  H10R  987   2.392   5.083   9.101  0.4171 -2.1284  2.6418
    8SAPS  H10S  988   2.561   5.039   9.145  1.1784  0.3407 -0.6023
    8SAPS  C211  989   2.529   5.215   9.017 -0.5204 -0.3721  0.0167
    8SAPS  H11R  990   2.549   5.315   9.058  0.1415 -1.3444  2.2385
    8SAPS  C212  991   2.534   5.198   8.885  0.0224  0.1093 -0.5817
    8SAPS  H12R  992   2.551   5.286   8.821  0.4186  0.1659 -0.4015
    8SAPS  C213  993   2.491   5.073   8.820  0.6859  1.1431  0.3117
    8SAPS  H13R  994   2.515   4.992   8.892  1.2275 -0.6215 -1.7537
    8SAPS  H13S  995   2.550   5.056   8.728  5.0515  3.8033  2.3358
    8SAPS  C214  996   2.345   5.063   8.793  1.1371  0.0265 -0.8626
    8SAPS  H14R  997   2.285   5.015   8.872  0.4824  1.6152 -0.3551
    8SAPS  C215  998   2.276   5.120   8.692 -0.0560 -0.5425 -0.6918
    8SAPS  H15R  999   2.166   5.113   8.700  0.1051 -1.2104  1.7088
    8SAPS  C216 1000   2.337   5.203   8.591  0.2573 -0.1691  0.0933
    8SAPS  H16R 1001   2.447   5.188   8.597  0.3358  0.8045  3.6023
    8SAPS  H16S 1002   2.318   5.304   8.632 -3.5601 -1.4220  1.9346
    8SAPS  C217 1003   2.286   5.181   8.440 -0.2657  0.0415 -0.3201
    8SAPS  H17R 1004   2.175   5.183   8.439 -0.5096 -4.1725 -0.0369
    8SAPS  H17S 1005   2.317   5.078   8.415 -0.7261 -0.2856  0.4107
    8SAPS  C218 1006   2.336   5.282   8.339  0.7709  0.1031 -0.1052
    8SAPS  H18R 1007   2.446   5.289   8.334  1.0351 -1.4058  2.1307
    8SAPS  H18S 1008   2.287   5.380   8.357 -1.2871 -1.1156  1.3503
    8SAPS  C219 1009   2.295   5.234   8.196 -0.3063  0.1267  0.3890
    8SAPS  H19R 1010   2.347   5.142   8.162  0.1990  0.6580 -0.2777
    8SAPS  H19S 1011   2.322   5.311   8.121 -0.2807 -1.9647 -1.8912
    8SAPS  C220 1012   2.143   5.203   8.191 -0.1475 -0.6571 -0.5471
    8SAPS  H20R 1013   2.110   5.112   8.246 -1.7042  1.3303  2.0266
    8SAPS  H20S 1014   2.115   5.184   8.085 -0.2431 -0.7192 -0.5099
    8SAPS  H20T 1015   2.083   5.290   8.222  0.9799 -0.2923  0.7203
    8SAPS   C33 1016   2.256   5.349   9.846 -0.3348 -0.4108  0.6816
    8SAPS   H3X 1017   2.241   5.241   9.826 -1.6047 -0.2861  0.8852
    8SAPS   H3Y 1018   2.362   5.362   9.875 -0.2037 -1.1687  0.5698
    8SAPS   C34 1019   2.215   5.438   9.732 -0.8185 -0.0766  0.0385
    8SAPS   H4X 1020   2.235   5.544   9.760 -0.2888 -0.2140  0.1943
    8SAPS   H4Y 1021   2.106   5.424   9.718 -0.9562 -0.3376  1.2749
    8SAPS   C35 1022   2.277   5.384   9.599 -0.2068  0.2259  0.1785
    8SAPS   H5X 1023   2.278   5.273   9.604 -0.2603  0.1810 -0.6598
    8SAPS   H5Y 1024   2.380   5.425   9.589  0.2428 -0.8134  0.4324
    8SAPS   C36 1025   2.192   5.422   9.480  0.0252  0.1529 -0.5685
    8SAPS   H6X 1026   2.271   5.445   9.405  1.7021  0.4475  1.1984
    8SAPS   H6Y 1027   2.137   5.519   9.491  1.4196  0.8908  0.2457
    8SAPS   C37 1028   2.097   5.314   9.444 -0.0212 -0.1963 -0.0022
    8SAPS   H7X 1029   2.013   5.307   9.517  1.1973 -2.9814  1.2705
    8SAPS   H7Y 1030   2.146   5.215   9.433  1.0915  0.2851  0.5278
    8SAPS   C38 1031   2.033   5.348   9.309 -0.2667  0.4535 -0.7277
    8SAPS   H8X 1032   2.003   5.455   9.309 -1.6621  0.1113  1.0961
    8SAPS   H8Y 1033   1.945   5.280   9.306  1.1674 -1.5849  0.9003
    8SAPS   C39 1034   2.127   5.309   9.192  0.3694  0.0089  0.6432
    8SAPS   H9X 1035   2.169   5.207   9.202  1.7476  0.3387 -1.1214
    8SAPS   H9Y 1036   2.210   5.381   9.176 -0.4663  0.8152 -0.1672
    8SAPS  C310 1037   2.049   5.298   9.058 -0.3943 -0.1832  0.5504
    8SAPS  H10X 1038   1.976   5.214   9.058 -0.6131 -0.2089 -3.4070
    8SAPS  H10Y 1039   2.117   5.272   8.974 -1.4777  1.1879 -0.8238
    8SAPS  C311 1040   1.974   5.428   9.021  0.4377 -0.2267 -0.2080
    8SAPS  H11X 1041   2.032   5.523   9.026  0.5918 -0.3639  1.1216
    8SAPS  H11Y 1042   1.889   5.449   9.090 -0.5803 -0.0266 -1.4811
    8SAPS  C312 1043   1.923   5.418   8.878 -0.3031  0.4583  0.3210
    8SAPS  H12X 1044   1.842   5.341   8.877 -0.0781  0.1296  2.6223
    8SAPS  H12Y 1045   2.000   5.383   8.806  0.9681 -0.3288  2.0081
    8SAPS  C313 1046   1.876   5.550   8.822 -0.6035 -0.3811  0.2822
    8SAPS  H13X 1047   1.958   5.623   8.834 -0.8075  0.0493 -0.7996
    8SAPS  H13Y 1048   1.807   5.598   8.895  1.9462  1.7774  1.4414
    8SAPS  C314 1049   1.824   5.559   8.677  0.8032  1.2285 -0.4283
    8SAPS  H14X 1050   1.726   5.506   8.678  0.2299  2.2287  1.8093
    8SAPS  H14Y 1051   1.897   5.503   8.614  1.2489  0.9056  0.3675
    8SAPS  C315 1052   1.819   5.705   8.631 -0.4026  0.2308  0.5522
    8SAPS  H15X 1053   1.922   5.745   8.623 -0.7317  1.6528  2.6339
    8SAPS  H15Y 1054   1.784   5.773   8.712 -0.1428  1.3393 -0.2485
    8SAPS  C316 1055   1.744   5.736   8.501 -0.3110  0.5686 -0.6462
    8SAPS  H16X 1056   1.773   5.839   8.471 -0.7340  0.5621 -1.0933
    8SAPS  H16Y 1057   1.634   5.726   8.505 -0.4518  0.9988 -2.5692
    8SAPS  C317 1058   1.813   5.647   8.390  0.2867  0.1039 -0.1160
    8SAPS  H17X 1059   1.770   5.544   8.391 -0.1278  0.2323 -1.8818
    8SAPS  H17Y 1060   1.923   5.641   8.400  0.3171 -0.6556 -0.7794
    8SAPS  C318 1061   1.788   5.715   8.256 -0.1620 -0.4142 -0.2405
    8SAPS  H18X 1062   1.839   5.654   8.179 -1.4511 -0.9923 -0.6694
    8SAPS  H18Y 1063   1.823   5.819   8.245  2.3396 -1.2960 -1.2404
    8SAPS  H18Z 1064   1.680   5.713   8.228 -0.5037  2.1342  0.6017
    9SAPS     N 1065   3.076   2.906   6.158  0.3131 -0.9636 -0.3741
    9SAPS   HN1 1066   3.034   2.947   6.072 -1.2021  0.2236  0.8709
    9SAPS   HN2 1067   3.103   2.809   6.134  1.8676 -0.3111 -1.4119
    9SAPS   HN3 1068   3.009   2.896   6.237  0.7952  1.4927  0.4523
    9SAPS   C12 1069   3.203   2.980   6.188 -1.1227  0.7802  0.3380
    9SAPS  H12A 1070   3.274   2.927   6.250  1.7538  2.6078 -1.1388
    9SAPS   C13 1071   3.289   3.015   6.067 -0.6521  0.1890  0.1891
    9SAPS  O13A 1072   3.261   2.972   5.954  0.1474 -0.1143  0.0274
    9SAPS  O13B 1073   3.399   3.066   6.088 -0.4576  0.0711  0.1125
    9SAPS   C11 1074   3.164   3.121   6.250  0.1319  0.0033 -0.0410
    9SAPS  H11A 1075   3.260   3.175   6.265  0.8049 -1.0363 -0.4518
    9SAPS  H11B 1076   3.116   3.098   6.348  1.6216 -0.2456  0.6736
    9SAPS     P 1077   3.067   3.351   6.148 -0.1266 -0.0860 -0.3667
    9SAPS   O13 1078   3.207   3.406   6.146 -0.6951  0.4317 -0.3705
    9SAPS   O14 1079   2.977   3.385   6.035  0.2603 -0.0900 -0.4880
    9SAPS   O12 1080   3.079   3.188   6.153 -0.1914 -0.1388 -0.5471
    9SAPS   O11 1081   2.993   3.391   6.281  0.2087 -0.2205  0.0574
    9SAPS    C1 1082   3.008   3.521   6.344 -0.1666 -0.3062 -0.6020
    9SAPS    HA 1083   3.070   3.597   6.291 -2.1038  1.8282  0.0077
    9SAPS    HB 1084   2.912   3.575   6.355  1.3436  2.8400 -1.5991
    9SAPS    C2 1085   3.063   3.508   6.488 -0.0097 -0.8596 -0.5762
    9SAPS    HS 1086   3.173   3.512   6.476 -0.0029 -0.0899 -0.2742
    9SAPS   O21 1087   3.017   3.395   6.567 -0.1707 -0.1152 -0.5528
    9SAPS   C21 1088   3.105   3.299   6.585  0.4890 -0.1995 -0.2437
    9SAPS   O22 1089   3.224   3.309   6.562  0.4373 -0.2187 -0.2369
    9SAPS   C22 1090   3.037   3.175   6.637 -0.0795 -0.3386 -0.7560
    9SAPS   H2R 1091   2.933   3.165   6.600  0.5188 -0.4590 -2.4937
    9SAPS   H2S 1092   3.076   3.081   6.592 -0.5021 -1.6095  1.3701
    9SAPS    C3 1093   3.037   3.637   6.572 -0.2459 -0.6635 -0.0703
    9SAPS    HX 1094   2.928   3.653   6.586  0.1930  2.4451  0.5259
    9SAPS    HY 1095   3.062   3.725   6.508 -3.6903  1.4750  1.2479
    9SAPS   O31 1096   3.110   3.636   6.695  0.0208 -0.1056  0.1400
    9SAPS   C31 1097   3.066   3.715   6.789 -0.1746  1.0002 -1.0203
    9SAPS   O32 1098   2.975   3.788   6.773  0.2709 -0.4999 -0.3011
    9SAPS   C32 1099   3.158   3.698   6.912  0.8856  0.1346 -0.3241
    9SAPS   H2X 1100   3.176   3.800   6.954  1.8785 -0.9097  1.9517
    9SAPS   H2Y 1101   3.256   3.659   6.879  0.9447 -0.0520  0.0612
    9SAPS   C23 1102   3.043   3.163   6.793  0.1393 -0.5303  0.2913
    9SAPS   H3R 1103   2.948   3.117   6.826  0.8996 -1.8158  0.7755
    9SAPS   H3S 1104   3.033   3.264   6.837 -0.0396 -0.1011 -0.6929
    9SAPS   C24 1105   3.158   3.074   6.833 -0.0246 -0.2823  0.4965
    9SAPS   H4R 1106   3.162   2.991   6.760 -2.5720 -0.4159  0.4355
    9SAPS   H4S 1107   3.141   3.028   6.932 -1.2891 -1.1969 -0.1197
    9SAPS   C25 1108   3.283   3.160   6.843  0.4153 -0.3622 -1.1205
    9SAPS   H5R 1109   3.354   3.164   6.759  0.2561 -1.9761 -1.3640
    9SAPS   C26 1110   3.332   3.210   6.961 -0.2717 -0.2208  0.2422
    9SAPS   H6R 1111   3.428   3.263   6.955 -0.6330  0.3237 -0.9013
    9SAPS   C27 1112   3.265   3.208   7.096  0.1026 -0.2261  0.1628
    9SAPS   H7R 1113   3.160   3.239   7.079  0.5351  1.5312  0.4038
    9SAPS   H7S 1114   3.306   3.286   7.165 -1.0785  1.3960 -0.9009
    9SAPS   C28 1115   3.281   3.070   7.152 -0.7111 -0.2320  0.2086
    9SAPS   H8R 1116   3.305   2.994   7.076 -1.8174 -0.9893  0.5918
    9SAPS   C29 1117   3.270   3.041   7.286 -0.4986 -0.0269 -0.1907
    9SAPS   H9R 1118   3.293   2.942   7.326  1.5760 -0.2525 -1.7654
    9SAPS  C210 1119   3.227   3.142   7.393 -0.4095  0.3379  0.4112
    9SAPS  H10R 1120   3.151   3.094   7.459 -0.4827  2.3457  1.8848
    9SAPS  H10S 1121   3.174   3.224   7.340 -2.6641 -0.8216  0.7522
    9SAPS  C211 1122   3.340   3.210   7.470  0.4339  0.4582  0.4039
    9SAPS  H11R 1123   3.392   3.280   7.403 -2.7171  2.5421 -0.0321
    9SAPS  C212 1124   3.373   3.197   7.603  0.1885  0.4117 -0.1472
    9SAPS  H12R 1125   3.466   3.248   7.634  0.4859 -0.7721  0.9930
    9SAPS  C213 1126   3.293   3.121   7.704 -0.2641  0.3698  0.0791
    9SAPS  H13R 1127   3.351   3.037   7.747 -1.0176 -0.9619 -1.4251
    9SAPS  H13S 1128   3.208   3.078   7.647 -1.2846  1.4023  0.7791
    9SAPS  C214 1129   3.241   3.217   7.802 -0.4601 -0.2685 -0.6363
    9SAPS  H14R 1130   3.139   3.247   7.774 -0.5372 -0.6438 -0.7736
    9SAPS  C215 1131   3.298   3.268   7.907 -0.6340 -0.0128  0.0849
    9SAPS  H15R 1132   3.250   3.350   7.961  0.6865  0.9292 -0.1166
    9SAPS  C216 1133   3.440   3.234   7.962  0.0987  0.6114 -0.8883
    9SAPS  H16R 1134   3.499   3.316   8.008 -0.0429 -0.5430  1.4563
    9SAPS  H16S 1135   3.496   3.205   7.870  1.4631  2.6806 -0.7789
    9SAPS  C217 1136   3.447   3.111   8.054  0.1038  0.6575  0.0309
    9SAPS  H17R 1137   3.551   3.091   8.088 -0.0366 -2.1928 -0.9855
    9SAPS  H17S 1138   3.419   3.021   7.996 -0.7214  1.2755 -0.5510
    9SAPS  C218 1139   3.352   3.126   8.174  0.2880 -0.5233 -0.2299
    9SAPS  H18R 1140   3.254   3.154   8.131  0.7459  0.5146 -0.6468
    9SAPS  H18S 1141   3.388   3.217   8.228 -1.0985  1.0084 -1.7693
    9SAPS  C219 1142   3.341   3.005   8.258  0.2890 -0.1812  1.1372
    9SAPS  H19R 1143   3.441   2.969   8.292 -0.2894 -1.4258  1.5595
    9SAPS  H19S 1144   3.289   2.928   8.199 -0.8456  1.3676  0.0466
    9SAPS  C220 1145   3.253   3.035   8.387 -0.0163 -0.1210  0.5176
    9SAPS  H20R 1146   3.144   3.040   8.363 -0.2443  0.0386  1.5404
    9SAPS  H20S 1147   3.295   3.118   8.448  1.7912  0.6992 -1.6885
    9SAPS  H20T 1148   3.262   2.938   8.439  3.6150 -0.2851 -0.1657
    9SAPS   C33 1149   3.099   3.613   7.022  0.4899  0.3589 -0.5359
    9SAPS   H3X 1150   3.061   3.513   6.994  2.8075 -0.5368 -0.6993
    9SAPS   H3Y 1151   3.012   3.667   7.066  0.7244 -0.1255  0.5390
    9SAPS   C34 1152   3.198   3.597   7.137  0.3768 -0.0005 -0.2337
    9SAPS   H4X 1153   3.254   3.692   7.150 -1.3008  0.9550  0.3198
    9SAPS   H4Y 1154   3.272   3.516   7.121  1.3842  0.9297 -0.3861
    9SAPS   C35 1155   3.136   3.568   7.274 -0.3447 -0.0629 -0.8382
    9SAPS   H5X 1156   3.082   3.471   7.276 -0.4516  0.0042 -0.3421
    9SAPS   H5Y 1157   3.060   3.643   7.305  0.2681 -0.2662  1.2978
    9SAPS   C36 1158   3.242   3.570   7.379  0.0329 -0.1118 -0.7386
    9SAPS   H6X 1159   3.311   3.657   7.379 -0.7430  0.5358  0.2901
    9SAPS   H6Y 1160   3.302   3.478   7.365  0.2873  0.0876 -0.9571
    9SAPS   C37 1161   3.183   3.572   7.524  0.4526  0.2028 -0.6042
    9SAPS   H7X 1162   3.130   3.476   7.541  0.9665  0.0956  0.4388
    9SAPS   H7Y 1163   3.098   3.641   7.543 -0.2384 -0.7071 -0.3120
    9SAPS   C38 1164   3.297   3.594   7.624 -0.2771  0.4978 -0.3755
    9SAPS   H8X 1165   3.355   3.687   7.609  0.9628  0.5354  3.5385
    9SAPS   H8Y 1166   3.365   3.508   7.603 -0.0214  0.8678 -1.0998
    9SAPS   C39 1167   3.261   3.588   7.774 -0.3211 -0.0144  0.4926
    9SAPS   H9X 1168   3.196   3.500   7.796  0.5157 -1.4828 -2.4181
    9SAPS   H9Y 1169   3.198   3.673   7.807  0.6936  0.4094  1.4193
    9SAPS  C310 1170   3.401   3.579   7.837 -0.1645 -0.2769  0.2451
    9SAPS  H10X 1171   3.469   3.652   7.788  0.3960  0.1009  1.5540
    9SAPS  H10Y 1172   3.459   3.486   7.824 -0.8653 -0.4569 -2.1490
    9SAPS  C311 1173   3.384   3.630   7.982 -0.6400  0.7241  0.5832
    9SAPS  H11X 1174   3.328   3.553   8.040  0.1194  1.2833  2.1212
    9SAPS  H11Y 1175   3.313   3.713   8.001 -4.3666 -2.0310 -0.0886
    9SAPS  C312 1176   3.522   3.635   8.043 -0.4820 -0.3869 -0.5074
    9SAPS  H12X 1177   3.590   3.709   7.997 -0.0288 -0.4241  0.0919
    9SAPS  H12Y 1178   3.574   3.538   8.025  1.5707  0.2811  1.4551
    9SAPS  C313 1179   3.534   3.676   8.195 -0.2676 -1.0160  0.0190
    9SAPS  H13X 1180   3.477   3.767   8.224 -0.2244 -0.9449 -0.1217
    9SAPS  H13Y 1181   3.638   3.698   8.227 -0.4398 -1.2306  0.7395
    9SAPS  C314 1182   3.476   3.570   8.293  0.0310 -0.4514 -0.7328
    9SAPS  H14X 1183   3.527   3.473   8.280 -0.0606 -0.9878  2.1715
    9SAPS  H14Y 1184   3.367   3.565   8.274 -0.4701  1.4652  1.2542
    9SAPS  C315 1185   3.501   3.608   8.444 -0.2634 -0.0932 -0.1710
    9SAPS  H15X 1186   3.476   3.716   8.446 -2.3204 -0.5303  0.9546
    9SAPS  H15Y 1187   3.608   3.591   8.469 -0.1394 -0.9382 -1.1992
    9SAPS  C316 1188   3.416   3.531   8.547  0.5356  0.1433 -0.7534
    9SAPS  H16X 1189   3.309   3.563   8.545  1.1825  2.5627 -0.4352
    9SAPS  H16Y 1190   3.442   3.559   8.652  1.1210  0.7525 -1.0524
    9SAPS  C317 1191   3.403   3.378   8.540  0.4221 -0.3226  0.2680
    9SAPS  H17X 1192   3.367   3.360   8.437 -0.3145  2.7628 -0.0921
    9SAPS  H17Y 1193   3.336   3.331   8.615  0.7069  0.9371  1.3447
    9SAPS  C318 1194   3.544   3.305   8.558 -0.3084  0.7151 -0.3576
    9SAPS  H18X 1195   3.573   3.321   8.664 -1.7982  0.7617  0.0653
    9SAPS  H18Y 1196   3.620   3.347   8.489 -0.9835 -0.9848 -2.2336
    9SAPS  H18Z 1197   3.533   3.201   8.521  1.4240  0.9589 -1.6741
   10SAPS     N 1198   5.404   1.282   6.085  0.3095  0.1415  0.2485
   10SAPS   HN1 1199   5.364   1.249   6.175  1.1140  0.0570  0.5842
   10SAPS   HN2 1200   5.347   1.226   6.018 -1.3458 -0.2931  1.9362
   10SAPS   HN3 1201   5.503   1.251   6.091 -0.4873 -2.5402  1.0384
   10SAPS   C12 1202   5.378   1.430   6.071 -0.8542  0.1959 -0.6365
   10SAPS  H12A 1203   5.401   1.470   6.168  1.6801  0.7607 -1.3970
   10SAPS   C13 1204   5.471   1.501   5.973 -0.1181 -0.7244 -0.0418
   10SAPS  O13A 1205   5.564   1.442   5.916 -0.0918  0.0399  0.6290
   10SAPS  O13B 1206   5.456   1.629   5.964  0.1351  0.1034  0.2017
   10SAPS   C11 1207   5.226   1.456   6.038 -0.4778 -0.6871  1.0120
   10SAPS  H11A 1208   5.209   1.401   5.944  3.2933 -0.7384  0.2314
   10SAPS  H11B 1209   5.205   1.564   6.018  0.1687 -1.0896 -2.4082
   10SAPS     P 1210   5.032   1.493   6.211  0.5575  0.0692  0.0482
   10SAPS   O13 1211   5.099   1.613   6.268  0.1998  0.3870 -0.2071
   10SAPS   O14 1212   4.914   1.518   6.120 -0.0642 -0.5341  0.5200
   10SAPS   O12 1213   5.138   1.401   6.141 -0.1436  0.5781  0.5976
   10SAPS   O11 1214   4.971   1.401   6.330  0.4111  0.2575 -0.0759
   10SAPS    C1 1215   4.834   1.430   6.372  0.7268  0.2157  0.1638
   10SAPS    HA 1216   4.813   1.539   6.377  0.3566  0.1029  1.4547
   10SAPS    HB 1217   4.755   1.377   6.315  1.5192  0.1776 -0.9259
   10SAPS    C2 1218   4.813   1.386   6.520  0.3360  0.4807  0.3667
   10SAPS    HS 1219   4.894   1.437   6.575  1.0021 -0.4100  0.2333
   10SAPS   O21 1220   4.825   1.240   6.516 -0.0491  0.9353  0.1547
   10SAPS   C21 1221   4.851   1.189   6.636 -0.1358  0.6586  0.1774
   10SAPS   O22 1222   4.880   1.255   6.733 -0.0153  0.3071 -0.5371
   10SAPS   C22 1223   4.849   1.036   6.627  0.1997 -0.4351  0.0439
   10SAPS   H2R 1224   4.745   1.001   6.610 -0.0957  1.3331 -2.1481
   10SAPS   H2S 1225   4.901   0.999   6.536 -0.5856  2.5576 -1.7361
   10SAPS    C3 1226   4.666   1.434   6.568 -0.0037  0.2231 -0.3187
   10SAPS    HX 1227   4.582   1.379   6.520  0.3098 -2.1655  1.6475
   10SAPS    HY 1228   4.643   1.538   6.539 -2.0591  0.3850  1.6283
   10SAPS   O31 1229   4.642   1.414   6.711  0.1388 -0.4755  0.4342
   10SAPS   C31 1230   4.698   1.495   6.796  0.0724  0.2211  0.4198
   10SAPS   O32 1231   4.767   1.590   6.765  0.1684  0.1343 -0.1752
   10SAPS   C32 1232   4.670   1.457   6.949  0.1062 -0.0345  0.1929
   10SAPS   H2X 1233   4.686   1.537   7.024  1.4934  0.1342 -0.2393
   10SAPS   H2Y 1234   4.761   1.393   6.950 -0.5722 -1.0104  0.5553
   10SAPS   C23 1235   4.900   0.976   6.762 -0.5059  0.2013 -0.2619
   10SAPS   H3R 1236   4.860   1.028   6.852  0.1268  2.6087 -1.3110
   10SAPS   H3S 1237   5.010   0.993   6.768 -0.6286  0.4990  2.2985
   10SAPS   C24 1238   4.882   0.822   6.770 -0.3933  0.1228  0.1197
   10SAPS   H4R 1239   4.917   0.777   6.675  2.4125 -0.4732  1.3354
   10SAPS   H4S 1240   4.772   0.810   6.780 -0.6270  0.5215 -1.6680
   10SAPS   C25 1241   4.958   0.745   6.879 -0.2390 -0.2646  0.5792
   10SAPS   H5R 1242   5.042   0.679   6.849  0.8281  0.5400  1.6899
   10SAPS   C26 1243   4.918   0.728   7.000 -0.6636 -0.5796 -1.2724
   10SAPS   H6R 1244   4.990   0.681   7.068 -0.4574  0.4386 -0.7722
   10SAPS   C27 1245   4.805   0.796   7.063  0.1302 -1.0016 -1.0232
   10SAPS   H7R 1246   4.738   0.723   7.113 -0.2644 -1.2208 -1.8615
   10SAPS   H7S 1247   4.746   0.850   6.986  0.2049  0.4251 -0.1320
   10SAPS   C28 1248   4.856   0.910   7.148  0.4680 -0.9647  0.0601
   10SAPS   H8R 1249   4.893   0.999   7.095 -1.8657  0.2589  0.3102
   10SAPS   C29 1250   4.872   0.913   7.282  0.3156  0.2544 -0.3128
   10SAPS   H9R 1251   4.915   1.003   7.329 -2.0630  1.9921 -1.2315
   10SAPS  C210 1252   4.823   0.807   7.377  0.1999  0.4323 -0.0403
   10SAPS  H10R 1253   4.777   0.731   7.309 -0.4221  0.8371 -0.0748
   10SAPS  H10S 1254   4.734   0.843   7.432 -0.2761  0.5276 -0.8540
   10SAPS  C211 1255   4.930   0.746   7.463 -0.1576  0.1703 -0.2110
   10SAPS  H11R 1256   5.007   0.686   7.412  0.2541 -0.7378  1.4101
   10SAPS  C212 1257   4.926   0.735   7.600  0.9176 -0.0854  0.1320
   10SAPS  H12R 1258   5.013   0.692   7.652  1.5146  2.5417  1.4878
   10SAPS  C213 1259   4.821   0.792   7.693  0.0593 -0.2165 -0.6090
   10SAPS  H13R 1260   4.718   0.789   7.651  1.4426  0.7217 -4.4773
   10SAPS  H13S 1261   4.845   0.899   7.715  0.5147 -0.2118 -1.1197
   10SAPS  C214 1262   4.814   0.712   7.822 -1.1117 -0.0872  0.6188
   10SAPS  H14R 1263   4.731   0.639   7.825 -0.9660 -0.3080 -0.3452
   10SAPS  C215 1264   4.904   0.716   7.923  0.4282  0.5580  0.3245
   10SAPS  H15R 1265   4.867   0.670   8.015  0.1755 -0.8755 -0.4601
   10SAPS  C216 1266   5.021   0.814   7.925  0.5691 -0.5810 -0.4736
   10SAPS  H16R 1267   4.991   0.902   7.863 -1.3358 -0.2486  0.8480
   10SAPS  H16S 1268   5.113   0.773   7.877  1.0974  1.1522 -1.0274
   10SAPS  C217 1269   5.066   0.875   8.056 -0.7918 -0.3524  0.3094
   10SAPS  H17R 1270   4.972   0.901   8.110 -1.6010 -0.7702 -0.8333
   10SAPS  H17S 1271   5.110   0.972   8.026  0.1186 -1.3371 -1.7406
   10SAPS  C218 1272   5.159   0.790   8.135 -0.0796 -0.5826 -0.4685
   10SAPS  H18R 1273   5.233   0.727   8.082 -0.0384  0.2323 -1.4012
   10SAPS  H18S 1274   5.105   0.716   8.198  0.0213  1.3327  2.0724
   10SAPS  C219 1275   5.249   0.870   8.227 -0.2640  0.2476 -0.5315
   10SAPS  H19R 1276   5.171   0.924   8.284 -1.4224  0.8748 -2.6019
   10SAPS  H19S 1277   5.306   0.951   8.177 -0.9002  1.6633  0.9955
   10SAPS  C220 1278   5.328   0.780   8.323  0.3208  0.5818 -0.5373
   10SAPS  H20R 1279   5.370   0.851   8.398 -0.1397 -0.1175  0.4088
   10SAPS  H20S 1280   5.416   0.730   8.277  2.3830  3.2892  0.1878
   10SAPS  H20T 1281   5.271   0.705   8.382 -1.2259  2.9802  1.2056
   10SAPS   C33 1282   4.554   1.353   6.976  0.5031 -0.1897 -0.1520
   10SAPS   H3X 1283   4.529   1.297   6.883 -2.4084 -2.0133  1.5536
   10SAPS   H3Y 1284   4.467   1.418   7.001 -0.8488 -1.8290 -0.3453
   10SAPS   C34 1285   4.583   1.241   7.088  1.0218 -0.0052 -0.1052
   10SAPS   H4X 1286   4.686   1.199   7.080  1.0485  0.0751 -0.1874
   10SAPS   H4Y 1287   4.505   1.162   7.083  0.3345  0.6217  0.5061
   10SAPS   C35 1288   4.558   1.302   7.225 -0.4722  0.5540  0.0330
   10SAPS   H5X 1289   4.455   1.344   7.228 -1.8650 -2.5671 -0.0085
   10SAPS   H5Y 1290   4.633   1.383   7.222 -1.2168  1.3115  1.1004
   10SAPS   C36 1291   4.586   1.208   7.341 -0.0586 -0.2382  0.0691
   10SAPS   H6X 1292   4.688   1.171   7.317  0.5723 -0.4172  2.7214
   10SAPS   H6Y 1293   4.512   1.125   7.342 -0.7004  0.3240  0.1955
   10SAPS   C37 1294   4.581   1.268   7.484  0.3094  0.2178 -0.0822
   10SAPS   H7X 1295   4.479   1.300   7.514  0.0108 -0.7797  0.0077
   10SAPS   H7Y 1296   4.650   1.355   7.484  0.3302  0.2030 -0.5665
   10SAPS   C38 1297   4.625   1.166   7.599  0.0135 -0.3971  0.3202
   10SAPS   H8X 1298   4.724   1.128   7.565 -0.0561 -0.1445 -0.1762
   10SAPS   H8Y 1299   4.554   1.081   7.606  1.2788 -1.7172 -1.6401
   10SAPS   C39 1300   4.656   1.236   7.732  0.6540  0.4592 -0.1172
   10SAPS   H9X 1301   4.563   1.280   7.773  0.6632  1.0337 -0.6895
   10SAPS   H9Y 1302   4.732   1.317   7.731  0.3357  0.7589 -0.3725
   10SAPS  C310 1303   4.709   1.130   7.836  0.2607 -0.5291 -0.4189
   10SAPS  H10X 1304   4.790   1.074   7.784  0.3221 -0.2977 -0.5758
   10SAPS  H10Y 1305   4.629   1.054   7.846 -1.2600  0.7051 -2.2641
   10SAPS  C311 1306   4.763   1.185   7.966  0.4989  0.4586  0.1912
   10SAPS  H11X 1307   4.831   1.270   7.947  0.6134  0.2350 -0.4134
   10SAPS  H11Y 1308   4.818   1.100   8.011 -0.3964 -0.5337 -0.5570
   10SAPS  C312 1309   4.653   1.234   8.060 -0.2620 -0.5496 -0.6076
   10SAPS  H12X 1310   4.584   1.147   8.063  0.6380 -1.3497 -1.8707
   10SAPS  H12Y 1311   4.607   1.325   8.017 -1.4912 -1.6636 -1.7298
   10SAPS  C313 1312   4.718   1.249   8.199 -0.1419  0.1914 -0.4995
   10SAPS  H13X 1313   4.794   1.326   8.174  0.4996 -0.3824 -0.3592
   10SAPS  H13Y 1314   4.783   1.164   8.230  0.7924  0.8099 -0.7289
   10SAPS  C314 1315   4.619   1.296   8.302 -0.2526 -0.4091  0.2275
   10SAPS  H14X 1316   4.588   1.395   8.263 -0.7373 -1.2571 -1.6606
   10SAPS  H14Y 1317   4.675   1.301   8.398  1.6033 -0.0418 -0.8170
   10SAPS  C315 1318   4.494   1.215   8.320  0.5179  0.4322 -0.5330
   10SAPS  H15X 1319   4.520   1.107   8.317 -2.0488 -0.2508 -0.6695
   10SAPS  H15Y 1320   4.412   1.218   8.245 -1.4469  0.1609  1.4761
   10SAPS  C316 1321   4.426   1.242   8.461 -0.1708  0.1988 -0.1538
   10SAPS  H16X 1322   4.498   1.251   8.545 -0.8615  0.8974  0.3696
   10SAPS  H16Y 1323   4.358   1.159   8.488  0.1021  0.1116  0.2709
   10SAPS  C317 1324   4.332   1.368   8.453 -0.0812  0.1636  0.2446
   10SAPS  H17X 1325   4.244   1.340   8.392 -0.8092  1.1676  0.8171
   10SAPS  H17Y 1326   4.383   1.455   8.407  1.7917 -1.9489 -1.9659
   10SAPS  C318 1327   4.281   1.401   8.600 -0.2479 -0.0302  0.2210
   10SAPS  H18X 1328   4.310   1.505   8.627 -0.8709  0.5183 -1.1484
   10SAPS  H18Y 1329   4.318   1.329   8.676  0.3858 -1.1303 -1.0884
   10SAPS  H18Z 1330   4.170   1.394   8.597 -0.1937 -0.6646 -0.8657
   11SAPS     N 1331   6.338   4.966   5.964  0.4574 -1.2012  0.6150
   11SAPS   HN1 1332   6.267   5.009   6.027  0.4889 -0.0558 -0.1012
   11SAPS   HN2 1333   6.293   4.891   5.908 -1.0927 -0.0024  0.1781
   11SAPS   HN3 1334   6.415   4.929   6.024 -0.9279 -3.3819  1.1533
   11SAPS   C12 1335   6.388   5.075   5.873  0.0912  0.1368  0.0773
   11SAPS  H12A 1336   6.469   5.020   5.827  0.5761 -0.3051  1.4009
   11SAPS   C13 1337   6.289   5.121   5.769 -0.0509 -0.3525  0.0448
   11SAPS  O13A 1338   6.202   5.040   5.729 -0.2967 -0.0916 -0.6843
   11SAPS  O13B 1339   6.296   5.233   5.714 -0.2978 -0.2369 -0.2553
   11SAPS   C11 1340   6.454   5.197   5.945 -0.5032  0.0110 -0.4390
   11SAPS  H11A 1341   6.372   5.242   6.006 -0.2637 -0.9666  0.6235
   11SAPS  H11B 1342   6.476   5.277   5.870 -1.2361  0.4998 -0.1511
   11SAPS     P 1343   6.575   5.209   6.173  0.0475 -0.0028  0.1467
   11SAPS   O13 1344   6.709   5.168   6.232  0.2612 -0.4712  0.8959
   11SAPS   O14 1345   6.544   5.359   6.177 -0.0625  0.2408  0.2161
   11SAPS   O12 1346   6.571   5.161   6.017  0.2045  0.4215 -0.0974
   11SAPS   O11 1347   6.462   5.127   6.231 -0.5085  0.2833  0.2183
   11SAPS    C1 1348   6.471   5.052   6.349  0.5772 -0.9107  0.0759
   11SAPS    HA 1349   6.439   4.948   6.328  1.7959 -1.7569  2.1040
   11SAPS    HB 1350   6.577   5.027   6.372  0.6302 -2.6901 -1.8582
   11SAPS    C2 1351   6.381   5.109   6.455  0.1203  0.2322 -0.5028
   11SAPS    HS 1352   6.427   5.208   6.476  0.5955  0.0505 -0.6851
   11SAPS   O21 1353   6.383   5.021   6.566 -0.5030 -0.5198 -0.0677
   11SAPS   C21 1354   6.460   5.053   6.659 -0.6455  0.1350 -0.6512
   11SAPS   O22 1355   6.531   5.150   6.681  0.1432  0.8861 -0.3337
   11SAPS   C22 1356   6.450   4.939   6.767 -0.7612  0.3857  0.6031
   11SAPS   H2R 1357   6.342   4.947   6.789 -1.4187  2.9076 -2.6705
   11SAPS   H2S 1358   6.491   4.843   6.729 -1.6866  0.4454 -0.6075
   11SAPS    C3 1359   6.236   5.135   6.404 -0.6598 -0.9616 -0.4623
   11SAPS    HX 1360   6.194   5.037   6.374  2.4925 -2.8641  0.8659
   11SAPS    HY 1361   6.251   5.209   6.322 -0.3935 -1.1439 -0.5774
   11SAPS   O31 1362   6.150   5.191   6.510  0.2985  0.0478 -0.1528
   11SAPS   C31 1363   6.158   5.322   6.526 -0.4361  0.3487 -0.2807
   11SAPS   O32 1364   6.232   5.392   6.463 -0.7469 -0.8249 -0.3330
   11SAPS   C32 1365   6.087   5.362   6.657 -0.2079 -0.4499  0.0146
   11SAPS   H2X 1366   6.139   5.346   6.754 -0.7245  1.4773  0.6604
   11SAPS   H2Y 1367   5.997   5.298   6.655 -0.4635 -0.0781 -0.6196
   11SAPS   C23 1368   6.511   4.978   6.897  0.2943  0.6385 -0.2046
   11SAPS   H3R 1369   6.451   5.059   6.942 -1.2418  0.0082 -1.0168
   11SAPS   H3S 1370   6.614   5.019   6.889  0.0238  1.8542  1.9151
   11SAPS   C24 1371   6.521   4.869   7.007 -0.1320  0.2764 -0.7802
   11SAPS   H4R 1372   6.583   4.908   7.091 -0.5745 -2.5457  0.9958
   11SAPS   H4S 1373   6.579   4.783   6.969  0.7765  1.3193 -1.8465
   11SAPS   C25 1374   6.389   4.815   7.071 -0.0584  0.6896 -0.0517
   11SAPS   H5R 1375   6.322   4.767   6.998  0.3349 -0.6911  0.4662
   11SAPS   C26 1376   6.357   4.802   7.201  0.7473 -0.9288  0.4971
   11SAPS   H6R 1377   6.258   4.758   7.221  0.7829 -1.2644 -0.0286
   11SAPS   C27 1378   6.438   4.844   7.318 -0.5771 -0.0102  0.2545
   11SAPS   H7R 1379   6.543   4.840   7.282  0.0752  2.3504  1.6970
   11SAPS   H7S 1380   6.413   4.771   7.398 -0.1443  0.5718  0.9243
   11SAPS   C28 1381   6.423   4.989   7.352 -0.8380  0.5797  0.3360
   11SAPS   H8R 1382   6.447   5.050   7.263  0.0016 -0.4640 -0.1762
   11SAPS   C29 1383   6.377   5.048   7.462  0.5526 -0.0817  0.2274
   11SAPS   H9R 1384   6.368   5.157   7.458  2.2523  0.1716  1.8302
   11SAPS  C210 1385   6.325   4.973   7.589  0.0904 -0.3456 -0.0387
   11SAPS  H10R 1386   6.396   4.973   7.674 -0.7976  0.6851  0.7462
   11SAPS  H10S 1387   6.304   4.867   7.565  0.5634 -0.5269  0.3239
   11SAPS  C211 1388   6.198   5.038   7.625 -0.0547 -0.0465  0.9520
   11SAPS  H11R 1389   6.129   5.057   7.542  0.2808 -0.1840  0.6401
   11SAPS  C212 1390   6.158   5.076   7.750 -0.3198 -0.5080  0.1568
   11SAPS  H12R 1391   6.055   5.111   7.761 -0.0688  1.6069 -2.9991
   11SAPS  C213 1392   6.239   5.071   7.878  0.5335 -0.5653  0.0278
   11SAPS  H13R 1393   6.320   5.146   7.869  1.8588 -1.5398  2.8084
   11SAPS  H13S 1394   6.289   4.973   7.890  1.6338 -0.1952 -1.2499
   11SAPS  C214 1395   6.167   5.104   8.009  0.1958  0.2956 -0.1188
   11SAPS  H14R 1396   6.062   5.070   8.008  0.6646 -1.2656 -1.4075
   11SAPS  C215 1397   6.226   5.151   8.124  0.1178  0.6720 -0.2279
   11SAPS  H15R 1398   6.171   5.178   8.216  0.7214  0.3862  0.2256
   11SAPS  C216 1399   6.373   5.166   8.136 -0.2290 -0.5812  0.1315
   11SAPS  H16R 1400   6.400   5.261   8.186  1.2222 -1.5210  1.2511
   11SAPS  H16S 1401   6.423   5.163   8.037 -1.4037  0.7964 -0.5264
   11SAPS  C217 1402   6.437   5.061   8.222  0.2248  0.6757 -0.0167
   11SAPS  H17R 1403   6.405   5.066   8.328  0.9059 -2.4149  0.4204
   11SAPS  H17S 1404   6.547   5.079   8.226  0.6583 -1.5960 -0.2762
   11SAPS  C218 1405   6.413   4.909   8.172 -0.2962 -0.9368 -0.3490
   11SAPS  H18R 1406   6.460   4.904   8.072 -1.2876  2.1882 -1.0957
   11SAPS  H18S 1407   6.304   4.897   8.154 -0.6348  0.4954  0.5139
   11SAPS  C219 1408   6.477   4.791   8.241  0.2163  0.1903  0.0528
   11SAPS  H19R 1409   6.459   4.695   8.189  4.4367 -1.6202  1.5047
   11SAPS  H19S 1410   6.429   4.789   8.342 -0.7299  0.5138 -0.3760
   11SAPS  C220 1411   6.628   4.802   8.260 -0.3556  0.0735  0.1028
   11SAPS  H20R 1412   6.655   4.871   8.342 -1.3944  0.3124  0.2579
   11SAPS  H20S 1413   6.675   4.831   8.164  1.9645 -0.6083  0.9612
   11SAPS  H20T 1414   6.673   4.703   8.283  2.5377  1.3955  0.4988
   11SAPS   C33 1415   6.042   5.510   6.654  0.0494  0.5845  0.0688
   11SAPS   H3X 1416   5.981   5.531   6.563 -2.0641 -2.5462  0.5850
   11SAPS   H3Y 1417   6.125   5.581   6.671 -0.8668  2.0832 -1.3693
   11SAPS   C34 1418   5.943   5.548   6.763 -0.3466 -0.1441 -0.4025
   11SAPS   H4X 1419   5.969   5.505   6.862  0.9197 -1.8214 -1.3931
   11SAPS   H4Y 1420   5.848   5.500   6.729 -1.0045  0.7127  0.1884
   11SAPS   C35 1421   5.909   5.695   6.780  0.2387 -0.7279 -0.3223
   11SAPS   H5X 1422   5.832   5.731   6.709  0.5538  2.4603  0.8158
   11SAPS   H5Y 1423   6.006   5.746   6.760  0.7981 -1.9614 -0.8415
   11SAPS   C36 1424   5.849   5.726   6.918  0.1348 -0.3604  0.7668
   11SAPS   H6X 1425   5.763   5.656   6.925 -0.6326  0.1809 -1.9027
   11SAPS   H6Y 1426   5.818   5.832   6.923  0.7593 -0.1750  0.7184
   11SAPS   C37 1427   5.946   5.715   7.041 -0.2908 -0.2071  0.3154
   11SAPS   H7X 1428   6.027   5.789   7.027 -1.4045  0.5404 -2.9612
   11SAPS   H7Y 1429   5.997   5.616   7.044 -0.8565 -0.4856  1.6684
   11SAPS   C38 1430   5.879   5.755   7.168 -0.2197  0.1190 -0.3584
   11SAPS   H8X 1431   5.786   5.696   7.185  0.5114 -0.6706  1.1158
   11SAPS   H8Y 1432   5.848   5.862   7.162 -0.7091 -0.0724 -1.7752
   11SAPS   C39 1433   5.965   5.736   7.295 -0.3168 -0.0248  0.4008
   11SAPS   H9X 1434   6.069   5.753   7.260 -0.9583  0.2259 -1.5170
   11SAPS   H9Y 1435   5.971   5.628   7.322 -0.6952 -0.1989 -0.1699
   11SAPS  C310 1436   5.929   5.818   7.418 -0.4162  0.9580 -0.0773
   11SAPS  H10X 1437   5.922   5.925   7.389 -0.4025  1.6645  2.3162
   11SAPS  H10Y 1438   6.013   5.816   7.490  0.9575  1.1459 -1.6344
   11SAPS  C311 1439   5.800   5.767   7.485  0.0874  0.0323  0.0947
   11SAPS  H11X 1440   5.795   5.658   7.464 -1.3426  0.3678 -1.5866
   11SAPS  H11Y 1441   5.709   5.812   7.442 -1.1210  0.0164  2.4814
   11SAPS  C312 1442   5.809   5.803   7.630 -0.6174 -0.5297  0.1902
   11SAPS  H12X 1443   5.826   5.913   7.635 -0.5057 -0.6102  2.6675
   11SAPS  H12Y 1444   5.893   5.751   7.680 -1.1499 -1.0196  0.6030
   11SAPS  C313 1445   5.694   5.751   7.720  0.2691 -0.6731 -0.0674
   11SAPS  H13X 1446   5.661   5.647   7.697 -1.2106 -0.3688  0.5742
   11SAPS  H13Y 1447   5.601   5.808   7.697 -0.0419 -1.1537 -0.0068
   11SAPS  C314 1448   5.728   5.802   7.861 -0.0822 -0.0536  0.7467
   11SAPS  H14X 1449   5.778   5.902   7.862 -0.0483  0.0321 -1.6781
   11SAPS  H14Y 1450   5.803   5.739   7.913  1.7303  0.7536 -0.7362
   11SAPS  C315 1451   5.603   5.805   7.948 -0.3211  0.5272 -0.6235
   11SAPS  H15X 1452   5.522   5.867   7.904 -0.2871  0.6679 -0.4868
   11SAPS  H15Y 1453   5.633   5.869   8.033 -1.0488 -0.0231  0.0630
   11SAPS  C316 1454   5.541   5.675   8.009 -0.7179 -0.1201 -0.5704
   11SAPS  H16X 1455   5.575   5.578   7.965 -0.2925 -0.4381  0.4142
   11SAPS  H16Y 1456   5.432   5.688   7.993 -0.5698  0.0178 -1.5302
   11SAPS  C317 1457   5.552   5.658   8.162 -0.2490 -0.3524  0.2977
   11SAPS  H17X 1458   5.541   5.764   8.194  2.3593 -0.3420  1.4091
   11SAPS  H17Y 1459   5.651   5.615   8.188 -0.3513 -0.0309  1.2411
   11SAPS  C318 1460   5.439   5.571   8.216 -0.4188  0.1965  0.6623
   11SAPS  H18X 1461   5.431   5.484   8.147 -1.5366  1.0042 -0.2665
   11SAPS  H18Y 1462   5.343   5.626   8.213 -0.0705  0.7916 -0.2204
   11SAPS  H18Z 1463   5.459   5.530   8.317  1.1154 -2.1894 -0.4930
   12SAPS     N 1464   0.998   4.927   6.102  0.1479 -0.7316 -0.6682
   12SAPS   HN1 1465   0.994   5.002   6.175 -0.2518 -0.5879 -0.8349
   12SAPS   HN2 1466   1.100   4.918   6.085  0.1931 -1.6206  0.0284
   12SAPS   HN3 1467   0.958   4.962   6.013  1.3038  1.9920 -0.2386
   12SAPS   C12 1468   0.954   4.801   6.145  0.1080  0.4674 -0.9396
   12SAPS  H12A 1469   0.852   4.807   6.181  0.9345 -0.9997  1.9184
   12SAPS   C13 1470   0.946   4.691   6.037  0.2950 -0.0510  0.0143
   12SAPS  O13A 1471   0.964   4.722   5.916 -0.2523 -0.1143 -0.1577
   12SAPS  O13B 1472   0.895   4.581   6.074 -0.0494  0.2283  0.1787
   12SAPS   C11 1473   1.034   4.759   6.273  0.1780  0.0387 -0.1573
   12SAPS  H11A 1474   0.977   4.679   6.325 -0.8680  1.6130  1.2583
   12SAPS  H11B 1475   1.028   4.835   6.354  0.7221 -3.6476  3.7243
   12SAPS     P 1476   1.288   4.733   6.332 -0.3769 -0.0190  0.2603
   12SAPS   O13 1477   1.384   4.617   6.312  0.0001 -0.2013  0.2638
   12SAPS   O14 1478   1.338   4.868   6.306 -0.9853  0.4873  0.1499
   12SAPS   O12 1479   1.163   4.707   6.237 -0.2813 -0.0008 -0.0025
   12SAPS   O11 1480   1.234   4.738   6.476  0.5766 -0.3838 -0.4679
   12SAPS    C1 1481   1.165   4.621   6.531 -0.0413  0.3959  0.3296
   12SAPS    HA 1482   1.123   4.551   6.455  0.2725  1.8133 -1.2198
   12SAPS    HB 1483   1.227   4.562   6.601 -1.9573 -0.8695  1.0499
   12SAPS    C2 1484   1.055   4.662   6.635 -0.2632  0.3262 -0.1928
   12SAPS    HS 1485   0.975   4.713   6.578  0.2871  0.1097 -1.1758
   12SAPS   O21 1486   1.112   4.746   6.741  0.5332 -0.8178  0.8325
   12SAPS   C21 1487   1.033   4.842   6.784 -0.4015 -0.5920  0.4316
   12SAPS   O22 1488   0.929   4.881   6.726 -0.1653 -0.3871  0.1556
   12SAPS   C22 1489   1.093   4.918   6.901 -0.1624  0.0919 -0.1198
   12SAPS   H2R 1490   1.113   5.024   6.872 -1.6123  0.7342  1.1084
   12SAPS   H2S 1491   1.024   4.926   6.988  0.0676  1.2219 -0.0342
   12SAPS    C3 1492   1.001   4.541   6.704  1.0315  0.2625  0.5693
   12SAPS    HX 1493   1.078   4.505   6.775  1.2054 -0.8198 -0.1365
   12SAPS    HY 1494   0.980   4.463   6.626  0.2975  2.4400 -1.5361
   12SAPS   O31 1495   0.884   4.581   6.780 -0.4081  0.1302 -0.0701
   12SAPS   C31 1496   0.777   4.617   6.712  0.3104  0.3101  0.7227
   12SAPS   O32 1497   0.764   4.599   6.592 -0.6788 -0.1577  0.0430
   12SAPS   C32 1498   0.663   4.674   6.801  0.3296  0.2340 -0.2978
   12SAPS   H2X 1499   0.572   4.612   6.789  0.1838  0.3262  0.2894
   12SAPS   H2Y 1500   0.650   4.781   6.775  0.0575 -0.2085 -2.1768
   12SAPS   C23 1501   1.230   4.866   6.948  0.0952 -0.4610  0.1767
   12SAPS   H3R 1502   1.308   4.887   6.871 -0.5997  0.3250 -0.3375
   12SAPS   H3S 1503   1.227   4.758   6.971 -0.2563 -0.1187  1.8138
   12SAPS   C24 1504   1.277   4.930   7.078 -0.0135 -0.0054 -0.4345
   12SAPS   H4R 1505   1.360   4.861   7.105  0.6180  0.5637 -0.8972
   12SAPS   H4S 1506   1.185   4.934   7.140 -0.4899 -1.7489 -0.9757
   12SAPS   C25 1507   1.335   5.068   7.047 -0.3224  0.8002  0.4943
   12SAPS   H5R 1508   1.343   5.090   6.939 -3.1405  0.8848  0.2292
   12SAPS   C26 1509   1.356   5.165   7.135 -0.2834 -0.9324 -0.6399
   12SAPS   H6R 1510   1.379   5.262   7.088 -0.3816  0.0851  1.2979
   12SAPS   C27 1511   1.338   5.162   7.288 -0.3299 -0.0779 -0.0831
   12SAPS   H7R 1512   1.353   5.057   7.323 -1.0859 -0.2043 -0.1238
   12SAPS   H7S 1513   1.228   5.172   7.305 -0.6153 -2.5287 -0.1340
   12SAPS   C28 1514   1.425   5.256   7.368  0.3343  0.2586  0.8130
   12SAPS   H8R 1515   1.489   5.311   7.297 -1.5020  0.4830 -0.7764
   12SAPS   C29 1516   1.419   5.279   7.499  0.0939 -0.7330 -0.1859
   12SAPS   H9R 1517   1.480   5.358   7.546  0.5643 -1.8054  1.0578
   12SAPS  C210 1518   1.323   5.208   7.590  0.5210  0.1830  0.0244
   12SAPS  H10R 1519   1.232   5.181   7.532 -1.4252  1.2737  2.4006
   12SAPS  H10S 1520   1.271   5.266   7.669 -0.5749  0.0045 -0.5506
   12SAPS  C211 1521   1.376   5.087   7.663 -0.1172 -0.4106  0.0964
   12SAPS  H11R 1522   1.429   5.019   7.594  1.6206 -2.1058  2.9201
   12SAPS  C212 1523   1.373   5.050   7.797  0.8536 -0.3132  0.3483
   12SAPS  H12R 1524   1.404   4.948   7.827  2.7569  0.7021  2.1072
   12SAPS  C213 1525   1.320   5.131   7.916 -0.5271  0.6202 -0.1876
   12SAPS  H13R 1526   1.321   5.238   7.886 -1.4928  0.9731  0.9594
   12SAPS  H13S 1527   1.389   5.129   8.003  0.3855  1.4393 -0.8735
   12SAPS  C214 1528   1.185   5.096   7.964  0.8197  0.0135  0.1951
   12SAPS  H14R 1529   1.116   5.111   7.880  2.6503 -0.7402 -1.5267
   12SAPS  C215 1530   1.133   5.058   8.078  0.5864  0.0431  0.6390
   12SAPS  H15R 1531   1.024   5.050   8.081  0.5449 -0.5139 -1.1168
   12SAPS  C216 1532   1.206   5.035   8.207 -0.0724  0.1568 -0.1518
   12SAPS  H16R 1533   1.136   5.079   8.281 -0.0714 -0.0531 -0.0275
   12SAPS  H16S 1534   1.303   5.090   8.210  0.1232  0.0354 -2.4840
   12SAPS  C217 1535   1.236   4.889   8.244 -0.2462  1.0768 -0.5910
   12SAPS  H17R 1536   1.311   4.848   8.173  0.3470  0.0168  0.6321
   12SAPS  H17S 1537   1.145   4.827   8.232  0.1646  0.6715 -1.7358
   12SAPS  C218 1538   1.286   4.848   8.389 -0.8463 -0.7503  0.1629
   12SAPS  H18R 1539   1.220   4.918   8.444  0.2613  1.8308 -1.5570
   12SAPS  H18S 1540   1.394   4.874   8.395 -0.8529 -0.6356 -0.2004
   12SAPS  C219 1541   1.269   4.702   8.433  0.5663 -1.0221  0.2478
   12SAPS  H19R 1542   1.324   4.624   8.377 -0.1657 -0.0731 -1.9095
   12SAPS  H19S 1543   1.163   4.672   8.414 -0.6056  1.4831  2.0978
   12SAPS  C220 1544   1.291   4.697   8.589 -0.2785 -0.1085  0.2535
   12SAPS  H20R 1545   1.228   4.614   8.630 -3.9311  1.8746 -0.8833
   12SAPS  H20S 1546   1.244   4.788   8.632 -1.5942 -1.5723  2.1189
   12SAPS  H20T 1547   1.397   4.700   8.619 -0.6505  2.7329  1.5268
   12SAPS   C33 1548   0.702   4.662   6.954 -0.6900  0.1080  0.2026
   12SAPS   H3X 1549   0.794   4.724   6.963 -1.1927  0.9674 -0.4006
   12SAPS   H3Y 1550   0.725   4.555   6.973 -1.4572 -0.1944 -0.5338
   12SAPS   C34 1551   0.596   4.714   7.050 -0.0620  0.1699  0.0239
   12SAPS   H4X 1552   0.500   4.671   7.015  0.5805 -0.4223 -1.0653
   12SAPS   H4Y 1553   0.591   4.824   7.036 -1.0301  0.2734  1.0111
   12SAPS   C35 1554   0.621   4.680   7.192  0.3832  0.2489 -0.4916
   12SAPS   H5X 1555   0.721   4.715   7.228 -0.3959  0.3713  1.7381
   12SAPS   H5Y 1556   0.613   4.570   7.204 -1.3376  0.3038 -0.9046
   12SAPS   C36 1557   0.509   4.727   7.280 -0.2241 -0.6058 -0.2341
   12SAPS   H6X 1558   0.416   4.696   7.229 -1.2046  1.4578  0.2170
   12SAPS   H6Y 1559   0.498   4.837   7.284 -0.7435 -0.6689  0.1710
   12SAPS   C37 1560   0.504   4.659   7.413 -0.4902 -0.0943  0.7564
   12SAPS   H7X 1561   0.511   4.549   7.420  0.1720 -0.0957  0.1808
   12SAPS   H7Y 1562   0.409   4.676   7.466 -1.4558  0.2547 -1.0103
   12SAPS   C38 1563   0.615   4.718   7.509 -0.1684  0.1919  0.2794
   12SAPS   H8X 1564   0.632   4.825   7.484  0.3109 -0.4333 -2.4284
   12SAPS   H8Y 1565   0.710   4.669   7.479 -0.5960 -0.8362  0.5584
   12SAPS   C39 1566   0.595   4.684   7.653 -0.1309  0.2012  0.3540
   12SAPS   H9X 1567   0.678   4.728   7.712  0.3439  3.3237 -2.3187
   12SAPS   H9Y 1568   0.610   4.575   7.662 -1.4028  0.1675  2.8981
   12SAPS  C310 1569   0.464   4.730   7.718  0.3300 -0.3085 -0.1515
   12SAPS  H10X 1570   0.381   4.696   7.654  1.1343  0.5904 -1.7229
   12SAPS  H10Y 1571   0.474   4.839   7.702  0.3208 -0.4013 -0.8199
   12SAPS  C311 1572   0.451   4.698   7.862  0.1293 -0.1473  0.1244
   12SAPS  H11X 1573   0.513   4.767   7.923 -0.9299  0.2412  0.7906
   12SAPS  H11Y 1574   0.483   4.593   7.879 -0.0297 -0.1534  0.3843
   12SAPS  C312 1575   0.306   4.724   7.915  0.2351 -0.1989 -0.8292
   12SAPS  H12X 1576   0.236   4.673   7.846  0.6916  0.6841 -1.9828
   12SAPS  H12Y 1577   0.287   4.834   7.912 -2.0177 -0.5343 -0.7817
   12SAPS  C313 1578   0.282   4.666   8.061  0.5001 -0.1797  0.2098
   12SAPS  H13X 1579   0.181   4.697   8.095  0.6604  0.4394  0.1389
   12SAPS  H13Y 1580   0.352   4.729   8.120  1.9098 -1.7490  0.2977
   12SAPS  C314 1581   0.319   4.513   8.068  0.6999 -0.6480  0.4800
   12SAPS  H14X 1582   0.429   4.506   8.054  0.9581  1.7752  0.8850
   12SAPS  H14Y 1583   0.284   4.448   7.984  2.8011 -1.5874  0.2496
   12SAPS  C315 1584   0.279   4.443   8.197  0.0877 -0.9311  0.2828
   12SAPS  H15X 1585   0.305   4.335   8.202 -2.3691 -1.5438  1.1748
   12SAPS  H15Y 1586   0.168   4.443   8.196  0.0603  0.2720 -1.2803
   12SAPS  C316 1587   0.330   4.516   8.319  0.6651 -0.1480 -0.1223
   12SAPS  H16X 1588   0.286   4.463   8.405 -0.5051 -0.0414 -0.6420
   12SAPS  H16Y 1589   0.287   4.619   8.320  0.3751 -0.2623 -0.5356
   12SAPS  C317 1590   0.484   4.524   8.338  0.3493 -0.5346 -0.7047
   12SAPS  H17X 1591   0.526   4.584   8.254  0.8518 -1.9808 -1.5334
   12SAPS  H17Y 1592   0.533   4.425   8.329  2.4277  0.4197 -0.3882
   12SAPS  C318 1593   0.520   4.589   8.475  0.1867 -0.0332  0.3939
   12SAPS  H18X 1594   0.458   4.680   8.491 -2.3785 -1.4821 -0.7203
   12SAPS  H18Y 1595   0.628   4.611   8.490  0.4735 -1.3500  0.3080
   12SAPS  H18Z 1596   0.505   4.518   8.559 -1.6032 -1.6537 -1.2116
   13SAPS     N 1597   6.113   1.465   5.981 -0.3365  0.0710  0.2645
   13SAPS   HN1 1598   6.125   1.524   6.066  0.0642 -0.7405  0.7842
   13SAPS   HN2 1599   6.021   1.416   5.974 -0.3212  0.2735 -2.0727
   13SAPS   HN3 1600   6.195   1.402   5.968  0.9892  1.5983  0.8744
   13SAPS   C12 1601   6.122   1.554   5.856 -0.3074 -0.0418  0.0126
   13SAPS  H12A 1602   6.225   1.580   5.838  0.2434 -2.3954 -0.6233
   13SAPS   C13 1603   6.076   1.480   5.730 -0.0614  0.3903 -0.1312
   13SAPS  O13A 1604   6.035   1.362   5.736  0.0425 -0.2893 -0.1157
   13SAPS  O13B 1605   6.083   1.543   5.621 -0.1864  0.4284  0.2744
   13SAPS   C11 1606   6.038   1.677   5.875 -0.5849 -0.0729  0.5749
   13SAPS  H11A 1607   5.935   1.642   5.897 -1.3389  1.9743  0.5525
   13SAPS  H11B 1608   6.031   1.728   5.777 -0.7392 -0.4927  0.3686
   13SAPS     P 1609   5.987   1.876   6.034 -0.6623 -0.6762 -0.0304
   13SAPS   O13 1610   6.057   2.000   6.063 -0.4295  0.2069  0.1787
   13SAPS   O14 1611   5.872   1.889   5.944  0.7377 -0.3580  0.1014
   13SAPS   O12 1612   6.092   1.771   5.972 -0.9670  0.3391 -0.4802
   13SAPS   O11 1613   5.933   1.818   6.173 -0.4294  0.0053 -0.8269
   13SAPS    C1 1614   5.863   1.897   6.270 -0.0224 -0.5705  0.5427
   13SAPS    HA 1615   5.836   2.002   6.247  1.2362  0.0285  1.6849
   13SAPS    HB 1616   5.765   1.848   6.285  0.4271 -1.9838 -0.7639
   13SAPS    C2 1617   5.944   1.890   6.403  0.1162 -0.3607 -0.1538
   13SAPS    HS 1618   6.052   1.905   6.382  0.3788 -1.2428  0.4957
   13SAPS   O21 1619   5.926   1.759   6.467  0.5024 -0.0018  0.7428
   13SAPS   C21 1620   6.003   1.740   6.568 -0.0232 -0.2822 -1.0423
   13SAPS   O22 1621   6.090   1.818   6.615  0.3107 -0.2930 -0.5327
   13SAPS   C22 1622   5.958   1.615   6.649 -0.4134 -0.0079 -0.7522
   13SAPS   H2R 1623   5.851   1.600   6.623  0.2081 -3.0167 -1.9145
   13SAPS   H2S 1624   6.006   1.523   6.610  2.2596  0.6746  0.6373
   13SAPS    C3 1625   5.892   2.003   6.495  1.1317  0.0416 -0.1964
   13SAPS    HX 1626   5.890   2.094   6.431 -0.8688 -0.1825 -0.5072
   13SAPS    HY 1627   5.960   2.030   6.579 -1.0004 -0.7623  1.8733
   13SAPS   O31 1628   5.762   1.974   6.555  0.1688 -0.4029  0.2270
   13SAPS   C31 1629   5.655   2.030   6.492 -0.5229  0.2400 -0.1817
   13SAPS   O32 1630   5.652   2.111   6.403  0.1574  0.6741  0.4009
   13SAPS   C32 1631   5.534   1.943   6.535 -0.2188 -0.0937  0.8057
   13SAPS   H2X 1632   5.566   1.837   6.543 -0.2426 -0.0604  1.3430
   13SAPS   H2Y 1633   5.458   1.949   6.453 -1.5956 -0.5700  1.9986
   13SAPS   C23 1634   6.008   1.628   6.796  0.7903  0.0312 -0.2032
   13SAPS   H3R 1635   6.114   1.659   6.787  0.6017  0.2307 -2.1766
   13SAPS   H3S 1636   6.010   1.525   6.839  0.4659 -0.1390 -0.5858
   13SAPS   C24 1637   5.918   1.730   6.874  0.4457  0.1498  0.4356
   13SAPS   H4R 1638   5.903   1.822   6.813 -0.2613 -0.1329  0.1780
   13SAPS   H4S 1639   5.978   1.753   6.964  1.2645 -0.4590  0.0546
   13SAPS   C25 1640   5.777   1.682   6.902  0.2753 -0.6841 -0.4708
   13SAPS   H5R 1641   5.711   1.677   6.815 -0.2833 -0.1115 -0.0846
   13SAPS   C26 1642   5.724   1.654   7.025 -0.5747  0.0003  0.3598
   13SAPS   H6R 1643   5.623   1.611   7.032 -0.4552 -0.1724  0.9770
   13SAPS   C27 1644   5.791   1.672   7.163  0.4859 -0.3126  0.1652
   13SAPS   H7R 1645   5.885   1.729   7.151  0.5750 -1.0595 -4.0715
   13SAPS   H7S 1646   5.825   1.570   7.193 -1.3821 -0.9840  0.1504
   13SAPS   C28 1647   5.689   1.714   7.266 -0.3424 -0.4775 -0.7975
   13SAPS   H8R 1648   5.630   1.806   7.252  0.8120  0.2614 -0.9316
   13SAPS   C29 1649   5.670   1.658   7.390 -0.3584 -0.0151  0.1959
   13SAPS   H9R 1650   5.593   1.694   7.460  0.8844 -3.0638  3.4029
   13SAPS  C210 1651   5.730   1.535   7.446 -0.2489 -0.0650 -0.6732
   13SAPS  H10R 1652   5.790   1.482   7.368  0.2561 -0.3344 -0.1138
   13SAPS  H10S 1653   5.649   1.463   7.474  0.1973 -0.2844  0.0952
   13SAPS  C211 1654   5.823   1.569   7.562 -0.3975 -0.8102  0.3754
   13SAPS  H11R 1655   5.899   1.642   7.532  0.5304  0.0678  4.2829
   13SAPS  C212 1656   5.821   1.528   7.690 -0.1236 -0.4778  0.7582
   13SAPS  H12R 1657   5.902   1.570   7.753  2.5680 -1.8256 -1.5726
   13SAPS  C213 1658   5.729   1.423   7.749  0.7528 -0.4408  0.2532
   13SAPS  H13R 1659   5.701   1.362   7.661 -0.3290  2.0640 -1.2421
   13SAPS  H13S 1660   5.631   1.467   7.777  0.1081 -0.2251 -2.1192
   13SAPS  C214 1661   5.796   1.333   7.856 -0.3676 -0.9697  0.1428
   13SAPS  H14R 1662   5.885   1.279   7.819  0.6452  0.9408 -0.3653
   13SAPS  C215 1663   5.770   1.330   7.986  0.0499  0.1269 -0.4233
   13SAPS  H15R 1664   5.829   1.258   8.046 -1.9558 -1.6225 -0.4356
   13SAPS  C216 1665   5.666   1.406   8.064  0.3960 -0.1064  0.0724
   13SAPS  H16R 1666   5.599   1.323   8.095 -0.9546  1.0140  0.2576
   13SAPS  H16S 1667   5.600   1.470   8.002  0.9634  0.8249  0.4118
   13SAPS  C217 1668   5.726   1.478   8.188 -0.0705 -0.9690  0.0289
   13SAPS  H17R 1669   5.799   1.420   8.249  2.1267  1.3562 -0.1948
   13SAPS  H17S 1670   5.651   1.488   8.268  3.0278 -0.2139  3.0732
   13SAPS  C218 1671   5.803   1.611   8.160  0.0749  0.6743 -0.5454
   13SAPS  H18R 1672   5.732   1.686   8.120  2.2117  3.1261 -0.0784
   13SAPS  H18S 1673   5.878   1.609   8.078  0.2103 -0.3411 -0.4094
   13SAPS  C219 1674   5.879   1.657   8.288  0.3343  0.1315  0.5574
   13SAPS  H19R 1675   5.916   1.755   8.252 -4.9399  2.6296  0.9994
   13SAPS  H19S 1676   5.962   1.588   8.314  2.2975  3.2083  3.1066
   13SAPS  C220 1677   5.790   1.672   8.409 -0.2778 -0.2803  0.0699
   13SAPS  H20R 1678   5.754   1.578   8.457 -2.7749  0.4359 -0.2844
   13SAPS  H20S 1679   5.707   1.730   8.363  2.6104  3.6517 -0.6861
   13SAPS  H20T 1680   5.826   1.747   8.483  1.3556 -0.7655 -0.1933
   13SAPS   C33 1681   5.470   1.987   6.669 -0.4434 -0.4348  0.2410
   13SAPS   H3X 1682   5.420   2.083   6.645 -1.9874 -0.9795  1.1555
   13SAPS   H3Y 1683   5.556   2.000   6.739 -0.2690 -3.4673  0.7002
   13SAPS   C34 1684   5.375   1.892   6.720 -0.3870 -0.0113  0.3440
   13SAPS   H4X 1685   5.424   1.793   6.735 -0.4822 -0.1613 -0.2991
   13SAPS   H4Y 1686   5.300   1.872   6.641  1.0781 -2.0199 -0.6293
   13SAPS   C35 1687   5.309   1.951   6.849  0.3376  0.1140  0.3965
   13SAPS   H5X 1688   5.205   1.913   6.858  0.0696  0.2647 -1.6513
   13SAPS   H5Y 1689   5.288   2.058   6.830 -1.5185  0.0625  1.8799
   13SAPS   C36 1690   5.388   1.932   6.979  0.6430  0.4537 -0.3051
   13SAPS   H6X 1691   5.496   1.911   6.962  0.4685  1.1872 -2.7682
   13SAPS   H6Y 1692   5.353   1.835   7.020  2.6529  0.0578  0.5911
   13SAPS   C37 1693   5.370   2.046   7.077 -0.3441 -1.0025 -0.3850
   13SAPS   H7X 1694   5.261   2.064   7.086 -0.0616 -0.2792  4.8119
   13SAPS   H7Y 1695   5.427   2.128   7.028 -1.5218 -0.1640 -0.3854
   13SAPS   C38 1696   5.426   2.024   7.219  1.3830 -0.0412 -0.0474
   13SAPS   H8X 1697   5.443   2.124   7.264 -0.2161 -0.3488  1.3845
   13SAPS   H8Y 1698   5.523   1.970   7.213  2.0638  1.2536 -0.9699
   13SAPS   C39 1699   5.330   1.930   7.301 -0.1857  0.1076  0.8949
   13SAPS   H9X 1700   5.317   1.833   7.248  0.3599 -0.1351  1.2023
   13SAPS   H9Y 1701   5.227   1.971   7.309 -1.3361 -2.0056 -1.5662
   13SAPS  C310 1702   5.386   1.912   7.440 -0.4095 -0.5341  0.3120
   13SAPS  H10X 1703   5.403   2.015   7.479  0.5305  0.6179 -2.8572
   13SAPS  H10Y 1704   5.494   1.884   7.438 -0.4224 -0.7031  1.2736
   13SAPS  C311 1705   5.307   1.813   7.527  0.2849  0.0054  0.1931
   13SAPS  H11X 1706   5.314   1.706   7.495  0.4282 -0.3636  1.4294
   13SAPS  H11Y 1707   5.200   1.829   7.503  0.9708  1.0020 -2.6721
   13SAPS  C312 1708   5.330   1.835   7.672 -0.3188 -0.1442 -0.5547
   13SAPS  H12X 1709   5.232   1.827   7.722 -1.3497  0.4201 -2.4059
   13SAPS  H12Y 1710   5.365   1.940   7.685  1.6481 -0.9011  0.8598
   13SAPS  C313 1711   5.433   1.730   7.728 -0.3457  0.0940 -0.6311
   13SAPS  H13X 1712   5.526   1.729   7.668 -0.2443 -1.2625 -0.4813
   13SAPS  H13Y 1713   5.382   1.631   7.728 -2.7725  1.2670 -0.5764
   13SAPS  C314 1714   5.460   1.763   7.874 -0.6774  0.7224 -0.2718
   13SAPS  H14X 1715   5.476   1.872   7.886 -2.4282  0.9291  0.4948
   13SAPS  H14Y 1716   5.550   1.707   7.906 -0.9844  0.8263  0.8081
   13SAPS  C315 1717   5.348   1.722   7.977 -0.0713 -1.0606  0.0651
   13SAPS  H15X 1718   5.304   1.629   7.933 -0.9030 -0.6106 -0.0754
   13SAPS  H15Y 1719   5.264   1.794   7.966  0.3362 -0.8269 -1.9508
   13SAPS  C316 1720   5.399   1.706   8.116 -0.5869 -0.2092  0.0459
   13SAPS  H16X 1721   5.449   1.799   8.151  1.5812 -0.5365 -1.9342
   13SAPS  H16Y 1722   5.487   1.639   8.123  0.3584  1.1066  1.4593
   13SAPS  C317 1723   5.289   1.674   8.219 -0.1990  0.5002  0.6138
   13SAPS  H17X 1724   5.337   1.631   8.309 -0.1294  0.4205  0.5383
   13SAPS  H17Y 1725   5.219   1.607   8.164  0.2410 -1.0264  1.8590
   13SAPS  C318 1726   5.229   1.802   8.275  0.3885 -0.6628 -0.2746
   13SAPS  H18X 1727   5.200   1.867   8.190 -0.3842  2.0745  1.9668
   13SAPS  H18Y 1728   5.305   1.857   8.334 -0.1241 -0.8628  0.5865
   13SAPS  H18Z 1729   5.139   1.778   8.335  1.2380 -2.8977  0.2053
   14SAPS     N 1730   2.267   4.340   6.215 -0.2761  0.3006  0.7566
   14SAPS   HN1 1731   2.293   4.436   6.242  1.3252  0.1470 -0.0996
   14SAPS   HN2 1732   2.202   4.290   6.279 -1.6253 -0.5886 -1.1883
   14SAPS   HN3 1733   2.354   4.282   6.208 -0.6955 -0.6081  2.6032
   14SAPS   C12 1734   2.199   4.333   6.078 -0.3439  0.0021  0.4762
   14SAPS  H12A 1735   2.246   4.413   6.023  1.5272 -1.7417 -0.6160
   14SAPS   C13 1736   2.209   4.201   6.001  0.0415  0.8961  0.0962
   14SAPS  O13A 1737   2.299   4.122   6.035  0.3607  0.2401 -0.1126
   14SAPS  O13B 1738   2.170   4.203   5.878  0.5445  0.5226  0.0332
   14SAPS   C11 1739   2.045   4.370   6.098 -0.2500 -0.1467  0.5549
   14SAPS  H11A 1740   1.985   4.290   6.147 -0.8875  0.5054  0.8522
   14SAPS  H11B 1741   2.006   4.369   5.994 -1.8910  0.6441  1.1237
   14SAPS     P 1742   1.940   4.614   6.118  0.4853  0.5122 -0.3346
   14SAPS   O13 1743   1.994   4.742   6.164  0.1533  0.0177 -0.4042
   14SAPS   O14 1744   1.901   4.595   5.976 -0.2169 -0.0810  0.0639
   14SAPS   O12 1745   2.026   4.494   6.169  0.2325 -0.3879  0.7298
   14SAPS   O11 1746   1.811   4.600   6.207  0.2035  0.1013  0.3291
   14SAPS    C1 1747   1.742   4.491   6.271 -0.7300 -0.5203  1.0744
   14SAPS    HA 1748   1.633   4.500   6.254 -0.6467  0.8339  1.1675
   14SAPS    HB 1749   1.777   4.396   6.224 -0.9280 -0.1872  0.2352
   14SAPS    C2 1750   1.766   4.478   6.427  0.0835  0.0325  0.6883
   14SAPS    HS 1751   1.688   4.402   6.450 -0.1743 -0.2550 -1.0035
   14SAPS   O21 1752   1.754   4.603   6.492  0.0831  0.0042 -0.6911
   14SAPS   C21 1753   1.674   4.599   6.593  0.1097 -0.4609 -0.3625
   14SAPS   O22 1754   1.617   4.500   6.637 -0.5261  0.6311  0.4617
   14SAPS   C22 1755   1.659   4.739   6.661 -0.3787 -0.2007 -0.4559
   14SAPS   H2R 1756   1.754   4.755   6.718 -1.9979 -0.0893  2.4368
   14SAPS   H2S 1757   1.645   4.820   6.587  0.0754  1.2340  0.9553
   14SAPS    C3 1758   1.904   4.409   6.455  0.2571  0.2049 -0.2846
   14SAPS    HX 1759   1.977   4.439   6.377  0.1026  1.2383 -0.0480
   14SAPS    HY 1760   1.898   4.300   6.433 -0.3466  0.5597 -2.1203
   14SAPS   O31 1761   1.938   4.410   6.598 -1.0943  0.1353 -0.2430
   14SAPS   C31 1762   2.036   4.486   6.634 -0.8562 -0.1841  0.4748
   14SAPS   O32 1763   2.097   4.568   6.567 -0.1181 -0.4563  0.1912
   14SAPS   C32 1764   2.066   4.454   6.779  0.4603 -0.4397 -0.2463
   14SAPS   H2X 1765   2.073   4.343   6.787  1.3942 -0.2393  2.8574
   14SAPS   H2Y 1766   1.975   4.486   6.834  0.4564 -0.0451 -0.4766
   14SAPS   C23 1767   1.538   4.740   6.751 -0.3211  0.4032  0.6519
   14SAPS   H3R 1768   1.454   4.675   6.718  0.2557  1.0057 -2.3006
   14SAPS   H3S 1769   1.503   4.845   6.751 -0.4046  0.3767  1.1071
   14SAPS   C24 1770   1.575   4.702   6.902  0.5154 -0.0531 -0.2915
   14SAPS   H4R 1771   1.617   4.599   6.901  0.6410 -0.0489 -3.3506
   14SAPS   H4S 1772   1.476   4.694   6.950 -0.2273  0.2176 -1.7382
   14SAPS   C25 1773   1.667   4.800   6.965  0.1990 -0.3820 -0.2899
   14SAPS   H5R 1774   1.681   4.895   6.911 -2.3461 -0.2087 -0.8134
   14SAPS   C26 1775   1.747   4.775   7.072  0.4476  0.4593 -0.5374
   14SAPS   H6R 1776   1.815   4.851   7.112 -0.1893 -0.1035  1.8076
   14SAPS   C27 1777   1.753   4.656   7.164 -0.2973 -0.4157 -0.0506
   14SAPS   H7R 1778   1.650   4.648   7.206 -0.4042 -0.7670 -0.3734
   14SAPS   H7S 1779   1.833   4.674   7.239  3.1891 -2.4172 -2.9165
   14SAPS   C28 1780   1.790   4.525   7.097 -0.7065 -0.2385  0.8793
   14SAPS   H8R 1781   1.802   4.523   6.988 -2.6673 -0.7157  0.6201
   14SAPS   C29 1782   1.784   4.399   7.156  0.8496 -0.7720 -0.3498
   14SAPS   H9R 1783   1.816   4.312   7.097 -2.2087 -2.0669 -0.2526
   14SAPS  C210 1784   1.763   4.383   7.303 -0.1898  0.3028 -0.1424
   14SAPS  H10R 1785   1.772   4.482   7.353 -1.7300  0.5977 -0.4108
   14SAPS  H10S 1786   1.847   4.320   7.342 -0.6019  0.1131  0.4558
   14SAPS  C211 1787   1.636   4.326   7.355  0.0264 -0.1729 -1.0302
   14SAPS  H11R 1788   1.576   4.264   7.286 -0.4523 -2.0684  0.9735
   14SAPS  C212 1789   1.598   4.349   7.485 -0.1902 -0.3413 -0.1237
   14SAPS  H12R 1790   1.496   4.325   7.520 -0.1392  1.2996  1.3391
   14SAPS  C213 1791   1.672   4.421   7.590  0.2860 -0.1911 -0.5631
   14SAPS  H13R 1792   1.596   4.450   7.665  1.2939  0.5831  0.1805
   14SAPS  H13S 1793   1.705   4.521   7.553 -1.3930  1.0129  1.0037
   14SAPS  C214 1794   1.775   4.333   7.646 -0.7120 -0.0914 -0.3192
   14SAPS  H14R 1795   1.798   4.239   7.594 -1.4800 -2.5128  3.3202
   14SAPS  C215 1796   1.838   4.351   7.763 -0.5268 -0.3615 -0.3686
   14SAPS  H15R 1797   1.907   4.268   7.786 -0.4812 -0.4429 -0.7937
   14SAPS  C216 1798   1.830   4.461   7.866 -1.0867 -0.1656  0.4716
   14SAPS  H16R 1799   1.777   4.436   7.960 -0.7285 -1.8475  0.2520
   14SAPS  H16S 1800   1.783   4.552   7.821  0.1694  1.0178  1.4677
   14SAPS  C217 1801   1.974   4.508   7.900  0.1989  0.2303  0.2434
   14SAPS  H17R 1802   1.971   4.617   7.922  0.6943  0.9051 -2.6837
   14SAPS  H17S 1803   2.045   4.515   7.815  0.7580  2.7413  0.8590
   14SAPS  C218 1804   2.032   4.419   8.010  0.6636 -0.3722 -0.7854
   14SAPS  H18R 1805   2.055   4.321   7.963  0.0035 -1.0619  0.2820
   14SAPS  H18S 1806   1.956   4.410   8.091  1.6401 -0.0120  0.2116
   14SAPS  C219 1807   2.166   4.473   8.061 -0.5591  0.5223 -0.0955
   14SAPS  H19R 1808   2.167   4.572   8.111 -0.0838  0.7767 -0.5924
   14SAPS  H19S 1809   2.236   4.485   7.975 -0.4832  1.3125  0.0669
   14SAPS  C220 1810   2.215   4.368   8.160  0.3851  0.0984  0.3367
   14SAPS  H20R 1811   2.288   4.416   8.229 -0.3416 -0.9356  1.9045
   14SAPS  H20S 1812   2.269   4.292   8.100  3.6940  0.8818  2.0957
   14SAPS  H20T 1813   2.134   4.316   8.216 -1.8342  3.3384  0.3791
   14SAPS   C33 1814   2.194   4.525   6.843  0.0260 -0.5705  0.1433
   14SAPS   H3X 1815   2.208   4.624   6.795 -1.3571  1.1799  2.9950
   14SAPS   H3Y 1816   2.282   4.459   6.834 -1.0328 -1.9307 -0.6131
   14SAPS   C34 1817   2.183   4.553   6.993 -0.3411 -0.6348  0.7260
   14SAPS   H4X 1818   2.088   4.606   7.014 -1.2144 -2.7259  2.3293
   14SAPS   H4Y 1819   2.261   4.626   7.024 -1.4722  1.5700 -1.2549
   14SAPS   C35 1820   2.202   4.421   7.074  0.4809 -0.7734 -0.1588
   14SAPS   H5X 1821   2.307   4.391   7.055  0.5143  0.0917 -1.5016
   14SAPS   H5Y 1822   2.127   4.347   7.038 -0.8712 -1.1723  3.1678
   14SAPS   C36 1823   2.180   4.438   7.225  1.2214  0.3248  0.4186
   14SAPS   H6X 1824   2.073   4.460   7.246  1.1830  0.1823  0.3766
   14SAPS   H6Y 1825   2.239   4.523   7.264  0.1200  1.4054 -0.1721
   14SAPS   C37 1826   2.231   4.322   7.309 -0.4689 -0.3622  0.7417
   14SAPS   H7X 1827   2.340   4.331   7.292 -0.9590  1.4144 -2.1203
   14SAPS   H7Y 1828   2.195   4.228   7.261  0.8886 -0.4512 -0.1462
   14SAPS   C38 1829   2.189   4.332   7.452 -0.3906 -0.5386  0.2730
   14SAPS   H8X 1830   2.081   4.315   7.470 -0.7675  1.0573 -0.2962
   14SAPS   H8Y 1831   2.210   4.437   7.483 -0.5332  0.6799 -3.3349
   14SAPS   C39 1832   2.265   4.231   7.545  0.2710 -0.4642 -0.3929
   14SAPS   H9X 1833   2.375   4.246   7.542  0.4668 -1.8266 -0.5494
   14SAPS   H9Y 1834   2.247   4.129   7.504  1.4646 -0.7396 -0.2784
   14SAPS  C310 1835   2.208   4.239   7.694 -0.0129 -0.3932 -0.0171
   14SAPS  H10X 1836   2.098   4.227   7.689  0.0593 -1.2553  0.2674
   14SAPS  H10Y 1837   2.227   4.334   7.750  0.9290  0.1516 -1.2126
   14SAPS  C311 1838   2.249   4.126   7.784  0.1609  0.2000  0.1669
   14SAPS  H11X 1839   2.194   4.034   7.758 -1.9958  0.5861  2.8099
   14SAPS  H11Y 1840   2.219   4.151   7.888  0.1660  0.1516  0.1798
   14SAPS  C312 1841   2.400   4.094   7.795  0.5965  0.1876  0.3174
   14SAPS  H12X 1842   2.457   4.186   7.823  0.3177 -0.0764  1.8134
   14SAPS  H12Y 1843   2.426   4.074   7.689 -1.6708  1.4845 -0.5445
   14SAPS  C313 1844   2.416   3.982   7.890 -0.2711 -0.1003  0.4892
   14SAPS  H13X 1845   2.350   3.900   7.855 -0.3741  0.9258 -1.8759
   14SAPS  H13Y 1846   2.377   4.035   7.980  0.4409  1.2149  0.0443
   14SAPS  C314 1847   2.556   3.935   7.921  0.1390  0.1296 -0.4968
   14SAPS  H14X 1848   2.628   4.015   7.943  0.0701  0.7929 -2.4511
   14SAPS  H14Y 1849   2.597   3.880   7.833  2.7343  0.5769  0.3763
   14SAPS  C315 1850   2.547   3.848   8.050  0.6006 -0.2379 -0.1530
   14SAPS  H15X 1851   2.455   3.788   8.030  1.3118 -2.5525  2.7837
   14SAPS  H15Y 1852   2.531   3.903   8.145  0.2379 -1.2675  0.4018
   14SAPS  C316 1853   2.649   3.739   8.078 -0.0659  0.0786 -0.1205
   14SAPS  H16X 1854   2.744   3.796   8.081 -0.8394  1.3600  0.8782
   14SAPS  H16Y 1855   2.661   3.662   7.999 -0.3789  1.0443 -1.1322
   14SAPS  C317 1856   2.634   3.666   8.211 -0.4303 -0.1518 -0.4766
   14SAPS  H17X 1857   2.688   3.569   8.204  0.4441  0.2978 -0.1551
   14SAPS  H17Y 1858   2.533   3.641   8.248  0.2991  1.9509  3.4676
   14SAPS  C318 1859   2.701   3.750   8.330  0.3538 -0.6611  0.4826
   14SAPS  H18X 1860   2.801   3.791   8.303  0.2118  0.0163  0.9655
   14SAPS  H18Y 1861   2.706   3.675   8.412 -1.0878  0.4043  1.6099
   14SAPS  H18Z 1862   2.635   3.836   8.352 -0.1561 -0.9802  0.2204
   15SAPS     N 1863   0.742   4.557   5.827  0.0917 -0.2254  0.7080
   15SAPS   HN1 1864   0.690   4.475   5.865  0.4545 -1.0116 -0.4206
   15SAPS   HN2 1865   0.808   4.501   5.769 -0.0724 -0.5955  0.8702
   15SAPS   HN3 1866   0.793   4.604   5.904 -1.7899 -3.5273  4.3123
   15SAPS   C12 1867   0.645   4.642   5.755  0.1980  0.3788 -0.9080
   15SAPS  H12A 1868   0.705   4.702   5.688  4.8110 -3.0871 -0.3760
   15SAPS   C13 1869   0.544   4.559   5.672  0.4170 -0.2118  0.2746
   15SAPS  O13A 1870   0.558   4.441   5.633 -0.1446 -0.1568 -1.1000
   15SAPS  O13B 1871   0.456   4.630   5.611  0.1467 -0.0041  0.2779
   15SAPS   C11 1872   0.570   4.734   5.865  0.1983  0.4141 -0.3561
   15SAPS  H11A 1873   0.520   4.663   5.935  2.5619 -1.0598 -0.0190
   15SAPS  H11B 1874   0.493   4.798   5.818 -0.6893  0.9555  1.7300
   15SAPS     P 1875   0.689   4.960   5.888  0.1699  0.3175  0.0190
   15SAPS   O13 1876   0.819   5.017   5.928  0.1694 -0.1588 -0.0734
   15SAPS   O14 1877   0.665   4.972   5.742 -0.4901  0.3218  0.1839
   15SAPS   O12 1878   0.666   4.815   5.935  0.4701  0.4397 -0.1547
   15SAPS   O11 1879   0.578   5.028   5.970  0.0269 -0.1007  1.0165
   15SAPS    C1 1880   0.537   4.999   6.102  0.5390  0.1083 -0.0610
   15SAPS    HA 1881   0.433   5.036   6.113  1.3765  2.0880  1.9754
   15SAPS    HB 1882   0.534   4.889   6.122 -1.7264 -0.0900 -1.1489
   15SAPS    C2 1883   0.614   5.082   6.211  0.1639  0.8516 -0.4384
   15SAPS    HS 1884   0.719   5.046   6.208 -0.6740 -1.7060 -1.9162
   15SAPS   O21 1885   0.547   5.069   6.339 -0.3566 -0.0165  0.5267
   15SAPS   C21 1886   0.594   4.971   6.404 -0.7816 -0.4804  0.2582
   15SAPS   O22 1887   0.689   4.900   6.376  0.4817 -0.5337  0.2821
   15SAPS   C22 1888   0.517   4.959   6.536  0.9330  0.1887 -0.4453
   15SAPS   H2R 1889   0.541   4.860   6.579 -1.4483 -0.5057 -0.5776
   15SAPS   H2S 1890   0.550   5.042   6.603  2.3904 -1.6996  1.2720
   15SAPS    C3 1891   0.616   5.228   6.173 -0.2297  0.7015  0.1813
   15SAPS    HX 1892   0.513   5.270   6.164 -0.6654 -0.4690 -0.4901
   15SAPS    HY 1893   0.663   5.237   6.073 -1.5071 -0.9386 -0.6075
   15SAPS   O31 1894   0.709   5.300   6.253 -0.3645  0.6376 -0.1886
   15SAPS   C31 1895   0.670   5.386   6.350  1.3011 -0.0977 -0.3340
   15SAPS   O32 1896   0.554   5.413   6.370  0.3414  0.2368  0.1483
   15SAPS   C32 1897   0.795   5.405   6.436 -0.1028  0.2858 -0.2488
   15SAPS   H2X 1898   0.792   5.503   6.487  1.3325  0.9595 -1.3764
   15SAPS   H2Y 1899   0.877   5.414   6.361  0.8968 -0.2848  0.7394
   15SAPS   C23 1900   0.366   4.955   6.505  0.0470 -0.1448 -0.4660
   15SAPS   H3R 1901   0.343   5.043   6.442  0.0998 -0.6440 -1.1896
   15SAPS   H3S 1902   0.299   4.960   6.593  0.5367  0.2457 -0.1074
   15SAPS   C24 1903   0.321   4.827   6.438 -0.2166 -0.0562 -1.0585
   15SAPS   H4R 1904   0.354   4.817   6.332  1.0020  1.5532 -0.8796
   15SAPS   H4S 1905   0.211   4.822   6.426 -0.5056  1.8543  0.4123
   15SAPS   C25 1906   0.359   4.693   6.501 -0.2558  0.5608  1.1034
   15SAPS   H5R 1907   0.401   4.616   6.435 -0.9894  1.0975 -0.0183
   15SAPS   C26 1908   0.337   4.662   6.626  0.1370 -0.2488 -0.4062
   15SAPS   H6R 1909   0.355   4.558   6.658 -1.3430 -0.4382 -0.1411
   15SAPS   C27 1910   0.297   4.746   6.749  0.3001 -0.1801  1.0170
   15SAPS   H7R 1911   0.367   4.830   6.770  2.5202 -2.1291  1.7730
   15SAPS   H7S 1912   0.322   4.680   6.834 -1.4225 -2.0858  0.1204
   15SAPS   C28 1913   0.156   4.782   6.737  0.1462  0.0267  0.1775
   15SAPS   H8R 1914   0.129   4.821   6.637  0.7242 -0.7359 -0.2884
   15SAPS   C29 1915   0.058   4.756   6.825  0.4077 -0.2841 -0.1553
   15SAPS   H9R 1916  -0.045   4.787   6.799 -0.4000 -3.0448 -0.6424
   15SAPS  C210 1917   0.072   4.688   6.963  0.7763  0.5872 -0.1405
   15SAPS  H10R 1918   0.162   4.623   6.968  1.3496  1.4696  2.1167
   15SAPS  H10S 1919  -0.018   4.627   6.987  1.3337 -0.1571  0.1233
   15SAPS  C211 1920   0.092   4.798   7.072  0.1212 -0.0758 -0.4723
   15SAPS  H11R 1921   0.135   4.892   7.035 -0.8658  1.5750  2.3017
   15SAPS  C212 1922   0.043   4.798   7.199 -0.7069  0.1201 -0.1125
   15SAPS  H12R 1923   0.073   4.882   7.263  1.2379  0.5026 -1.4155
   15SAPS  C213 1924  -0.030   4.679   7.255 -0.3297 -0.8679 -0.2581
   15SAPS  H13R 1925  -0.082   4.619   7.178 -0.5445 -1.4502  0.3334
   15SAPS  H13S 1926  -0.117   4.704   7.319 -0.4055 -1.9157  0.0616
   15SAPS  C214 1927   0.049   4.581   7.333  0.1567  0.0682  0.3954
   15SAPS  H14R 1928   0.063   4.487   7.276 -4.4507  0.2852 -1.5054
   15SAPS  C215 1929   0.085   4.583   7.461  0.1608 -0.5408 -0.5844
   15SAPS  H15R 1930   0.144   4.504   7.511  0.6290  0.4626  0.4904
   15SAPS  C216 1931   0.068   4.712   7.545  0.3722 -0.3408 -0.0574
   15SAPS  H16R 1932   0.052   4.801   7.481 -1.0370  0.8655  1.8669
   15SAPS  H16S 1933   0.147   4.732   7.620  0.2153  0.1120 -0.0093
   15SAPS  C217 1934  -0.068   4.675   7.612  0.3311  0.0587 -0.5716
   15SAPS  H17R 1935  -0.066   4.574   7.657  0.2850  0.3482  0.1019
   15SAPS  H17S 1936  -0.142   4.674   7.529 -1.5277  0.4415  1.0132
   15SAPS  C218 1937  -0.110   4.769   7.720  0.6053  0.3739  0.6488
   15SAPS  H18R 1938  -0.156   4.861   7.679 -1.4653 -0.8550  0.0738
   15SAPS  H18S 1939  -0.020   4.801   7.776  2.4701 -1.0443 -1.3578
   15SAPS  C219 1940  -0.196   4.707   7.837  1.0532  0.2783  0.5378
   15SAPS  H19R 1941  -0.178   4.773   7.924  1.9665  0.9382 -0.1259
   15SAPS  H19S 1942  -0.156   4.608   7.866  2.1706  0.5741  0.0484
   15SAPS  C220 1943  -0.340   4.698   7.792 -0.0635  0.3379  0.3955
   15SAPS  H20R 1944  -0.350   4.653   7.691  2.8957  2.3249 -0.9527
   15SAPS  H20S 1945  -0.388   4.797   7.778  0.5915  0.4335 -1.5382
   15SAPS  H20T 1946  -0.389   4.643   7.875  1.1736 -1.7155 -0.1857
   15SAPS   C33 1947   0.824   5.290   6.527  0.3121  0.6513 -1.0253
   15SAPS   H3X 1948   0.928   5.303   6.566  0.2045  1.6424 -1.0364
   15SAPS   H3Y 1949   0.804   5.192   6.480  1.6362  0.5438 -1.4051
   15SAPS   C34 1950   0.726   5.291   6.645 -0.0933 -0.2323  0.6703
   15SAPS   H4X 1951   0.622   5.274   6.608  0.3288  1.0221 -1.2057
   15SAPS   H4Y 1952   0.729   5.395   6.685  1.2237  0.8132 -1.9297
   15SAPS   C35 1953   0.775   5.191   6.746  0.2687  0.5576  0.1942
   15SAPS   H5X 1954   0.884   5.188   6.764  0.4292 -1.9216 -0.6803
   15SAPS   H5Y 1955   0.759   5.088   6.705  1.3649  0.3766  0.1988
   15SAPS   C36 1956   0.714   5.206   6.884 -0.3427 -0.7253  0.4030
   15SAPS   H6X 1957   0.603   5.203   6.879 -0.4386  0.7696  1.1998
   15SAPS   H6Y 1958   0.727   5.311   6.918 -0.7211 -0.3523 -0.5576
   15SAPS   C37 1959   0.771   5.100   6.978  0.9014  0.0607 -0.3264
   15SAPS   H7X 1960   0.882   5.099   6.971  0.8975  3.2393 -2.2017
   15SAPS   H7Y 1961   0.723   5.003   6.953 -1.8733  1.4054 -0.4856
   15SAPS   C38 1962   0.739   5.131   7.132 -0.2370 -0.2289 -0.1889
   15SAPS   H8X 1963   0.628   5.122   7.140 -0.2939 -1.4303 -1.7607
   15SAPS   H8Y 1964   0.773   5.235   7.146 -2.1266  0.1615  2.0624
   15SAPS   C39 1965   0.807   5.030   7.220 -0.1193  0.2202 -0.2428
   15SAPS   H9X 1966   0.912   5.030   7.183  0.4612  1.5139  1.2766
   15SAPS   H9Y 1967   0.768   4.927   7.222 -0.6303  0.3795 -1.3181
   15SAPS  C310 1968   0.800   5.078   7.370 -0.0142  0.6944  0.7714
   15SAPS  H10X 1969   0.701   5.046   7.408 -0.5327  0.8342 -0.4017
   15SAPS  H10Y 1970   0.807   5.189   7.375  0.6181  0.6854  0.2260
   15SAPS  C311 1971   0.901   5.007   7.465  0.1305 -0.4413  1.0848
   15SAPS  H11X 1972   1.002   5.008   7.419 -1.7015  0.1719 -3.4543
   15SAPS  H11Y 1973   0.866   4.902   7.474 -0.3630 -0.3893 -0.0959
   15SAPS  C312 1974   0.906   5.075   7.601  0.1059  0.2343 -0.3826
   15SAPS  H12X 1975   0.911   5.185   7.587 -0.4276  0.8018  3.0057
   15SAPS  H12Y 1976   0.995   5.044   7.661  0.8853  0.1039 -1.5644
   15SAPS  C313 1977   0.791   5.037   7.695  0.4502  1.0063 -0.3270
   15SAPS  H13X 1978   0.780   4.927   7.690 -1.1611  1.1407 -0.4142
   15SAPS  H13Y 1979   0.702   5.080   7.644  0.1260  0.4431 -0.2483
   15SAPS  C314 1980   0.807   5.075   7.842 -0.4704 -0.1945 -0.2303
   15SAPS  H14X 1981   0.783   5.183   7.848  0.0273  0.0747 -2.2840
   15SAPS  H14Y 1982   0.912   5.060   7.875 -0.7060 -3.3568 -0.6446
   15SAPS  C315 1983   0.704   5.011   7.935 -0.5300  0.2417  0.0087
   15SAPS  H15X 1984   0.715   4.901   7.927  0.3693  0.3532 -0.4181
   15SAPS  H15Y 1985   0.612   5.040   7.880  1.1757  3.1993 -1.5814
   15SAPS  C316 1986   0.706   5.054   8.082 -0.2018 -0.1606  0.6199
   15SAPS  H16X 1987   0.725   5.163   8.082 -0.7116 -0.0143 -1.6376
   15SAPS  H16Y 1988   0.791   5.018   8.144  0.6543  0.8534  0.0630
   15SAPS  C317 1989   0.588   5.028   8.169  0.2737  0.1024  1.3357
   15SAPS  H17X 1990   0.499   5.015   8.104  0.8784  1.0492  0.2880
   15SAPS  H17Y 1991   0.578   5.125   8.220 -2.2611  1.0340 -0.7251
   15SAPS  C318 1992   0.600   4.904   8.256 -0.1315 -0.3413  0.1232
   15SAPS  H18X 1993   0.601   4.810   8.197  0.9537 -0.7444  0.7506
   15SAPS  H18Y 1994   0.507   4.891   8.316 -1.7071  0.1896 -2.0736
   15SAPS  H18Z 1995   0.688   4.914   8.322 -1.4886 -1.2748  2.1603
   16SAPS     N 1996   0.883   6.015   5.935  0.0959 -0.3382  0.4789
   16SAPS   HN1 1997   0.835   6.090   5.880  1.0234  0.0368  0.1469
   16SAPS   HN2 1998   0.841   5.924   5.906 -1.4124  0.8242 -1.2584
   16SAPS   HN3 1999   0.864   6.026   6.036 -1.3876  2.0665  0.0145
   16SAPS   C12 2000   1.029   6.018   5.900 -0.0337 -0.4744  0.2509
   16SAPS  H12A 2001   1.080   5.960   5.976 -0.6567  0.9494  1.8056
   16SAPS   C13 2002   1.055   5.943   5.769  0.4712  0.0807  0.5293
   16SAPS  O13A 2003   0.956   5.907   5.700 -0.2025  0.0347 -0.5324
   16SAPS  O13B 2004   1.169   5.929   5.717 -0.3383  0.0085 -0.6245
   16SAPS   C11 2005   1.091   6.161   5.892 -0.0633  0.2127 -0.4417
   16SAPS  H11A 2006   1.046   6.216   5.806 -1.3352 -0.1907 -0.0595
   16SAPS  H11B 2007   1.196   6.139   5.865 -0.7107 -3.6273 -0.3103
   16SAPS     P 2008   1.028   6.389   6.019 -0.1710 -0.0927  0.2117
   16SAPS   O13 2009   1.127   6.448   6.105 -1.0782  0.0656 -0.5820
   16SAPS   O14 2010   1.005   6.438   5.880 -0.0161  0.7271 -0.5132
   16SAPS   O12 2011   1.066   6.232   6.021  0.3917 -0.3240  0.2877
   16SAPS   O11 2012   0.889   6.412   6.092  0.2273  0.2366  0.4176
   16SAPS    C1 2013   0.819   6.311   6.164  0.0006  0.4052  0.1394
   16SAPS    HA 2014   0.711   6.330   6.177 -0.1098  1.6184 -2.1193
   16SAPS    HB 2015   0.812   6.220   6.100  1.0829  0.2468  0.2262
   16SAPS    C2 2016   0.892   6.280   6.303 -0.0790  0.5078 -0.3037
   16SAPS    HS 2017   0.996   6.249   6.281 -0.0168 -0.3245  1.0329
   16SAPS   O21 2018   0.823   6.179   6.382 -0.1930  0.3517  0.3782
   16SAPS   C21 2019   0.826   6.058   6.320 -0.5494  0.1642  0.1215
   16SAPS   O22 2020   0.903   6.026   6.234  0.3475  0.1675  0.0884
   16SAPS   C22 2021   0.735   5.961   6.397 -0.4343 -0.5653 -0.0962
   16SAPS   H2R 2022   0.697   5.999   6.494 -3.9031 -1.1635 -1.0890
   16SAPS   H2S 2023   0.638   5.964   6.343 -1.0674 -0.5880  1.0187
   16SAPS    C3 2024   0.905   6.404   6.392  0.4184  0.4507  0.5614
   16SAPS    HX 2025   0.802   6.441   6.412  0.4130  0.4388  0.5563
   16SAPS    HY 2026   0.968   6.477   6.336  0.5339 -0.1128 -0.0588
   16SAPS   O31 2027   0.967   6.381   6.515  0.2747  0.0692  0.2680
   16SAPS   C31 2028   1.034   6.480   6.571  0.0153  0.0567 -0.1547
   16SAPS   O32 2029   1.081   6.574   6.513  0.5295 -0.0229 -0.1820
   16SAPS   C32 2030   1.070   6.450   6.717 -0.1124 -0.6650 -0.0458
   16SAPS   H2X 2031   1.163   6.507   6.739  0.2775 -1.1411 -0.4502
   16SAPS   H2Y 2032   1.106   6.345   6.716  0.4421 -0.4959  0.6920
   16SAPS   C23 2033   0.792   5.815   6.404  0.0955  0.0195 -0.4759
   16SAPS   H3R 2034   0.851   5.781   6.317 -1.0728 -0.8714 -0.9501
   16SAPS   H3S 2035   0.702   5.751   6.410 -0.0070 -0.1130 -2.6964
   16SAPS   C24 2036   0.884   5.793   6.521  0.2062 -0.0175 -0.2958
   16SAPS   H4R 2037   0.948   5.880   6.546 -1.3117  0.4425  2.3864
   16SAPS   H4S 2038   0.943   5.700   6.505  0.1215 -0.1604  0.2223
   16SAPS   C25 2039   0.807   5.779   6.652  0.6636  0.9259  0.1846
   16SAPS   H5R 2040   0.754   5.683   6.659 -0.2613  1.4983  1.3452
   16SAPS   C26 2041   0.787   5.870   6.745 -0.7116  0.0229  0.2671
   16SAPS   H6R 2042   0.720   5.845   6.828 -1.0676  1.2727  0.3796
   16SAPS   C27 2043   0.841   6.011   6.761  0.0172 -0.4732  0.5162
   16SAPS   H7R 2044   0.758   6.076   6.795 -1.1725 -0.9695 -1.2827
   16SAPS   H7S 2045   0.866   6.060   6.664  0.8787  0.4612  1.2019
   16SAPS   C28 2046   0.960   6.028   6.858  0.0853 -0.2630 -1.1429
   16SAPS   H8R 2047   1.038   6.095   6.818 -0.4190  1.2175  0.2581
   16SAPS   C29 2048   0.976   6.000   6.993 -0.2216 -0.5558 -0.1555
   16SAPS   H9R 2049   1.070   6.026   7.043 -0.2890  1.5650 -0.9856
   16SAPS  C210 2050   0.879   5.924   7.080  0.7716  0.6317 -0.1684
   16SAPS  H10R 2051   0.943   5.846   7.125 -0.4279  1.6237  3.5987
   16SAPS  H10S 2052   0.797   5.873   7.025  0.0350 -1.9597  3.0125
   16SAPS  C211 2053   0.799   6.002   7.178 -0.0173 -0.3254 -0.3209
   16SAPS  H11R 2054   0.752   6.093   7.138 -0.3561  1.2282  3.1785
   16SAPS  C212 2055   0.781   5.969   7.310 -0.4763  0.2207  0.5024
   16SAPS  H12R 2056   0.712   6.039   7.360 -1.1342  0.9044 -1.2762
   16SAPS  C213 2057   0.847   5.861   7.397  0.3262 -0.5396  0.3849
   16SAPS  H13R 2058   0.942   5.827   7.350  0.4700 -1.0332  1.0218
   16SAPS  H13S 2059   0.775   5.776   7.395 -0.1993 -0.1099  0.6330
   16SAPS  C214 2060   0.856   5.900   7.541 -0.3836  0.2138  0.3719
   16SAPS  H14R 2061   0.759   5.903   7.593 -0.5336 -1.5861  0.2407
   16SAPS  C215 2062   0.956   5.943   7.615 -0.9459 -0.2996 -0.3710
   16SAPS  H15R 2063   0.938   5.972   7.719 -1.3531  0.4368 -0.6395
   16SAPS  C216 2064   1.105   5.949   7.582 -0.1551 -0.2400 -0.2323
   16SAPS  H16R 2065   1.131   5.881   7.499  0.0596 -0.1350 -0.2514
   16SAPS  H16S 2066   1.170   5.910   7.664  0.3881 -1.1796 -1.0941
   16SAPS  C217 2067   1.134   6.093   7.542 -0.3928 -0.1010 -0.1460
   16SAPS  H17R 2068   1.130   6.159   7.631 -2.8597  1.5396 -1.3669
   16SAPS  H17S 2069   1.072   6.131   7.458  0.0212  3.0905  0.8416
   16SAPS  C218 2070   1.282   6.099   7.498  0.0347  0.3632 -0.4932
   16SAPS  H18R 2071   1.355   6.059   7.572 -0.9094 -1.8899 -0.7029
   16SAPS  H18S 2072   1.309   6.202   7.466  2.1194  0.8722  2.4661
   16SAPS  C219 2073   1.317   6.025   7.366  0.4884 -0.1079  0.0052
   16SAPS  H19R 2074   1.306   5.914   7.371  0.2425 -0.1461 -1.2209
   16SAPS  H19S 2075   1.421   6.048   7.337  0.5873  0.4371  0.7616
   16SAPS  C220 2076   1.230   6.063   7.245 -0.1240  0.0939  0.1391
   16SAPS  H20R 2077   1.273   6.015   7.154  0.3875 -2.2931  1.5637
   16SAPS  H20S 2078   1.222   6.173   7.226  1.5804  0.0069 -1.3812
   16SAPS  H20T 2079   1.131   6.015   7.254  0.2211 -0.5170  0.7645
   16SAPS   C33 2080   0.964   6.480   6.821 -0.0424 -0.6783  0.4839
   16SAPS   H3X 2081   0.880   6.407   6.815 -0.5767 -0.0233 -0.1032
   16SAPS   H3Y 2082   0.906   6.571   6.797  0.8342 -0.2405 -0.0245
   16SAPS   C34 2083   1.006   6.487   6.969  0.0396  0.2334  0.6058
   16SAPS   H4X 2084   1.042   6.589   6.996 -0.1222  0.8737 -1.4620
   16SAPS   H4Y 2085   1.092   6.418   6.986  1.7808  1.0848 -3.3741
   16SAPS   C35 2086   0.894   6.439   7.059  0.1863  0.1827 -0.7520
   16SAPS   H5X 2087   0.854   6.338   7.035 -0.0621 -0.1670  1.0136
   16SAPS   H5Y 2088   0.806   6.503   7.035  0.0807  1.1904  1.9956
   16SAPS   C36 2089   0.923   6.434   7.207 -0.0876  0.1400  0.1424
   16SAPS   H6X 2090   0.965   6.532   7.236  1.8091  0.5077 -3.3162
   16SAPS   H6Y 2091   1.000   6.355   7.219 -1.5387 -1.7150 -1.8153
   16SAPS   C37 2092   0.808   6.405   7.288  0.0305  0.0424 -0.3873
   16SAPS   H7X 2093   0.761   6.314   7.245  0.4140 -0.2917 -0.1130
   16SAPS   H7Y 2094   0.734   6.487   7.284  0.0942  0.0617 -1.3654
   16SAPS   C38 2095   0.836   6.373   7.443  0.3883 -1.1777 -0.2034
   16SAPS   H8X 2096   0.897   6.458   7.481 -1.4631 -0.4262  1.2764
   16SAPS   H8Y 2097   0.901   6.283   7.448 -0.4341 -1.8104 -0.7825
   16SAPS   C39 2098   0.699   6.352   7.517 -0.8251 -0.0291 -0.2660
   16SAPS   H9X 2099   0.640   6.282   7.455 -1.6846 -0.2613  0.7696
   16SAPS   H9Y 2100   0.646   6.449   7.530  0.0239  0.3975  0.1128
   16SAPS  C310 2101   0.709   6.283   7.656 -0.0046  0.4405 -0.8631
   16SAPS  H10X 2102   0.782   6.200   7.664 -0.3892  0.1257 -0.5646
   16SAPS  H10Y 2103   0.618   6.220   7.672  0.8157 -0.2196  1.7061
   16SAPS  C311 2104   0.724   6.385   7.772 -0.3452  0.2934  0.0136
   16SAPS  H11X 2105   0.663   6.474   7.747  1.9661  1.3409 -2.3758
   16SAPS  H11Y 2106   0.829   6.420   7.784 -0.6946  1.4188 -0.1335
   16SAPS  C312 2107   0.674   6.327   7.909  0.1259  0.4090  0.1441
   16SAPS  H12X 2108   0.729   6.232   7.927  1.0435  1.1609  1.5559
   16SAPS  H12Y 2109   0.568   6.308   7.883  0.6650 -0.6054 -1.4876
   16SAPS  C313 2110   0.713   6.437   8.007 -0.3618 -0.2153 -0.4566
   16SAPS  H13X 2111   0.651   6.418   8.097 -0.3291 -0.5759 -0.5082
   16SAPS  H13Y 2112   0.698   6.538   7.964  2.0523 -0.1480 -1.2944
   16SAPS  C314 2113   0.860   6.421   8.058  0.4967 -0.3510  0.0989
   16SAPS  H14X 2114   0.935   6.440   7.979  0.6014  0.8461  0.4713
   16SAPS  H14Y 2115   0.878   6.321   8.102 -0.6898  0.4679  2.6366
   16SAPS  C315 2116   0.879   6.536   8.153  0.0683  0.2900  0.4409
   16SAPS  H15X 2117   0.790   6.562   8.215 -1.1267  1.5810 -1.7332
   16SAPS  H15Y 2118   0.894   6.628   8.094 -0.6553 -0.1795 -0.5082
   16SAPS  C316 2119   0.996   6.505   8.243  0.5634 -0.1373  0.1879
   16SAPS  H16X 2120   1.091   6.499   8.186  1.1054  1.3531  0.8849
   16SAPS  H16Y 2121   0.990   6.400   8.279 -0.0202  0.3770  1.6492
   16SAPS  C317 2122   1.020   6.610   8.352  0.3189 -0.4078 -0.1708
   16SAPS  H17X 2123   1.101   6.575   8.420  0.3886 -1.6944 -0.9001
   16SAPS  H17Y 2124   0.924   6.628   8.406 -0.6374 -2.4738 -1.0591
   16SAPS  C318 2125   1.073   6.746   8.292  0.1063  0.5624 -0.2913
   16SAPS  H18X 2126   1.168   6.734   8.235 -0.7394  2.3800 -2.2062
   16SAPS  H18Y 2127   1.087   6.823   8.371  2.5192  0.6830 -0.7634
   16SAPS  H18Z 2128   1.008   6.792   8.214 -1.4803 -1.7088 -0.4089
   17SAPC     N 2129   1.245   1.065  10.409  0.9751 -0.3781  0.7906
   17SAPC   C12 2130   1.356   1.032  10.498  0.1582  0.6509  0.7498
   17SAPC  H12A 2131   1.367   1.103  10.578 -1.1227  2.8008 -0.8857
   17SAPC  H12B 2132   1.448   1.046  10.443 -0.7523  2.7840 -0.3393
   17SAPC   C13 2133   1.125   1.083  10.502  0.2086  0.8119 -0.1539
   17SAPC  H13A 2134   1.033   1.088  10.445  0.4547 -0.9914 -0.7971
   17SAPC  H13B 2135   1.099   0.999  10.566 -2.1041  1.4636 -0.1568
   17SAPC  H13C 2136   1.129   1.172  10.562 -1.8662  2.2782 -2.0240
   17SAPC   C14 2137   1.271   1.201  10.347 -0.2734 -0.0099  0.4065
   17SAPC  H14A 2138   1.349   1.195  10.273  0.7689  0.3721  1.4614
   17SAPC  H14B 2139   1.181   1.227  10.292 -0.9557  1.7320  2.2269
   17SAPC  H14C 2140   1.280   1.283  10.417  0.5693  0.8054 -0.6188
   17SAPC   C15 2141   1.213   0.966  10.302 -0.1548  0.2594  0.6893
   17SAPC  H15A 2142   1.302   0.921  10.261 -0.6476  0.0626 -0.1852
   17SAPC  H15B 2143   1.164   0.882  10.350 -0.6566  1.1985  1.8791
   17SAPC  H15C 2144   1.143   1.006  10.229 -0.7609 -0.4894  0.8464
   17SAPC   C11 2145   1.356   0.889  10.566  0.2449 -1.0411  0.2378
   17SAPC  H11A 2146   1.452   0.870  10.620  0.8360  1.0902  0.0182
   17SAPC  H11B 2147   1.345   0.818  10.481  1.0949  0.8601 -1.5509
   17SAPC     P 2148   1.148   0.752  10.673 -0.4767 -0.2391  0.0509
   17SAPC   O13 2149   1.157   0.672  10.553  0.0709 -0.0462 -0.2276
   17SAPC   O14 2150   1.183   0.682  10.796  0.4225 -0.2754 -0.5838
   17SAPC   O12 2151   1.244   0.871  10.652  0.2308  0.2275  0.2074
   17SAPC   O11 2152   1.008   0.820  10.675  0.3652 -0.2307 -0.8876
   17SAPC    C1 2153   0.892   0.763  10.617  0.0579  0.3144 -0.3281
   17SAPC    HA 2154   0.903   0.655  10.593  2.0637 -0.0491  1.8747
   17SAPC    HB 2155   0.824   0.752  10.704  0.7355 -0.2607  0.1407
   17SAPC    C2 2156   0.823   0.852  10.504  0.1668 -0.7073 -0.5387
   17SAPC    HS 2157   0.898   0.866  10.424  0.8756  2.0381  0.4975
   17SAPC   O21 2158   0.796   0.983  10.570 -0.0070  0.0590 -0.5850
   17SAPC   C21 2159   0.783   1.086  10.484  0.8458  0.1966 -0.4937
   17SAPC   O22 2160   0.791   1.074  10.363 -0.2341 -0.5218 -0.1943
   17SAPC   C22 2161   0.752   1.219  10.550 -0.6960  0.3255 -0.0407
   17SAPC   H2R 2162   0.645   1.225  10.578 -0.9887 -1.0468 -0.7610
   17SAPC   H2S 2163   0.818   1.232  10.638  0.4872 -0.0849 -0.8445
   17SAPC    C3 2164   0.681   0.778  10.475  0.0660  0.4447  0.4601
   17SAPC    HX 2165   0.622   0.787  10.569 -0.1530  1.0741  0.2714
   17SAPC    HY 2166   0.715   0.676  10.449 -4.1346 -0.7178 -1.3435
   17SAPC   O31 2167   0.627   0.830  10.352  0.0528  0.3824  0.2214
   17SAPC   C31 2168   0.503   0.867  10.357 -0.0917 -0.4474 -0.0416
   17SAPC   O32 2169   0.433   0.863  10.453 -0.4900 -0.2978 -0.8211
   17SAPC   C32 2170   0.439   0.901  10.215 -0.1874 -0.3542 -0.4376
   17SAPC   H2X 2171   0.503   0.839  10.148 -0.0208 -1.6848  0.9113
   17SAPC   H2Y 2172   0.442   1.012  10.206 -2.9786 -0.2951 -1.7621
   17SAPC   C23 2173   0.795   1.334  10.453 -0.2210 -0.5111  0.6717
   17SAPC   H3R 2174   0.896   1.309  10.416 -0.0383 -1.0478  1.5134
   17SAPC   H3S 2175   0.807   1.423  10.518 -0.7792 -0.0094  0.1122
   17SAPC   C24 2176   0.700   1.361  10.336 -0.0891  0.2180 -0.2686
   17SAPC   H4R 2177   0.675   1.264  10.289  0.5724  0.1992 -0.5972
   17SAPC   H4S 2178   0.763   1.404  10.255  0.6529 -0.4218 -0.0345
   17SAPC   C25 2179   0.575   1.439  10.358  0.1561 -0.0875 -0.9289
   17SAPC   H5R 2180   0.588   1.528  10.421  2.0091 -0.8027 -0.2326
   17SAPC   C26 2181   0.455   1.409  10.316 -0.9684 -0.5647  0.0672
   17SAPC   H6R 2182   0.373   1.473  10.353 -0.1922 -0.8628  2.4441
   17SAPC   C27 2183   0.407   1.297  10.225 -0.4261  0.6809  0.5797
   17SAPC   H7R 2184   0.355   1.214  10.277 -0.0361  1.1534  1.7489
   17SAPC   H7S 2185   0.491   1.232  10.190 -1.4817 -0.3559 -0.1170
   17SAPC   C28 2186   0.317   1.332  10.107 -0.2964  0.1943  0.4944
   17SAPC   H8R 2187   0.225   1.271  10.103  0.8096 -1.5110 -0.6352
   17SAPC   C29 2188   0.351   1.422  10.012  0.1457 -0.0466 -0.2401
   17SAPC   H9R 2189   0.276   1.442   9.934 -1.8526  1.7315  1.9385
   17SAPC  C210 2190   0.478   1.503  10.002  0.7300  0.9371 -0.1056
   17SAPC  H10R 2191   0.509   1.515   9.896 -0.5196  1.6142 -0.4158
   17SAPC  H10S 2192   0.561   1.455  10.058 -0.2021 -1.3425 -0.5676
   17SAPC  C211 2193   0.450   1.641  10.053  0.1355 -0.5297 -0.0652
   17SAPC  H11R 2194   0.422   1.658  10.158  0.2142  2.1934 -0.4135
   17SAPC  C212 2195   0.462   1.759   9.984  0.2664  0.2680 -0.3409
   17SAPC  H12R 2196   0.430   1.852  10.032 -1.5063 -0.9102  0.8540
   17SAPC  C213 2197   0.499   1.763   9.831  0.0553  0.1028 -0.5673
   17SAPC  H13R 2198   0.586   1.696   9.818  0.7944 -0.2221  4.2222
   17SAPC  H13S 2199   0.541   1.861   9.800  2.2129 -1.0398 -1.4440
   17SAPC  C214 2200   0.403   1.719   9.729  0.0736  0.1181 -0.5732
   17SAPC  H14R 2201   0.320   1.654   9.759  0.0372 -0.7083 -2.3036
   17SAPC  C215 2202   0.412   1.736   9.594  0.1731 -0.6456 -0.3061
   17SAPC  H15R 2203   0.338   1.682   9.533  0.1482 -1.1162  0.1322
   17SAPC  C216 2204   0.521   1.792   9.514 -0.0244  0.0672  0.3233
   17SAPC  H16R 2205   0.614   1.739   9.545 -0.4324  0.3105  2.0898
   17SAPC  H16S 2206   0.540   1.899   9.537  0.2584  0.1553 -0.2988
   17SAPC  C217 2207   0.499   1.786   9.359 -0.4068 -0.2202  0.1820
   17SAPC  H17R 2208   0.412   1.848   9.328 -0.2700  0.1732  0.5818
   17SAPC  H17S 2209   0.470   1.687   9.318 -1.7584  0.6026 -0.9384
   17SAPC  C218 2210   0.632   1.820   9.283 -0.3730 -0.0896  0.2403
   17SAPC  H18R 2211   0.696   1.734   9.314 -2.1620 -0.5999  2.9355
   17SAPC  H18S 2212   0.654   1.917   9.331 -2.8377 -1.2639  4.1831
   17SAPC  C219 2213   0.611   1.837   9.133 -0.5080 -0.7061 -0.1276
   17SAPC  H19R 2214   0.704   1.878   9.088  0.8895 -1.8102  1.6370
   17SAPC  H19S 2215   0.525   1.906   9.119 -1.6052 -1.2343  3.2419
   17SAPC  C220 2216   0.562   1.713   9.055  0.0224 -0.1032  0.1340
   17SAPC  H20R 2217   0.456   1.696   9.082  0.2761  1.7247  2.6174
   17SAPC  H20S 2218   0.624   1.623   9.077  0.9229  0.3023 -0.6588
   17SAPC  H20T 2219   0.557   1.735   8.947  0.8767  0.4623  0.2016
   17SAPC   C33 2220   0.297   0.852  10.197  0.2341 -0.3453 -0.4158
   17SAPC   H3X 2221   0.231   0.902  10.271 -0.3699 -0.5114 -0.8346
   17SAPC   H3Y 2222   0.293   0.744  10.221  2.0757 -0.2359  0.5959
   17SAPC   C34 2223   0.230   0.868  10.055  0.9066 -0.2194 -0.5191
   17SAPC   H4X 2224   0.248   0.971  10.017  1.5190  0.4267  1.3659
   17SAPC   H4Y 2225   0.122   0.845  10.053  0.5929  1.0422 -3.9311
   17SAPC   C35 2226   0.286   0.771   9.955 -0.0925  0.3027  0.4925
   17SAPC   H5X 2227   0.244   0.671   9.980 -0.6964 -0.0656 -1.8206
   17SAPC   H5Y 2228   0.396   0.764   9.939 -0.3452  0.5124 -1.5660
   17SAPC   C36 2229   0.237   0.793   9.807  0.2585 -0.5434 -0.9364
   17SAPC   H6X 2230   0.278   0.890   9.772  1.1082 -0.2710  0.7364
   17SAPC   H6Y 2231   0.128   0.813   9.809  0.5161  0.9658  0.5158
   17SAPC   C37 2232   0.283   0.683   9.716 -0.7837 -0.5402 -0.5844
   17SAPC   H7X 2233   0.223   0.591   9.735 -0.9573 -0.4451 -0.6599
   17SAPC   H7Y 2234   0.393   0.677   9.724 -0.7201  1.5533  0.8141
   17SAPC   C38 2235   0.257   0.738   9.566  0.2516  0.9269  0.5646
   17SAPC   H8X 2236   0.310   0.835   9.559  0.9384  0.9216  4.1731
   17SAPC   H8Y 2237   0.148   0.761   9.555 -0.0053  0.0440  1.1166
   17SAPC   C39 2238   0.305   0.643   9.458  0.2061 -0.5787  0.8261
   17SAPC   H9X 2239   0.268   0.539   9.472 -0.0789 -0.6522 -0.4135
   17SAPC   H9Y 2240   0.415   0.641   9.474  0.2524  2.0977  1.3320
   17SAPC  C310 2241   0.267   0.688   9.318 -0.0818 -0.6180 -0.3481
   17SAPC  H10X 2242   0.297   0.794   9.309  0.7145 -0.9308 -1.7329
   17SAPC  H10Y 2243   0.157   0.681   9.311 -0.1505  0.3445 -0.3331
   17SAPC  C311 2244   0.340   0.620   9.207 -0.1157 -0.2463  0.5953
   17SAPC  H11X 2245   0.352   0.509   9.209  1.4601 -0.1421 -0.9841
   17SAPC  H11Y 2246   0.443   0.660   9.214 -0.9739  1.8530  2.4452
   17SAPC  C312 2247   0.284   0.657   9.061 -0.0286 -0.1462  0.4240
   17SAPC  H12X 2248   0.269   0.767   9.063  0.7443 -0.0354  0.4086
   17SAPC  H12Y 2249   0.185   0.607   9.052 -0.3087  0.6199 -1.1244
   17SAPC  C313 2250   0.386   0.620   8.960  0.2137 -0.2692 -1.1335
   17SAPC  H13X 2251   0.395   0.509   8.970  0.5776 -0.2881 -1.6099
   17SAPC  H13Y 2252   0.488   0.663   8.971  0.4208 -1.1731  0.8087
   17SAPC  C314 2253   0.345   0.624   8.809  0.3127  0.1961  0.1724
   17SAPC  H14X 2254   0.273   0.705   8.787  0.1136 -0.2739 -1.0570
   17SAPC  H14Y 2255   0.294   0.527   8.790  2.9698 -1.0443 -1.1501
   17SAPC  C315 2256   0.467   0.638   8.713  0.2923 -0.0857  0.5730
   17SAPC  H15X 2257   0.532   0.548   8.714 -1.2039 -1.2539 -1.0519
   17SAPC  H15Y 2258   0.517   0.727   8.757 -1.8156  2.3285 -1.6193
   17SAPC  C316 2259   0.434   0.689   8.570 -0.2125 -0.1003 -0.0151
   17SAPC  H16X 2260   0.531   0.705   8.518  0.0490  0.1073  0.5267
   17SAPC  H16Y 2261   0.393   0.793   8.569  1.7655  0.7854 -2.9292
   17SAPC  C317 2262   0.350   0.597   8.483 -0.3412 -0.0018 -0.1270
   17SAPC  H17X 2263   0.354   0.646   8.383 -3.0695  1.9702  0.6176
   17SAPC  H17Y 2264   0.244   0.597   8.514 -1.3043 -0.1617 -3.0819
   17SAPC  C318 2265   0.397   0.455   8.476  0.0071 -0.1146  0.0641
   17SAPC  H18X 2266   0.374   0.424   8.371  0.9106 -0.6720  0.0237
   17SAPC  H18Y 2267   0.506   0.456   8.495 -0.0749  0.8680  0.4963
   17SAPC  H18Z 2268   0.335   0.397   8.548 -1.5540  2.1010  0.6152
   18SAPC     N 2269   0.716   0.365  11.066 -0.3698 -0.3939  0.4311
   18SAPC   C12 2270   0.647   0.279  10.959 -1.0258 -0.3752 -0.1658
   18SAPC  H12A 2271   0.576   0.227  11.022 -0.8431 -0.2733  0.1244
   18SAPC  H12B 2272   0.713   0.204  10.917 -0.6506  0.0490 -0.3333
   18SAPC   C13 2273   0.824   0.289  11.140  0.5705 -0.2372 -0.3948
   18SAPC  H13A 2274   0.878   0.355  11.206 -0.0643 -0.4761  0.3822
   18SAPC  H13B 2275   0.786   0.193  11.169  2.5287 -1.8743 -2.7816
   18SAPC  H13C 2276   0.890   0.272  11.057  0.2893  1.4946 -1.0339
   18SAPC   C14 2277   0.793   0.480  11.009  0.9634 -0.0223  0.3228
   18SAPC  H14A 2278   0.719   0.545  10.965  0.2192 -1.0519 -0.0019
   18SAPC  H14B 2279   0.843   0.536  11.086 -0.2133  2.2964 -0.5010
   18SAPC  H14C 2280   0.854   0.455  10.923 -2.4667 -0.5447 -2.2059
   18SAPC   C15 2281   0.613   0.406  11.164 -0.2392 -0.5034  0.1044
   18SAPC  H15A 2282   0.591   0.322  11.228 -0.7804  0.2614  0.9515
   18SAPC  H15B 2283   0.656   0.489  11.218  1.5348  0.8065 -3.0465
   18SAPC  H15C 2284   0.520   0.442  11.123 -0.4693 -0.1548  0.9209
   18SAPC   C11 2285   0.573   0.351  10.844 -0.3949  0.1694 -0.6011
   18SAPC  H11A 2286   0.514   0.429  10.897  0.4659  1.9963 -2.1903
   18SAPC  H11B 2287   0.503   0.286  10.788 -2.3220  1.7335 -0.1332
   18SAPC     P 2288   0.724   0.327  10.630 -0.4087 -0.6229 -0.3671
   18SAPC   O13 2289   0.792   0.208  10.690  0.5800 -0.6043  0.4999
   18SAPC   O14 2290   0.618   0.293  10.529 -0.0117  0.7221  0.6261
   18SAPC   O12 2291   0.665   0.412  10.746 -0.1089  0.2609 -0.1301
   18SAPC   O11 2292   0.833   0.425  10.563 -0.3375 -0.1356  0.3095
   18SAPC    C1 2293   0.973   0.393  10.544  1.2234 -0.2801 -0.5787
   18SAPC    HA 2294   1.029   0.482  10.579  0.0883 -0.9884  3.6111
   18SAPC    HB 2295   1.001   0.309  10.611 -1.1789  0.5751  1.6417
   18SAPC    C2 2296   0.995   0.353  10.398  0.3438 -0.3674 -0.4202
   18SAPC    HS 2297   0.935   0.428  10.342 -0.3709 -0.5488  0.0865
   18SAPC   O21 2298   0.950   0.219  10.366  0.5695  0.3793 -0.4330
   18SAPC   C21 2299   0.884   0.204  10.255  0.4647 -0.7821  0.5660
   18SAPC   O22 2300   0.848   0.291  10.181  0.2393 -0.7963 -0.3076
   18SAPC   C22 2301   0.897   0.062  10.213  0.2444 -0.1660  0.3354
   18SAPC   H2R 2302   1.004   0.036  10.203 -0.3052 -2.2868 -0.6863
   18SAPC   H2S 2303   0.838  -0.005  10.280 -0.9549  0.7184  0.2030
   18SAPC    C3 2304   1.146   0.364  10.364 -0.4073  0.1096 -0.7431
   18SAPC    HX 2305   1.200   0.286  10.423 -0.9053 -0.0525 -0.4954
   18SAPC    HY 2306   1.181   0.467  10.385 -3.0814  0.6633  1.5742
   18SAPC   O31 2307   1.169   0.322  10.231  0.7890  0.0326 -0.4941
   18SAPC   C31 2308   1.188   0.408  10.136 -0.6869  0.3184 -0.4051
   18SAPC   O32 2309   1.219   0.526  10.151 -0.0994  0.6556  0.2512
   18SAPC   C32 2310   1.161   0.340  10.003  0.4672  0.0438  0.6148
   18SAPC   H2X 2311   1.186   0.405   9.917  1.4278 -1.5730 -0.3777
   18SAPC   H2Y 2312   1.051   0.327   9.995  0.5961 -0.7238 -0.0040
   18SAPC   C23 2313   0.824   0.035  10.076 -0.4502  0.2590 -0.5862
   18SAPC   H3R 2314   0.864   0.105  10.000  0.4814  0.1704 -0.1900
   18SAPC   H3S 2315   0.718   0.067  10.077 -0.7391 -0.5889  1.5315
   18SAPC   C24 2316   0.822  -0.113  10.031 -0.1204  0.2671 -0.3579
   18SAPC   H4R 2317   0.756  -0.121   9.942  1.2699 -0.9822 -1.3157
   18SAPC   H4S 2318   0.782  -0.181  10.109 -0.0601  1.3053  0.6028
   18SAPC   C25 2319   0.960  -0.173   9.997  0.3308 -0.1318  0.5904
   18SAPC   H5R 2320   1.022  -0.181  10.087  1.5833 -1.9935 -0.3867
   18SAPC   C26 2321   1.007  -0.178   9.869 -0.2350  0.1005 -0.4372
   18SAPC   H6R 2322   1.110  -0.215   9.860 -0.6931 -0.8657 -2.1666
   18SAPC   C27 2323   0.935  -0.156   9.740 -0.1037 -0.0072  0.5924
   18SAPC   H7R 2324   0.881  -0.059   9.746  2.3100  1.3724  1.1116
   18SAPC   H7S 2325   0.863  -0.237   9.715  1.0957 -0.8667 -0.1352
   18SAPC   C28 2326   1.038  -0.172   9.627  1.0215 -0.2650  0.9711
   18SAPC   H8R 2327   1.062  -0.277   9.606 -0.2465 -0.4137  0.1205
   18SAPC   C29 2328   1.081  -0.074   9.547 -0.0863 -0.3750  0.4911
   18SAPC   H9R 2329   1.152  -0.083   9.464 -0.5112  2.4326 -0.3050
   18SAPC  C210 2330   1.034   0.073   9.554  0.1078 -0.6260 -0.2858
   18SAPC  H10R 2331   1.021   0.105   9.659 -0.1387  1.3538 -0.8728
   18SAPC  H10S 2332   0.929   0.089   9.521 -0.5482  0.2449  2.0464
   18SAPC  C211 2333   1.126   0.176   9.478  0.8123  0.3659 -0.2012
   18SAPC  H11R 2334   1.166   0.263   9.532 -1.7853  2.8145 -1.9296
   18SAPC  C212 2335   1.152   0.176   9.347 -0.4772 -0.0796 -0.3438
   18SAPC  H12R 2336   1.203   0.267   9.311  0.5412 -0.7440 -0.6076
   18SAPC  C213 2337   1.112   0.081   9.238  0.6275  0.4758  0.6976
   18SAPC  H13R 2338   1.051   0.140   9.166  0.8913  0.5771  0.5574
   18SAPC  H13S 2339   1.051  -0.003   9.278  0.6992 -0.8962 -1.8873
   18SAPC  C214 2340   1.230   0.020   9.168 -0.4561  0.5065 -0.1675
   18SAPC  H14R 2341   1.285  -0.052   9.232 -1.1190  2.1449  2.4186
   18SAPC  C215 2342   1.249   0.010   9.035 -0.0018 -0.1746 -0.1753
   18SAPC  H15R 2343   1.332  -0.047   8.992  0.5960 -0.6642  1.5613
   18SAPC  C216 2344   1.172   0.072   8.924 -0.3978 -0.2971  0.2702
   18SAPC  H16R 2345   1.069   0.098   8.956 -1.5775 -0.1818 -3.2191
   18SAPC  H16S 2346   1.158   0.006   8.836  0.2637  1.1226 -0.9343
   18SAPC  C217 2347   1.242   0.196   8.878  0.1620 -0.4921 -0.0803
   18SAPC  H17R 2348   1.352   0.177   8.884  0.2942  0.5794  1.7118
   18SAPC  H17S 2349   1.215   0.278   8.948 -1.6304 -0.9716 -0.1827
   18SAPC  C218 2350   1.207   0.248   8.735  0.3732 -0.6234  0.4066
   18SAPC  H18R 2351   1.241   0.181   8.653 -1.0477 -0.9463  0.0373
   18SAPC  H18S 2352   1.266   0.341   8.722  0.5949 -1.1315 -2.9610
   18SAPC  C219 2353   1.057   0.278   8.707  0.0185 -0.9724  0.2225
   18SAPC  H19R 2354   0.990   0.191   8.725  0.4089 -1.0773  1.2112
   18SAPC  H19S 2355   1.052   0.307   8.600 -0.3127 -0.5867  0.3366
   18SAPC  C220 2356   1.010   0.398   8.788 -0.4261  0.0318 -0.3231
   18SAPC  H20R 2357   1.046   0.397   8.893  0.1910  0.2364 -0.5325
   18SAPC  H20S 2358   0.899   0.389   8.780 -0.2601 -1.6612 -1.0887
   18SAPC  H20T 2359   1.049   0.494   8.748 -0.8970  0.3134 -0.1238
   18SAPC   C33 2360   1.236   0.209   9.993 -0.1153  0.2836 -0.4035
   18SAPC   H3X 2361   1.209   0.143  10.078 -4.3644 -0.8966 -2.3854
   18SAPC   H3Y 2362   1.343   0.233  10.008  0.1879 -0.9832 -0.4417
   18SAPC   C34 2363   1.217   0.142   9.860  0.2960  0.0764 -0.2420
   18SAPC   H4X 2364   1.239   0.217   9.781 -1.0937 -0.0516 -0.7844
   18SAPC   H4Y 2365   1.111   0.109   9.851 -0.3580  1.7178  0.9491
   18SAPC   C35 2366   1.301   0.017   9.841  0.4494  0.2863 -0.3254
   18SAPC   H5X 2367   1.268  -0.047   9.756  2.4273  0.0749 -0.9728
   18SAPC   H5Y 2368   1.312  -0.034   9.939  1.3492 -1.0723 -1.0910
   18SAPC   C36 2369   1.445   0.049   9.800  0.0857 -0.1168 -0.9478
   18SAPC   H6X 2370   1.490  -0.051   9.781  1.0221 -0.0042  0.5715
   18SAPC   H6Y 2371   1.497   0.110   9.877 -1.9075 -0.8624  1.0756
   18SAPC   C37 2372   1.444   0.126   9.658 -0.5254  1.1252 -0.0692
   18SAPC   H7X 2373   1.402   0.228   9.671  0.3550  1.4714  0.1650
   18SAPC   H7Y 2374   1.380   0.066   9.590  1.3515  1.0129 -1.8434
   18SAPC   C38 2375   1.580   0.124   9.577  0.3216 -0.1641  0.4551
   18SAPC   H8X 2376   1.615   0.018   9.582  1.8713  0.1890 -1.5051
   18SAPC   H8Y 2377   1.653   0.190   9.628  1.6106 -0.4064 -0.9804
   18SAPC   C39 2378   1.568   0.144   9.422 -0.2703 -0.3340  0.2930
   18SAPC   H9X 2379   1.497   0.077   9.368  0.1284  0.5812 -1.4391
   18SAPC   H9Y 2380   1.668   0.130   9.376 -0.9576 -0.2378 -1.3007
   18SAPC  C310 2381   1.527   0.291   9.381 -0.4281  0.6992 -0.0315
   18SAPC  H10X 2382   1.601   0.369   9.411 -0.2842  0.2177  0.9220
   18SAPC  H10Y 2383   1.426   0.314   9.422 -0.7327  2.3771 -1.5939
   18SAPC  C311 2384   1.503   0.294   9.229  0.4886 -0.2894 -0.4117
   18SAPC  H11X 2385   1.482   0.399   9.203  2.7410 -0.0605 -1.6286
   18SAPC  H11Y 2386   1.417   0.233   9.194  0.9532 -1.3012  0.1666
   18SAPC  C312 2387   1.634   0.263   9.154  1.1321 -0.6203  0.3615
   18SAPC  H12X 2388   1.664   0.156   9.161  0.0448 -0.8362  2.6193
   18SAPC  H12Y 2389   1.717   0.321   9.200 -0.1487  0.4769  1.3591
   18SAPC  C313 2390   1.620   0.303   9.010 -0.6995 -0.5437  0.4754
   18SAPC  H13X 2391   1.592   0.410   9.019 -1.8501 -0.6796 -0.9492
   18SAPC  H13Y 2392   1.536   0.242   8.968 -0.6447 -0.9136  0.9000
   18SAPC  C314 2393   1.752   0.274   8.936  0.3410 -0.0901  0.0077
   18SAPC  H14X 2394   1.771   0.164   8.937 -1.5309 -0.4580  1.6404
   18SAPC  H14Y 2395   1.834   0.324   8.992 -0.3200  0.1330  0.7912
   18SAPC  C315 2396   1.759   0.310   8.787 -0.3906 -0.2083  0.2632
   18SAPC  H15X 2397   1.732   0.418   8.778  0.4734 -0.0069 -0.0774
   18SAPC  H15Y 2398   1.666   0.275   8.738 -1.0417 -0.9403  1.9538
   18SAPC  C316 2399   1.884   0.279   8.697  0.0438  0.1761 -0.7457
   18SAPC  H16X 2400   1.851   0.304   8.594  3.0068  1.8669 -1.4177
   18SAPC  H16Y 2401   1.896   0.168   8.701 -2.0162 -0.0755 -0.2589
   18SAPC  C317 2402   2.013   0.349   8.741 -0.1421 -0.6137 -0.1196
   18SAPC  H17X 2403   2.046   0.307   8.838  0.7082 -1.2328 -0.6723
   18SAPC  H17Y 2404   1.986   0.456   8.757 -0.8359 -0.6793 -0.7672
   18SAPC  C318 2405   2.124   0.329   8.639 -0.4348 -0.2468 -0.1215
   18SAPC  H18X 2406   2.226   0.361   8.669 -1.4581  1.2945  1.9984
   18SAPC  H18Y 2407   2.095   0.378   8.544  0.4014 -0.6872 -0.6211
   18SAPC  H18Z 2408   2.140   0.225   8.604 -0.1996  0.4578 -2.3116
   19SAPC     N 2409   0.046   2.334  10.621  0.2331  0.2240  0.4771
   19SAPC   C12 2410   0.144   2.406  10.531 -0.3772 -0.3368  0.3889
   19SAPC  H12A 2411   0.170   2.350  10.443  0.6914  0.0508  0.4300
   19SAPC  H12B 2412   0.237   2.409  10.586 -0.8830 -3.5657  1.6012
   19SAPC   C13 2413   0.086   2.193  10.640  0.1215  0.4571  0.0480
   19SAPC  H13A 2414   0.010   2.140  10.697  1.1182  2.0201  3.0298
   19SAPC  H13B 2415   0.093   2.149  10.541  1.6021 -0.5561  0.5713
   19SAPC  H13C 2416   0.177   2.183  10.697 -0.7063 -1.1781  1.1752
   19SAPC   C14 2417   0.038   2.406  10.753  0.7959 -0.4831 -0.4052
   19SAPC  H14A 2418  -0.035   2.362  10.820  1.1283 -0.0522  0.2599
   19SAPC  H14B 2419   0.130   2.380  10.804  0.5996 -3.3787 -1.3569
   19SAPC  H14C 2420   0.009   2.510  10.747  2.6802  0.1399  0.5084
   19SAPC   C15 2421  -0.091   2.343  10.562 -0.9666  0.6715  0.0707
   19SAPC  H15A 2422  -0.085   2.332  10.455  1.7995 -2.9616  0.3786
   19SAPC  H15B 2423  -0.150   2.259  10.594  0.0505 -0.5732 -1.2019
   19SAPC  H15C 2424  -0.143   2.436  10.580  2.0353  3.4262 -3.7392
   19SAPC   C11 2425   0.122   2.548  10.484  0.2631  0.5418 -0.4148
   19SAPC  H11A 2426   0.022   2.549  10.434 -0.5723  0.3163  1.1783
   19SAPC  H11B 2427   0.196   2.570  10.405  0.7945  0.6533  0.1089
   19SAPC     P 2428   0.258   2.659  10.681  0.1869 -0.3450  0.1808
   19SAPC   O13 2429   0.229   2.671  10.827 -0.3207 -0.0320  0.5065
   19SAPC   O14 2430   0.349   2.553  10.646  0.2241  0.4380  0.3470
   19SAPC   O12 2431   0.120   2.648  10.586  0.0763  0.1466 -0.1945
   19SAPC   O11 2432   0.321   2.796  10.628 -0.6371  0.1023  0.1866
   19SAPC    C1 2433   0.256   2.906  10.565  0.2852  0.7300  1.0517
   19SAPC    HA 2434   0.146   2.895  10.577 -0.1852  0.7790 -2.2037
   19SAPC    HB 2435   0.291   2.999  10.614  0.5555 -0.4007  3.1245
   19SAPC    C2 2436   0.273   2.924  10.412 -0.8337  0.4493  0.2215
   19SAPC    HS 2437   0.207   2.849  10.363  0.6874 -1.8314  1.4774
   19SAPC   O21 2438   0.413   2.922  10.379 -0.8755 -0.4652  0.2134
   19SAPC   C21 2439   0.458   2.804  10.335 -0.3094  0.5243 -0.4526
   19SAPC   O22 2440   0.395   2.699  10.340 -0.0552 -0.2233  0.0345
   19SAPC   C22 2441   0.597   2.819  10.274  0.2806 -0.0464 -0.0119
   19SAPC   H2R 2442   0.636   2.918  10.306 -1.3469 -0.5354  4.1651
   19SAPC   H2S 2443   0.662   2.741  10.319 -1.7982 -1.6433  0.3798
   19SAPC    C3 2444   0.230   3.069  10.386 -0.0168 -0.3326  0.1369
   19SAPC    HX 2445   0.301   3.138  10.437 -1.7273  0.9224  0.9261
   19SAPC    HY 2446   0.129   3.085  10.429  0.0190  0.7382 -0.1399
   19SAPC   O31 2447   0.224   3.091  10.239 -0.2402 -0.7946 -0.2160
   19SAPC   C31 2448   0.270   3.201  10.194 -0.2624 -0.1513  0.6046
   19SAPC   O32 2449   0.308   3.300  10.258 -0.0615 -0.6388 -0.2845
   19SAPC   C32 2450   0.266   3.200  10.045  0.0393  0.7293  0.2263
   19SAPC   H2X 2451   0.161   3.209  10.010 -0.5288 -4.4057 -0.2021
   19SAPC   H2Y 2452   0.290   3.096  10.012 -4.6860 -1.0352  1.4396
   19SAPC   C23 2453   0.600   2.794  10.123 -0.5655  0.5307 -0.4069
   19SAPC   H3R 2454   0.568   2.690  10.104 -1.8745  0.9633 -0.6706
   19SAPC   H3S 2455   0.703   2.795  10.081 -0.8879  1.1992 -1.2210
   19SAPC   C24 2456   0.533   2.902  10.037  0.0579  0.3267  0.4872
   19SAPC   H4R 2457   0.586   2.920   9.941  1.1445  0.0745  1.0144
   19SAPC   H4S 2458   0.543   3.001  10.086 -0.2778 -0.7027  2.8037
   19SAPC   C25 2459   0.386   2.857  10.019 -0.8300 -0.7008 -0.2547
   19SAPC   H5R 2460   0.342   2.802  10.103 -3.1193  0.4868 -0.5919
   19SAPC   C26 2461   0.308   2.846   9.910  0.6145 -0.6529  0.3192
   19SAPC   H6R 2462   0.202   2.815   9.916  0.6639 -0.6972  0.9275
   19SAPC   C27 2463   0.344   2.896   9.773 -0.1510 -0.2399  0.1050
   19SAPC   H7R 2464   0.452   2.879   9.750 -0.1415  0.3358 -0.2878
   19SAPC   H7S 2465   0.327   3.006   9.775 -2.2727 -0.5028 -1.1523
   19SAPC   C28 2466   0.251   2.839   9.665 -0.2577 -0.9271  0.0024
   19SAPC   H8R 2467   0.196   2.747   9.690 -1.8843 -0.6173 -2.1397
   19SAPC   C29 2468   0.245   2.879   9.537  0.3190 -1.1441 -0.0702
   19SAPC   H9R 2469   0.160   2.838   9.481 -0.8172  0.5627  0.3390
   19SAPC  C210 2470   0.318   2.990   9.477 -0.2829 -0.4197  0.2723
   19SAPC  H10R 2471   0.386   3.036   9.553 -0.1053 -0.9552  0.4397
   19SAPC  H10S 2472   0.248   3.074   9.455  0.2432 -0.4561 -1.7198
   19SAPC  C211 2473   0.407   2.968   9.355 -0.1714  0.0928 -0.0001
   19SAPC  H11R 2474   0.491   2.902   9.380 -2.1333 -2.4099  0.4447
   19SAPC  C212 2475   0.393   3.030   9.235 -0.5536  0.5652 -0.8240
   19SAPC  H12R 2476   0.477   3.005   9.169  0.7583 -2.6549  1.7729
   19SAPC  C213 2477   0.289   3.122   9.181  0.3001  0.0939 -0.3183
   19SAPC  H13R 2478   0.329   3.226   9.176  1.9892 -0.4976  0.3208
   19SAPC  H13S 2479   0.205   3.123   9.254  1.0891  0.0316  0.5988
   19SAPC  C214 2480   0.231   3.078   9.054  0.2641  0.3236 -0.5232
   19SAPC  H14R 2481   0.131   3.033   9.056  0.6334 -0.5132 -0.3682
   19SAPC  C215 2482   0.297   3.074   8.937 -0.7030 -0.2116  0.4513
   19SAPC  H15R 2483   0.256   3.028   8.845  1.6170 -0.3314 -0.5846
   19SAPC  C216 2484   0.435   3.123   8.914 -0.6834 -0.8534 -0.2441
   19SAPC  H16R 2485   0.495   3.147   9.003 -0.5517 -2.3323  0.1009
   19SAPC  H16S 2486   0.433   3.216   8.853  1.1507 -1.4535 -1.2873
   19SAPC  C217 2487   0.534   3.028   8.850  0.4316  0.4152  0.3385
   19SAPC  H17R 2488   0.489   2.994   8.754  0.3576 -1.0597  0.8658
   19SAPC  H17S 2489   0.547   2.932   8.903  3.1320 -0.0190 -0.9763
   19SAPC  C218 2490   0.680   3.095   8.839  0.5840  0.5555  0.4692
   19SAPC  H18R 2491   0.751   3.011   8.829 -0.0328  0.0408  0.3663
   19SAPC  H18S 2492   0.696   3.156   8.930 -0.6941  0.5002  0.7481
   19SAPC  C219 2493   0.705   3.185   8.718  0.6198  0.5635 -0.1073
   19SAPC  H19R 2494   0.602   3.226   8.712 -1.3267 -3.3457  2.2895
   19SAPC  H19S 2495   0.724   3.132   8.623 -0.8100 -1.0936  0.4810
   19SAPC  C220 2496   0.807   3.293   8.741  0.1908 -0.2817 -0.4203
   19SAPC  H20R 2497   0.902   3.236   8.748  0.8686  0.7094 -1.4696
   19SAPC  H20S 2498   0.785   3.363   8.825 -2.2341 -0.3353 -0.9209
   19SAPC  H20T 2499   0.811   3.356   8.650 -1.3840  1.2195  0.4840
   19SAPC   C33 2500   0.348   3.316   9.983 -0.1520  0.2986  0.2587
   19SAPC   H3X 2501   0.448   3.302  10.031 -1.1790  0.4510  2.6145
   19SAPC   H3Y 2502   0.299   3.413  10.008 -0.3468  0.6045 -1.2458
   19SAPC   C34 2503   0.369   3.299   9.835  0.7953 -0.3785 -0.5232
   19SAPC   H4X 2504   0.266   3.306   9.794  0.3897  1.4138  0.7034
   19SAPC   H4Y 2505   0.409   3.197   9.813  0.7931 -1.1576  2.6420
   19SAPC   C35 2506   0.449   3.417   9.776 -0.3464  0.2269  0.7105
   19SAPC   H5X 2507   0.543   3.431   9.833  1.1746  1.2055 -1.8860
   19SAPC   H5Y 2508   0.389   3.510   9.787  0.3449  0.4804  2.7826
   19SAPC   C36 2509   0.492   3.387   9.638  0.2228 -0.3057  0.0922
   19SAPC   H6X 2510   0.393   3.363   9.593 -0.5683  0.5775  1.2854
   19SAPC   H6Y 2511   0.541   3.289   9.623 -0.6523 -0.6408 -0.7111
   19SAPC   C37 2512   0.548   3.493   9.544  0.3417 -0.3633 -0.1455
   19SAPC   H7X 2513   0.656   3.500   9.571  0.5741 -1.9259 -0.5602
   19SAPC   H7Y 2514   0.498   3.591   9.559  0.2744 -0.3873 -0.2077
   19SAPC   C38 2515   0.541   3.454   9.396  0.7300 -0.3454 -0.5196
   19SAPC   H8X 2516   0.435   3.434   9.370  0.6247 -0.9136  0.3158
   19SAPC   H8Y 2517   0.587   3.354   9.381  0.0549 -0.9565  1.2097
   19SAPC   C39 2518   0.621   3.559   9.311 -0.4067  0.5977  0.5202
   19SAPC   H9X 2519   0.731   3.548   9.316 -0.4408 -3.1393 -2.2953
   19SAPC   H9Y 2520   0.583   3.659   9.340  2.0063  1.7218 -0.0483
   19SAPC  C310 2521   0.584   3.534   9.163 -0.0893 -0.1586 -0.1173
   19SAPC  H10X 2522   0.477   3.555   9.143 -0.7493 -0.4038  2.6777
   19SAPC  H10Y 2523   0.607   3.427   9.143  0.6070  0.3274 -2.0896
   19SAPC  C311 2524   0.672   3.628   9.074 -0.7693 -0.0778  0.1657
   19SAPC  H11X 2525   0.777   3.592   9.077 -0.6212  0.2264 -0.9298
   19SAPC  H11Y 2526   0.672   3.731   9.116 -0.9878 -0.1218  0.2722
   19SAPC  C312 2527   0.621   3.633   8.930 -0.2766  0.0012  0.5714
   19SAPC  H12X 2528   0.526   3.689   8.931  0.2900  1.2095 -2.3605
   19SAPC  H12Y 2529   0.600   3.530   8.893 -0.5196  0.8064 -1.6789
   19SAPC  C313 2530   0.716   3.698   8.828 -0.8175 -0.8241 -0.6099
   19SAPC  H13X 2531   0.810   3.638   8.824 -0.6765 -0.5607 -2.3429
   19SAPC  H13Y 2532   0.740   3.799   8.866 -2.2126 -0.9062  0.5506
   19SAPC  C314 2533   0.658   3.711   8.686  0.7134 -0.5123  0.2767
   19SAPC  H14X 2534   0.548   3.723   8.698  0.4892 -2.3209  0.3333
   19SAPC  H14Y 2535   0.674   3.615   8.632 -2.0859 -2.9753  3.4216
   19SAPC  C315 2536   0.735   3.797   8.594  0.5479  0.5009  0.4669
   19SAPC  H15X 2537   0.698   3.794   8.489  3.3756  0.6934 -0.6412
   19SAPC  H15Y 2538   0.835   3.754   8.571 -1.2018 -2.2844 -2.8822
   19SAPC  C316 2539   0.740   3.944   8.623 -1.0752  0.5110 -0.5440
   19SAPC  H16X 2540   0.818   3.990   8.558  1.0231 -1.1696  0.6309
   19SAPC  H16Y 2541   0.775   3.960   8.727  1.0353 -1.8683 -0.7781
   19SAPC  C317 2542   0.621   4.036   8.597  0.4391  0.2552 -0.4146
   19SAPC  H17X 2543   0.635   4.140   8.636  1.7277 -1.0525  3.0247
   19SAPC  H17Y 2544   0.533   4.001   8.654 -1.3226 -0.1519 -3.1935
   19SAPC  C318 2545   0.579   4.061   8.456  0.1215  0.3750 -0.3166
   19SAPC  H18X 2546   0.658   4.108   8.394 -0.4692  1.7757 -0.0410
   19SAPC  H18Y 2547   0.487   4.124   8.455  0.1693  0.4375 -0.7708
   19SAPC  H18Z 2548   0.543   3.966   8.410  0.1351  0.0156  0.3902
   20SAPC     N 2549   6.491   4.439  10.620 -0.3155  0.3055 -0.3702
   20SAPC   C12 2550   6.559   4.576  10.613  0.0544 -0.1380  0.3365
   20SAPC  H12A 2551   6.567   4.616  10.713 -0.4797  1.2620 -0.1578
   20SAPC  H12B 2552   6.486   4.641  10.567 -0.2772 -1.3354 -0.8898
   20SAPC   C13 2553   6.584   4.331  10.671 -0.1089 -0.6764  0.3548
   20SAPC  H13A 2554   6.623   4.351  10.770 -1.8954  0.4690  0.8797
   20SAPC  H13B 2555   6.533   4.235  10.673  0.0913 -0.8482 -1.2940
   20SAPC  H13C 2556   6.668   4.317  10.605  0.0397  2.4581 -0.2600
   20SAPC   C14 2557   6.366   4.438  10.704  0.8159  0.0836  0.0207
   20SAPC  H14A 2558   6.335   4.334  10.707 -1.9000  0.8230  0.3043
   20SAPC  H14B 2559   6.379   4.487  10.799  1.9024  2.6613 -1.3685
   20SAPC  H14C 2560   6.283   4.487  10.654 -0.3518 -1.3564  0.4678
   20SAPC   C15 2561   6.451   4.405  10.487 -0.0990 -0.1562  0.3807
   20SAPC  H15A 2562   6.377   4.465  10.436 -0.6755 -1.4942 -0.3969
   20SAPC  H15B 2563   6.538   4.383  10.426  0.0404  1.6012 -0.1000
   20SAPC  H15C 2564   6.391   4.316  10.495 -1.1828  0.6417  1.4960
   20SAPC   C11 2565   6.690   4.590  10.533  0.5165 -0.1447  0.1989
   20SAPC  H11A 2566   6.713   4.699  10.528 -1.9104  0.4885  1.5077
   20SAPC  H11B 2567   6.663   4.548  10.434  3.2045 -1.6544 -0.0082
   20SAPC     P 2568   6.917   4.444  10.535  0.0874 -0.0777  0.4204
   20SAPC   O13 2569   7.040   4.506  10.586  0.0805 -0.2188  0.1012
   20SAPC   O14 2570   6.889   4.298  10.554 -0.4364  0.0602 -0.1953
   20SAPC   O12 2571   6.797   4.527  10.602  0.2934 -0.0795  0.8166
   20SAPC   O11 2572   6.893   4.472  10.385  0.2813  0.4869  0.1182
   20SAPC    C1 2573   6.989   4.515  10.295 -0.2667  0.5158  0.4368
   20SAPC    HA 2574   7.088   4.473  10.323 -0.0310  0.8635  0.1258
   20SAPC    HB 2575   6.964   4.468  10.198 -1.0313  1.0192  0.3830
   20SAPC    C2 2576   6.998   4.669  10.288 -0.4879  0.2350  0.3532
   20SAPC    HS 2577   7.011   4.698  10.394 -0.2536 -0.8209  0.6242
   20SAPC   O21 2578   6.879   4.727  10.239  0.1273 -0.2521  0.6594
   20SAPC   C21 2579   6.860   4.858  10.254 -0.2858  0.6818 -0.5726
   20SAPC   O22 2580   6.953   4.926  10.294  1.0783  0.1029  0.1545
   20SAPC   C22 2581   6.723   4.898  10.214 -0.1319 -0.6837 -0.2157
   20SAPC   H2R 2582   6.669   4.826  10.280 -0.3270  1.3257  1.9616
   20SAPC   H2S 2583   6.701   5.001  10.248  0.7214 -0.5698  0.0098
   20SAPC    C3 2584   7.123   4.699  10.202 -0.0290  0.1397  0.4312
   20SAPC    HX 2585   7.213   4.650  10.244 -0.9972 -0.6894  1.6345
   20SAPC    HY 2586   7.153   4.805  10.189  2.5338 -0.5650  0.1482
   20SAPC   O31 2587   7.113   4.632  10.072 -0.3203 -0.1825 -0.3104
   20SAPC   C31 2588   7.183   4.673   9.979 -0.2036 -0.1734  0.4544
   20SAPC   O32 2589   7.262   4.768   9.977 -0.0304  0.7516  0.4164
   20SAPC   C32 2590   7.173   4.564   9.871 -0.1919 -0.3299 -0.0484
   20SAPC   H2X 2591   7.080   4.505   9.882  0.6137 -1.9521 -1.5485
   20SAPC   H2Y 2592   7.263   4.501   9.883  0.7123  0.8435 -0.4274
   20SAPC   C23 2593   6.678   4.878  10.072  0.1739 -0.0315 -0.0426
   20SAPC   H3R 2594   6.701   4.777  10.032 -0.4435 -0.0887 -0.2658
   20SAPC   H3S 2595   6.731   4.945  10.001  0.0910  0.3763  0.2737
   20SAPC   C24 2596   6.523   4.891  10.049  0.3387  0.0565  0.1091
   20SAPC   H4R 2597   6.474   4.803  10.096 -0.5277 -0.7561 -2.1738
   20SAPC   H4S 2598   6.507   4.868   9.942  2.9362 -2.0129  0.0519
   20SAPC   C25 2599   6.465   5.025  10.097 -0.1715  0.6820 -0.0434
   20SAPC   H5R 2600   6.418   5.024  10.196  1.1304 -0.2430  0.6010
   20SAPC   C26 2601   6.479   5.142  10.036  0.6343 -0.6869  0.3982
   20SAPC   H6R 2602   6.445   5.228  10.096  1.9719 -0.8490  1.4193
   20SAPC   C27 2603   6.549   5.170   9.902  0.0815  0.7959 -0.4102
   20SAPC   H7R 2604   6.540   5.078   9.842 -1.6357 -2.3889  4.1480
   20SAPC   H7S 2605   6.658   5.193   9.912  0.2104  0.5849 -1.2843
   20SAPC   C28 2606   6.469   5.289   9.835 -0.8017  0.1372  0.8478
   20SAPC   H8R 2607   6.367   5.307   9.871 -0.6466  1.5474  0.6384
   20SAPC   C29 2608   6.516   5.391   9.757 -0.8503 -0.1882  0.4594
   20SAPC   H9R 2609   6.443   5.458   9.708 -1.0457  0.3116  1.3970
   20SAPC  C210 2610   6.666   5.391   9.723  0.2632  0.3268 -0.0996
   20SAPC  H10R 2611   6.672   5.351   9.620 -2.6146  2.0391 -1.0551
   20SAPC  H10S 2612   6.727   5.324   9.788  0.6851 -0.2760 -1.1086
   20SAPC  C211 2613   6.729   5.531   9.716  0.2156 -0.2271 -0.0438
   20SAPC  H11R 2614   6.731   5.572   9.818  0.2616 -1.8870  0.6516
   20SAPC  C212 2615   6.756   5.606   9.598  0.2573  0.1958  0.5890
   20SAPC  H12R 2616   6.800   5.706   9.610 -2.9223  1.5301  2.1549
   20SAPC  C213 2617   6.763   5.554   9.461 -0.2562 -0.2095 -0.4177
   20SAPC  H13R 2618   6.777   5.633   9.385 -2.8108 -0.2373 -0.9916
   20SAPC  H13S 2619   6.666   5.509   9.431 -0.9062  1.3251 -0.6914
   20SAPC  C214 2620   6.868   5.442   9.447  0.1522  0.0346 -0.0648
   20SAPC  H14R 2621   6.921   5.410   9.538  0.4395  2.3954  0.6655
   20SAPC  C215 2622   6.894   5.382   9.334 -0.4559  0.4814 -0.1236
   20SAPC  H15R 2623   6.960   5.294   9.329 -0.4106  0.5846 -2.2612
   20SAPC  C216 2624   6.835   5.419   9.200 -0.4470  1.2845  0.2768
   20SAPC  H16R 2625   6.870   5.520   9.170 -1.2127  1.7802  0.9718
   20SAPC  H16S 2626   6.724   5.417   9.205 -0.4590 -1.7570  0.4446
   20SAPC  C217 2627   6.879   5.313   9.095  0.1680 -0.0470  0.2287
   20SAPC  H17R 2628   6.873   5.209   9.131 -0.2475  1.5521  5.6148
   20SAPC  H17S 2629   6.988   5.331   9.077  0.5738 -3.1425 -1.0444
   20SAPC  C218 2630   6.820   5.340   8.961  0.3288 -1.1699  0.0348
   20SAPC  H18R 2631   6.818   5.448   8.937 -0.5612 -1.0134  0.7258
   20SAPC  H18S 2632   6.718   5.296   8.961 -0.5780  0.8354  0.4878
   20SAPC  C219 2633   6.913   5.285   8.854  0.1014  0.1370  0.3462
   20SAPC  H19R 2634   6.931   5.178   8.878  1.2594  0.3256  0.3336
   20SAPC  H19S 2635   7.002   5.346   8.880 -0.6550  2.6537 -2.4005
   20SAPC  C220 2636   6.868   5.318   8.711  0.7780 -0.4574  0.6477
   20SAPC  H20R 2637   6.961   5.340   8.655 -0.6308  0.4843 -1.4300
   20SAPC  H20S 2638   6.821   5.417   8.696  0.5405 -0.7119 -0.3778
   20SAPC  H20T 2639   6.802   5.242   8.664  0.2416  0.4396 -0.0681
   20SAPC   C33 2640   7.170   4.636   9.726  0.5133 -0.1245 -0.4464
   20SAPC   H3X 2641   7.270   4.681   9.707  0.7346 -0.6905 -0.6618
   20SAPC   H3Y 2642   7.085   4.707   9.726  1.7659  1.4948  1.7795
   20SAPC   C34 2643   7.153   4.535   9.615  0.3122  0.7321  0.6329
   20SAPC   H4X 2644   7.055   4.481   9.616  1.0447 -0.7473 -1.3574
   20SAPC   H4Y 2645   7.235   4.463   9.599 -0.5468 -0.1801  0.2430
   20SAPC   C35 2646   7.149   4.603   9.472  0.8190 -0.6834  0.6657
   20SAPC   H5X 2647   7.251   4.645   9.453 -0.5469  2.1032 -1.1498
   20SAPC   H5Y 2648   7.073   4.683   9.472  3.6269  2.2171  0.1892
   20SAPC   C36 2649   7.123   4.495   9.361 -0.1216  0.3796  0.4370
   20SAPC   H6X 2650   7.026   4.442   9.375 -1.0809  1.8396 -0.4255
   20SAPC   H6Y 2651   7.207   4.424   9.375 -0.2850  0.0790 -0.1033
   20SAPC   C37 2652   7.138   4.538   9.221  0.8830  1.0402  0.3322
   20SAPC   H7X 2653   7.240   4.576   9.200  0.5223  2.4941  1.1240
   20SAPC   H7Y 2654   7.058   4.614   9.206 -0.5498 -0.5207 -0.2186
   20SAPC   C38 2655   7.094   4.431   9.110  0.1009 -0.0322 -0.2110
   20SAPC   H8X 2656   6.988   4.399   9.127 -1.0177  1.8746 -2.8427
   20SAPC   H8Y 2657   7.152   4.337   9.121  2.7012  1.4072 -0.9236
   20SAPC   C39 2658   7.109   4.475   8.959 -0.6206 -0.3280  0.3209
   20SAPC   H9X 2659   7.072   4.391   8.897 -1.1838 -0.5119  0.8881
   20SAPC   H9Y 2660   7.215   4.492   8.931 -1.2732  0.6810 -1.7141
   20SAPC  C310 2661   7.030   4.596   8.921  0.0234 -0.4145  0.2601
   20SAPC  H10X 2662   7.053   4.671   8.999  1.3273 -0.8159  0.2848
   20SAPC  H10Y 2663   6.921   4.584   8.938 -0.0311 -1.0525 -0.4706
   20SAPC  C311 2664   7.083   4.668   8.790  0.0366 -0.1855 -0.0359
   20SAPC  H11X 2665   7.072   4.603   8.700 -2.2580  1.9667 -1.4386
   20SAPC  H11Y 2666   7.189   4.695   8.809  0.6608 -1.4190 -1.5180
   20SAPC  C312 2667   6.996   4.787   8.749  0.5246  0.0276  0.4543
   20SAPC  H12X 2668   6.996   4.857   8.835  1.7609 -0.0111  0.5027
   20SAPC  H12Y 2669   6.897   4.746   8.722 -0.5513  1.0335  2.6923
   20SAPC  C313 2670   7.048   4.868   8.621  0.4093 -0.2001 -0.8817
   20SAPC  H13X 2671   6.967   4.933   8.582  0.1043 -1.3178 -2.2042
   20SAPC  H13Y 2672   7.070   4.804   8.533 -0.3498 -1.5140 -0.1531
   20SAPC  C314 2673   7.165   4.964   8.655 -0.3552  0.5451 -0.1303
   20SAPC  H14X 2674   7.253   4.897   8.665 -1.4307 -1.3676 -2.4972
   20SAPC  H14Y 2675   7.143   5.015   8.751 -2.6127 -1.7180  0.6837
   20SAPC  C315 2676   7.197   5.077   8.550 -0.2109 -0.3156 -0.4094
   20SAPC  H15X 2677   7.102   5.112   8.505  1.7658  1.7932 -3.3495
   20SAPC  H15Y 2678   7.259   5.042   8.464 -0.3332  0.4874 -0.8377
   20SAPC  C316 2679   7.279   5.190   8.616 -0.4157 -0.4251 -0.0457
   20SAPC  H16X 2680   7.385   5.159   8.629 -0.1776  0.4401  0.1394
   20SAPC  H16Y 2681   7.232   5.217   8.713 -3.2402  3.1040 -2.1623
   20SAPC  C317 2682   7.292   5.323   8.533 -1.0607  0.0975  0.2237
   20SAPC  H17X 2683   7.195   5.375   8.542 -0.3767  1.6405 -0.9036
   20SAPC  H17Y 2684   7.321   5.288   8.431 -1.0194  0.6800  0.0329
   20SAPC  C318 2685   7.401   5.418   8.593 -0.3003  0.4538  0.4887
   20SAPC  H18X 2686   7.483   5.354   8.631 -0.8138 -0.4561  0.0731
   20SAPC  H18Y 2687   7.341   5.464   8.675  0.2248  0.7093  0.7400
   20SAPC  H18Z 2688   7.440   5.491   8.518  1.0386 -1.2791 -0.5642
   21SAPC     N 2689   6.091   3.621  10.966 -0.3277  0.8690 -0.5876
   21SAPC   C12 2690   5.989   3.599  10.855  0.3077 -0.5068 -0.4254
   21SAPC  H12A 2691   5.891   3.635  10.885  0.2809 -0.6139 -0.3856
   21SAPC  H12B 2692   5.994   3.494  10.830  2.1902 -0.4015 -0.6509
   21SAPC   C13 2693   6.237   3.593  10.927  0.3767 -0.0810  0.5402
   21SAPC  H13A 2694   6.301   3.614  11.012  3.1300 -1.6111 -0.9891
   21SAPC  H13B 2695   6.244   3.488  10.903  0.4346 -0.0672  0.4947
   21SAPC  H13C 2696   6.258   3.651  10.838  2.0141 -1.4581 -0.0331
   21SAPC   C14 2697   6.081   3.756  11.033 -0.1585  0.4302  1.0434
   21SAPC  H14A 2698   6.134   3.752  11.127  0.2974  0.5709  0.7938
   21SAPC  H14B 2699   6.103   3.844  10.975  0.3159  0.4843  1.3041
   21SAPC  H14C 2700   5.980   3.766  11.070 -0.0473 -1.0487  1.8106
   21SAPC   C15 2701   6.058   3.525  11.076 -0.1232  0.0891 -0.4030
   21SAPC  H15A 2702   6.065   3.420  11.053  0.3095 -0.2480  1.1281
   21SAPC  H15B 2703   6.131   3.530  11.155 -0.1504 -1.2863 -0.2719
   21SAPC  H15C 2704   5.954   3.528  11.108 -0.0027 -1.4100  0.2185
   21SAPC   C11 2705   6.019   3.686  10.729 -0.1925 -0.3347  0.7220
   21SAPC  H11A 2706   5.956   3.651  10.645 -0.2514 -0.5990  0.8769
   21SAPC  H11B 2707   6.119   3.657  10.689  0.0362  0.9336  0.3221
   21SAPC     P 2708   5.874   3.894  10.751  0.3307  0.4707 -0.0245
   21SAPC   O13 2709   5.767   3.827  10.829 -0.3286  0.6845  0.0454
   21SAPC   O14 2710   5.892   4.034  10.777 -0.9788  0.5976 -0.0379
   21SAPC   O12 2711   6.015   3.824  10.755 -0.0228 -0.2078 -0.0443
   21SAPC   O11 2712   5.834   3.884  10.598 -0.6316  0.5415 -0.7403
   21SAPC    C1 2713   5.875   3.964  10.490  0.3519 -0.3732  0.0501
   21SAPC    HA 2714   5.796   4.040  10.472  0.8192  0.6401  1.9494
   21SAPC    HB 2715   5.955   4.039  10.510 -1.7414  2.4565 -1.4550
   21SAPC    C2 2716   5.909   3.888  10.354  0.8257 -0.4424 -0.3332
   21SAPC    HS 2717   5.945   3.957  10.275  4.0458  0.2804  1.5560
   21SAPC   O21 2718   5.800   3.804  10.316 -0.1945  0.0327  0.4226
   21SAPC   C21 2719   5.729   3.840  10.209 -0.1592 -0.3470  0.0502
   21SAPC   O22 2720   5.758   3.940  10.142 -0.3167 -0.0919  0.1505
   21SAPC   C22 2721   5.623   3.740  10.186  0.9910 -0.2462  0.4429
   21SAPC   H2R 2722   5.654   3.635  10.204 -0.3955 -0.7919 -0.1677
   21SAPC   H2S 2723   5.556   3.764  10.272 -1.1524  0.6240 -1.3841
   21SAPC    C3 2724   6.038   3.791  10.380 -0.2321 -0.0140 -0.0968
   21SAPC    HX 2725   6.001   3.698  10.428 -0.4359  0.7699  1.2856
   21SAPC    HY 2726   6.111   3.834  10.451 -0.8185 -0.2519  0.6614
   21SAPC   O31 2727   6.098   3.748  10.259 -0.9138  0.4671  0.3284
   21SAPC   C31 2728   6.188   3.836  10.223  0.2080 -0.3503  0.1267
   21SAPC   O32 2729   6.216   3.944  10.273 -0.4053 -0.0478  0.4089
   21SAPC   C32 2730   6.255   3.775  10.095  0.0818 -0.1274 -0.1444
   21SAPC   H2X 2731   6.172   3.763  10.021 -1.8860 -1.2816  2.1112
   21SAPC   H2Y 2732   6.290   3.675  10.127  2.1556  0.2023 -1.2430
   21SAPC   C23 2733   5.556   3.761  10.047  1.0199 -0.1736 -0.2992
   21SAPC   H3R 2734   5.628   3.741   9.964  0.5466  0.2746 -0.8322
   21SAPC   H3S 2735   5.523   3.865  10.028 -1.2096 -0.5748  1.0258
   21SAPC   C24 2736   5.431   3.660  10.041 -0.2219  0.2537  0.0670
   21SAPC   H4R 2737   5.378   3.679   9.945 -0.4028 -1.9254 -0.3186
   21SAPC   H4S 2738   5.359   3.680  10.123 -0.3278  3.4997 -0.6897
   21SAPC   C25 2739   5.462   3.508  10.049  0.3045 -0.1025 -0.0920
   21SAPC   H5R 2740   5.480   3.472  10.151 -0.1520 -1.7016 -0.5597
   21SAPC   C26 2741   5.490   3.435   9.939 -0.1392 -0.1581 -0.1948
   21SAPC   H6R 2742   5.538   3.337   9.948  3.1874  1.4118  0.9780
   21SAPC   C27 2743   5.469   3.472   9.790  0.1608  0.1866 -0.7031
   21SAPC   H7R 2744   5.429   3.575   9.776  1.7463  0.6561 -2.1467
   21SAPC   H7S 2745   5.398   3.404   9.740 -0.7639  1.0892 -0.6434
   21SAPC   C28 2746   5.600   3.452   9.722  1.0436  0.1638 -0.1601
   21SAPC   H8R 2747   5.692   3.449   9.783  1.4679 -1.3016 -0.8306
   21SAPC   C29 2748   5.616   3.430   9.593  0.4116  0.0317  0.0377
   21SAPC   H9R 2749   5.718   3.404   9.561  0.1057 -0.9831 -0.1409
   21SAPC  C210 2750   5.505   3.415   9.489 -0.1454  0.6235 -0.2661
   21SAPC  H10R 2751   5.406   3.444   9.530  0.2582  0.3655  0.9154
   21SAPC  H10S 2752   5.503   3.310   9.453  1.1487  0.2681  0.6139
   21SAPC  C211 2753   5.535   3.503   9.372  0.4853  0.2565  0.0359
   21SAPC  H11R 2754   5.577   3.600   9.401 -2.2916  1.0740  1.7380
   21SAPC  C212 2755   5.517   3.482   9.237 -0.2043  0.1707 -0.7898
   21SAPC  H12R 2756   5.558   3.562   9.173  1.3492  0.0486  0.0050
   21SAPC  C213 2757   5.461   3.361   9.171  0.3612  0.2592  0.5219
   21SAPC  H13R 2758   5.414   3.298   9.250 -1.1622  0.1564 -0.4158
   21SAPC  H13S 2759   5.535   3.294   9.121  0.0185  0.8456 -0.8223
   21SAPC  C214 2760   5.364   3.411   9.059 -0.4288  0.2816 -0.6945
   21SAPC  H14R 2761   5.263   3.419   9.102 -0.7377 -1.0019 -1.1368
   21SAPC  C215 2762   5.382   3.441   8.929  0.1040  0.1919  0.2079
   21SAPC  H15R 2763   5.294   3.471   8.870 -0.3263  1.6536  1.5317
   21SAPC  C216 2764   5.515   3.447   8.855  0.3753  0.0573 -0.5580
   21SAPC  H16R 2765   5.603   3.423   8.919  0.6886  0.6300 -0.7620
   21SAPC  H16S 2766   5.523   3.553   8.824  0.9960 -0.6021 -2.8544
   21SAPC  C217 2767   5.520   3.358   8.726  0.2724 -0.0922 -0.1227
   21SAPC  H17R 2768   5.424   3.382   8.676 -0.1795 -1.0422  0.2663
   21SAPC  H17S 2769   5.523   3.250   8.755 -0.2819  0.0486  0.4843
   21SAPC  C218 2770   5.628   3.399   8.631  0.5833  0.1352 -0.3072
   21SAPC  H18R 2771   5.729   3.393   8.677  2.6056 -4.1253 -4.4145
   21SAPC  H18S 2772   5.608   3.500   8.590 -0.8244  0.4456  1.0278
   21SAPC  C219 2773   5.651   3.303   8.514 -0.8604  0.4591  0.2054
   21SAPC  H19R 2774   5.556   3.304   8.456  0.2604 -0.6756 -1.8043
   21SAPC  H19S 2775   5.661   3.203   8.562  1.0348  1.3917  1.8807
   21SAPC  C220 2776   5.768   3.337   8.421 -0.1260 -0.2115  0.3823
   21SAPC  H20R 2777   5.793   3.265   8.340 -1.7652  0.7933 -1.0923
   21SAPC  H20S 2778   5.866   3.350   8.470 -0.1489 -1.9015  0.9238
   21SAPC  H20T 2779   5.739   3.432   8.371  1.4976 -0.0752 -0.3886
   21SAPC   C33 2780   6.367   3.863  10.044 -0.0150 -0.6580 -0.0190
   21SAPC   H3X 2781   6.444   3.874  10.123 -0.9348 -0.0980  0.8074
   21SAPC   H3Y 2782   6.340   3.963  10.003 -1.4155 -1.6321 -1.6388
   21SAPC   C34 2783   6.442   3.798   9.923 -1.1397  0.1397 -0.1824
   21SAPC   H4X 2784   6.358   3.768   9.858 -1.0408  0.6224 -0.5342
   21SAPC   H4Y 2785   6.494   3.703   9.952  0.7736  1.1667 -0.0947
   21SAPC   C35 2786   6.520   3.901   9.844  0.5804 -0.2556  0.3198
   21SAPC   H5X 2787   6.611   3.944   9.892 -1.1721  2.3232  1.5207
   21SAPC   H5Y 2788   6.459   3.992   9.826 -0.7300 -1.3970 -1.2910
   21SAPC   C36 2789   6.566   3.844   9.712  0.7627 -0.6871 -0.1510
   21SAPC   H6X 2790   6.588   3.735   9.715  0.2273 -0.8779 -1.7902
   21SAPC   H6Y 2791   6.662   3.893   9.687  0.7859  1.1012  2.9309
   21SAPC   C37 2792   6.467   3.870   9.595  0.5190  0.2123  0.4182
   21SAPC   H7X 2793   6.445   3.978   9.581 -1.5866 -0.2839 -0.5617
   21SAPC   H7Y 2794   6.369   3.821   9.614  0.0070  1.2350  0.4767
   21SAPC   C38 2795   6.527   3.824   9.462 -0.3891 -0.3352  0.0628
   21SAPC   H8X 2796   6.547   3.715   9.456  1.7028 -0.1291  1.7987
   21SAPC   H8Y 2797   6.630   3.865   9.469 -0.6192  0.4118 -0.7828
   21SAPC   C39 2798   6.468   3.864   9.333  0.6051 -0.6540  0.9618
   21SAPC   H9X 2799   6.453   3.974   9.338 -1.4044 -0.8441  0.2193
   21SAPC   H9Y 2800   6.370   3.812   9.335  0.5951 -0.6235  1.4045
   21SAPC  C310 2801   6.555   3.837   9.210  0.4186 -0.0701 -0.0713
   21SAPC  H10X 2802   6.584   3.730   9.203  0.5468  0.0322 -1.4023
   21SAPC  H10Y 2803   6.650   3.895   9.218  0.9798 -1.0267  0.3891
   21SAPC  C311 2804   6.494   3.875   9.082 -0.2177 -0.4633  0.0391
   21SAPC  H11X 2805   6.436   3.970   9.084 -2.2726 -1.6428  2.1453
   21SAPC  H11Y 2806   6.406   3.808   9.071 -1.8742  1.6955 -0.6722
   21SAPC  C312 2807   6.589   3.879   8.962  0.0245 -0.4134 -0.0918
   21SAPC  H12X 2808   6.694   3.898   8.993  0.2980 -2.6525  0.5260
   21SAPC  H12Y 2809   6.552   3.961   8.896 -1.7041  0.5464  1.9251
   21SAPC  C313 2810   6.604   3.755   8.876  0.2226  0.3353 -0.1114
   21SAPC  H13X 2811   6.505   3.710   8.855  0.2159 -0.5839  1.6770
   21SAPC  H13Y 2812   6.654   3.681   8.943  0.6324  1.8478  1.3102
   21SAPC  C314 2813   6.688   3.774   8.752 -0.2583 -0.3867  0.2744
   21SAPC  H14X 2814   6.787   3.822   8.771 -0.4635 -0.5424  1.8645
   21SAPC  H14Y 2815   6.634   3.841   8.681  2.0843 -0.1817 -1.4274
   21SAPC  C315 2816   6.707   3.638   8.685 -0.1760 -0.3809 -0.5496
   21SAPC  H15X 2817   6.606   3.601   8.658 -0.6413 -0.3524  1.0699
   21SAPC  H15Y 2818   6.758   3.568   8.754  1.3162  1.2665  0.0911
   21SAPC  C316 2819   6.790   3.640   8.558 -0.1053 -0.3088 -0.0252
   21SAPC  H16X 2820   6.770   3.541   8.512 -2.7959  0.2727 -0.3161
   21SAPC  H16Y 2821   6.897   3.657   8.582  0.0178  1.4166 -1.5578
   21SAPC  C317 2822   6.742   3.756   8.462 -0.1251  0.6673 -0.8242
   21SAPC  H17X 2823   6.766   3.852   8.513  0.4733 -0.8467  1.9375
   21SAPC  H17Y 2824   6.634   3.734   8.456 -0.1215 -0.0040  0.9107
   21SAPC  C318 2825   6.793   3.750   8.318  0.2502  0.2157 -0.6005
   21SAPC  H18X 2826   6.900   3.778   8.308  0.7883 -1.3830  0.2578
   21SAPC  H18Y 2827   6.738   3.811   8.244 -0.7412 -2.6369 -2.3594
   21SAPC  H18Z 2828   6.779   3.650   8.272 -1.2772  0.2985 -0.3486
   22SAPC     N 2829   4.775   2.890  10.753  0.2749  0.0665 -0.0861
   22SAPC   C12 2830   4.886   2.822  10.681 -0.2037 -0.5684  0.1480
   22SAPC  H12A 2831   4.937   2.767  10.758  0.9134  0.2014 -0.0263
   22SAPC  H12B 2832   4.963   2.891  10.650 -2.3186  1.7988 -0.1853
   22SAPC   C13 2833   4.816   2.954  10.883 -1.0821  0.2522 -0.2356
   22SAPC  H13A 2834   4.735   3.006  10.932 -0.4693 -0.5882  1.7761
   22SAPC  H13B 2835   4.859   2.881  10.950  0.8723  2.0570  0.5962
   22SAPC  H13C 2836   4.898   3.022  10.872  0.9016 -2.0263 -0.4804
   22SAPC   C14 2837   4.726   3.009  10.666  0.3195  0.1953  0.0920
   22SAPC  H14A 2838   4.784   3.098  10.682 -1.3306  0.9908  2.1179
   22SAPC  H14B 2839   4.714   2.987  10.561 -0.8978 -0.5229  0.3616
   22SAPC  H14C 2840   4.630   3.043  10.701  0.9082  0.7710  1.1813
   22SAPC   C15 2841   4.662   2.799  10.766  0.8365  0.0709  0.4594
   22SAPC  H15A 2842   4.677   2.723  10.841 -1.1841 -0.6032  0.2578
   22SAPC  H15B 2843   4.580   2.849  10.816  2.1428  1.6537  1.1139
   22SAPC  H15C 2844   4.636   2.760  10.669  3.6748 -0.0227 -0.3485
   22SAPC   C11 2845   4.848   2.730  10.567 -0.1724  0.6041 -0.0334
   22SAPC  H11A 2846   4.783   2.795  10.505 -0.4972  0.1820 -0.1343
   22SAPC  H11B 2847   4.786   2.644  10.602 -1.7211  2.4800  2.1965
   22SAPC     P 2848   5.044   2.568  10.539 -0.2168  0.0924  0.2388
   22SAPC   O13 2849   5.156   2.550  10.437 -0.5584 -0.4416  0.4992
   22SAPC   O14 2850   5.077   2.571  10.684 -0.9839 -0.1179  0.4774
   22SAPC   O12 2851   4.961   2.694  10.496 -0.1603  0.0709  0.0837
   22SAPC   O11 2852   4.950   2.447  10.520  0.4389 -0.2455 -0.4515
   22SAPC    C1 2853   4.956   2.368  10.399 -0.2805  0.6430  0.2366
   22SAPC    HA 2854   5.061   2.336  10.386 -0.7189 -1.1805  0.8008
   22SAPC    HB 2855   4.903   2.271  10.413 -1.5028  1.4831  1.8071
   22SAPC    C2 2856   4.890   2.442  10.276  0.0568 -0.1871  0.4686
   22SAPC    HS 2857   4.942   2.540  10.266 -0.8887  0.2550 -0.4420
   22SAPC   O21 2858   4.753   2.468  10.291 -0.6142 -0.1782  0.6457
   22SAPC   C21 2859   4.663   2.377  10.274 -0.3124  0.8551  0.3465
   22SAPC   O22 2860   4.691   2.259  10.243  0.4514  0.5806 -0.0899
   22SAPC   C22 2861   4.525   2.439  10.303  0.0467  0.5590  0.6466
   22SAPC   H2R 2862   4.528   2.452  10.413  3.1403 -1.5692  0.9557
   22SAPC   H2S 2863   4.523   2.529  10.239 -1.5482 -0.9745 -1.5892
   22SAPC    C3 2864   4.921   2.376  10.141 -0.5734  0.1712  1.0625
   22SAPC    HX 2865   4.902   2.267  10.138 -2.1074  0.4187  0.7954
   22SAPC    HY 2866   5.029   2.389  10.119 -0.4854 -1.8625  0.1508
   22SAPC   O31 2867   4.838   2.439  10.032  0.5261 -0.2023  0.3270
   22SAPC   C31 2868   4.889   2.415   9.910  0.1020 -0.1147 -0.4541
   22SAPC   O32 2869   4.986   2.345   9.888  0.3537 -0.0631 -0.3461
   22SAPC   C32 2870   4.829   2.509   9.800 -0.1563  0.6079  0.1452
   22SAPC   H2X 2871   4.811   2.611   9.841 -2.0054  0.6439 -0.6787
   22SAPC   H2Y 2872   4.727   2.467   9.786  0.3863 -1.1876  1.2730
   22SAPC   C23 2873   4.396   2.354  10.283  0.5139  0.6633 -0.5341
   22SAPC   H3R 2874   4.319   2.400  10.349  0.6714  1.0899 -0.6502
   22SAPC   H3S 2875   4.410   2.248  10.316 -0.7001  0.1761 -1.5011
   22SAPC   C24 2876   4.349   2.357  10.133  0.5306 -0.6078  0.0370
   22SAPC   H4R 2877   4.346   2.463  10.100  2.9835 -0.5637 -0.2392
   22SAPC   H4S 2878   4.250   2.307  10.143  0.5194 -0.2190  2.5860
   22SAPC   C25 2879   4.434   2.283  10.034  0.0135 -0.4570 -0.4403
   22SAPC   H5R 2880   4.508   2.221  10.086 -0.3047  1.0211  1.9032
   22SAPC   C26 2881   4.449   2.319   9.906 -0.3169  0.0049 -0.9646
   22SAPC   H6R 2882   4.522   2.259   9.849  0.0317 -1.0367  0.5073
   22SAPC   C27 2883   4.374   2.428   9.828 -0.6919  0.2337  0.2569
   22SAPC   H7R 2884   4.277   2.455   9.874 -0.6629 -0.8545  0.9984
   22SAPC   H7S 2885   4.362   2.391   9.725  2.4928 -1.5663  0.3875
   22SAPC   C28 2886   4.455   2.562   9.834 -0.3124 -0.8045  0.3663
   22SAPC   H8R 2887   4.467   2.607   9.933  2.5961 -0.0999 -0.2314
   22SAPC   C29 2888   4.471   2.654   9.732 -0.1986  0.5415  0.6138
   22SAPC   H9R 2889   4.501   2.757   9.753  0.6776  0.4900 -0.3224
   22SAPC  C210 2890   4.440   2.629   9.584 -0.6862  0.2302  0.5318
   22SAPC  H10R 2891   4.505   2.705   9.535 -0.4050  0.0792  0.6675
   22SAPC  H10S 2892   4.343   2.677   9.559 -0.4054  0.7273  0.3748
   22SAPC  C211 2893   4.476   2.504   9.505 -0.1659 -0.4962  0.5685
   22SAPC  H11R 2894   4.531   2.429   9.563  0.1978 -0.2512  0.5447
   22SAPC  C212 2895   4.450   2.483   9.378  0.4894 -0.0635  0.1213
   22SAPC  H12R 2896   4.473   2.386   9.332 -1.8781 -0.0535 -1.2438
   22SAPC  C213 2897   4.371   2.572   9.281  0.2746 -0.1438 -0.3770
   22SAPC  H13R 2898   4.324   2.653   9.341 -0.8216 -1.6954  0.9732
   22SAPC  H13S 2899   4.281   2.523   9.238 -0.0455  0.0238  0.0954
   22SAPC  C214 2900   4.467   2.632   9.180  0.2279  0.7661 -0.3747
   22SAPC  H14R 2901   4.531   2.718   9.206 -1.1710  2.4038 -2.0303
   22SAPC  C215 2902   4.490   2.572   9.058  0.6185  0.3073  0.0466
   22SAPC  H15R 2903   4.550   2.622   8.980  0.4232 -0.9239 -0.9179
   22SAPC  C216 2904   4.420   2.447   9.003 -0.4785 -0.5232 -0.0803
   22SAPC  H16R 2905   4.318   2.434   9.044 -0.1506 -1.4120  0.4705
   22SAPC  H16S 2906   4.490   2.361   9.006 -0.0648 -0.3754 -2.7958
   22SAPC  C217 2907   4.379   2.477   8.848 -0.4347 -0.3156 -0.2549
   22SAPC  H17R 2908   4.320   2.571   8.845 -0.1609 -0.1645 -1.6651
   22SAPC  H17S 2909   4.303   2.406   8.809 -0.7951  0.1118 -0.3368
   22SAPC  C218 2910   4.504   2.499   8.751  0.7768 -0.7307 -0.1932
   22SAPC  H18R 2911   4.593   2.444   8.788  0.8059 -1.2047 -0.9636
   22SAPC  H18S 2912   4.523   2.609   8.749  0.8340 -0.7482 -0.9070
   22SAPC  C219 2913   4.469   2.459   8.608 -0.0887  0.4984 -0.3779
   22SAPC  H19R 2914   4.369   2.493   8.574 -0.2199  1.5108  0.9375
   22SAPC  H19S 2915   4.474   2.349   8.604  0.2758  0.3677  2.2089
   22SAPC  C220 2916   4.568   2.511   8.505 -0.1835  0.1019 -0.0158
   22SAPC  H20R 2917   4.569   2.622   8.497  2.0897  0.1147 -0.0785
   22SAPC  H20S 2918   4.555   2.485   8.398  0.6799 -1.7517  0.3013
   22SAPC  H20T 2919   4.669   2.474   8.532 -0.0435  0.1895 -0.4206
   22SAPC   C33 2920   4.924   2.508   9.676  0.2409 -0.2657 -0.0602
   22SAPC   H3X 2921   4.955   2.406   9.645  0.8065  0.0780 -0.6628
   22SAPC   H3Y 2922   5.018   2.563   9.696  1.3155 -2.4431  1.1616
   22SAPC   C34 2923   4.846   2.571   9.558  0.2110 -0.1527 -0.5880
   22SAPC   H4X 2924   4.781   2.652   9.596  0.0981 -0.3968 -0.2612
   22SAPC   H4Y 2925   4.773   2.495   9.522 -0.5076 -1.1642  2.6544
   22SAPC   C35 2926   4.932   2.626   9.444 -0.2608  0.0596 -0.1943
   22SAPC   H5X 2927   4.992   2.544   9.397 -1.6305  1.1356 -4.2761
   22SAPC   H5Y 2928   5.008   2.697   9.483 -0.2963 -1.0519  2.0225
   22SAPC   C36 2929   4.836   2.691   9.340 -0.2173 -0.2725  0.6249
   22SAPC   H6X 2930   4.791   2.780   9.389 -0.6694  0.4236 -0.9895
   22SAPC   H6Y 2931   4.757   2.624   9.300 -0.0217  0.5546 -1.2678
   22SAPC   C37 2932   4.916   2.741   9.222 -0.5157  0.6458  0.2615
   22SAPC   H7X 2933   4.966   2.650   9.184 -2.4917 -0.4001  0.0719
   22SAPC   H7Y 2934   5.003   2.796   9.265  0.7562 -2.9283  2.7330
   22SAPC   C38 2935   4.829   2.799   9.118  0.1417  0.5596  0.1503
   22SAPC   H8X 2936   4.806   2.904   9.147  1.3642  0.8118  0.2324
   22SAPC   H8Y 2937   4.739   2.735   9.109  0.5013  0.0831 -0.0858
   22SAPC   C39 2938   4.903   2.769   8.982 -0.2601  0.0961  0.3181
   22SAPC   H9X 2939   4.940   2.666   8.967  2.9042  1.2833 -0.7888
   22SAPC   H9Y 2940   4.996   2.827   9.001  0.0351 -0.4783  0.6847
   22SAPC  C310 2941   4.828   2.810   8.861  0.5349  0.6559  0.4634
   22SAPC  H10X 2942   4.826   2.921   8.864 -0.3581  0.6622 -0.0252
   22SAPC  H10Y 2943   4.723   2.775   8.861 -0.3025  2.8245 -1.8009
   22SAPC  C311 2944   4.903   2.783   8.732 -0.0850 -0.7674 -0.1487
   22SAPC  H11X 2945   4.934   2.676   8.734  2.1351 -0.1656 -0.4275
   22SAPC  H11Y 2946   4.986   2.856   8.739 -0.8288  0.0328  0.5022
   22SAPC  C312 2947   4.820   2.811   8.612  0.7757  0.3961  0.3256
   22SAPC  H12X 2948   4.763   2.904   8.633 -0.3505  0.1136 -1.2657
   22SAPC  H12Y 2949   4.737   2.738   8.602  0.0918  1.1170  0.6183
   22SAPC  C313 2950   4.890   2.823   8.480  0.5185 -0.2571  0.0260
   22SAPC  H13X 2951   4.942   2.728   8.456 -0.8183 -0.9273 -0.3262
   22SAPC  H13Y 2952   4.972   2.897   8.493 -0.0385  0.8006 -2.0295
   22SAPC  C314 2953   4.789   2.843   8.364  0.3302 -0.5792  0.2572
   22SAPC  H14X 2954   4.722   2.755   8.350  0.1895 -0.5099  0.5021
   22SAPC  H14Y 2955   4.840   2.861   8.266  0.4504 -0.9475  0.2509
   22SAPC  C315 2956   4.688   2.967   8.376 -0.2871 -0.1051 -0.0646
   22SAPC  H15X 2957   4.749   3.058   8.367 -1.3634  0.5037 -1.9493
   22SAPC  H15Y 2958   4.625   2.970   8.467 -1.0175 -1.3655 -0.4929
   22SAPC  C316 2959   4.586   2.960   8.260  0.7598 -0.1587  0.5435
   22SAPC  H16X 2960   4.633   2.959   8.159 -0.8394  0.1013 -0.2388
   22SAPC  H16Y 2961   4.534   3.057   8.276  0.7521 -0.2828  1.3003
   22SAPC  C317 2962   4.492   2.843   8.274  1.2174  0.1790  0.0481
   22SAPC  H17X 2963   4.454   2.840   8.378 -0.5934  1.2185 -0.5353
   22SAPC  H17Y 2964   4.544   2.750   8.243  0.3580  0.8917 -4.2433
   22SAPC  C318 2965   4.366   2.860   8.178 -0.1399  0.7931  0.7429
   22SAPC  H18X 2966   4.316   2.958   8.192  1.1524  1.6376 -0.3335
   22SAPC  H18Y 2967   4.284   2.787   8.198 -0.4370  0.9739  0.2011
   22SAPC  H18Z 2968   4.385   2.852   8.069  1.2042 -0.1244  1.0128
   23SAPC     N 2969   2.290   4.497  11.202 -0.1910 -0.1888 -0.4850
   23SAPC   C12 2970   2.295   4.432  11.068 -0.3850  0.0267 -0.1764
   23SAPC  H12A 2971   2.389   4.379  11.065  0.4398  1.4781 -2.3495
   23SAPC  H12B 2972   2.297   4.507  10.990 -3.3659  0.9445  0.4735
   23SAPC   C13 2973   2.160   4.587  11.218 -0.1499 -0.1504  0.1138
   23SAPC  H13A 2974   2.156   4.668  11.147 -4.0257  1.3193  1.7419
   23SAPC  H13B 2975   2.069   4.531  11.202  0.0504 -0.1719 -1.0349
   23SAPC  H13C 2976   2.162   4.637  11.314  0.8345  0.2352 -0.0927
   23SAPC   C14 2977   2.284   4.389  11.308 -0.3171 -0.0965 -0.0182
   23SAPC  H14A 2978   2.272   4.434  11.405  0.2781 -0.8340  0.4095
   23SAPC  H14B 2979   2.218   4.308  11.280  0.5266 -0.6396 -0.5059
   23SAPC  H14C 2980   2.380   4.340  11.314  0.1114  0.7708  0.3621
   23SAPC   C15 2981   2.409   4.580  11.242 -0.2461 -0.5529 -0.2975
   23SAPC  H15A 2982   2.501   4.549  11.195  0.2451  0.0150  0.2626
   23SAPC  H15B 2983   2.393   4.680  11.206  0.6547 -0.6484 -0.9890
   23SAPC  H15C 2984   2.418   4.565  11.349 -2.5347 -2.0393 -0.2330
   23SAPC   C11 2985   2.189   4.324  11.036  0.5084  0.3499  0.1264
   23SAPC  H11A 2986   2.186   4.306  10.927 -2.1770  1.1236 -0.0044
   23SAPC  H11B 2987   2.090   4.371  11.054  0.3395  1.7239 -3.4907
   23SAPC     P 2988   2.129   4.069  11.085  0.0444 -0.1965  0.1772
   23SAPC   O13 2989   2.164   3.976  11.198  0.2994 -0.2403  0.2791
   23SAPC   O14 2990   1.989   4.111  11.066  0.0358 -0.5514  0.0868
   23SAPC   O12 2991   2.206   4.204  11.105  0.7014  0.2146  0.4918
   23SAPC   O11 2992   2.196   4.019  10.949 -0.0674  0.2722 -0.4890
   23SAPC    C1 2993   2.329   3.970  10.947  0.4763 -0.6626  0.4836
   23SAPC    HA 2994   2.372   3.931  11.042  2.8875 -0.6956 -0.5557
   23SAPC    HB 2995   2.319   3.880  10.883 -1.0794 -1.4437  1.7655
   23SAPC    C2 2996   2.424   4.065  10.870  1.0180 -0.6031  0.2969
   23SAPC    HS 2997   2.403   4.170  10.899  1.5300  0.4774 -2.8372
   23SAPC   O21 2998   2.394   4.058  10.729 -0.2912 -0.0423  0.3605
   23SAPC   C21 2999   2.456   4.139  10.649 -0.6407 -0.4899 -0.9338
   23SAPC   O22 3000   2.536   4.226  10.678 -0.1324 -0.2479  0.0922
   23SAPC   C22 3001   2.422   4.120  10.506 -0.2483 -0.8799  0.5271
   23SAPC   H2R 3002   2.444   4.015  10.477  2.5611 -0.5655  1.1738
   23SAPC   H2S 3003   2.313   4.140  10.493  0.0888  0.9832  0.2476
   23SAPC    C3 3004   2.577   4.021  10.893  0.4167  0.8810 -0.1918
   23SAPC    HX 3005   2.597   4.036  11.001 -0.7914  1.0217  0.0255
   23SAPC    HY 3006   2.643   4.095  10.841 -0.9090  0.9773 -1.8291
   23SAPC   O31 3007   2.594   3.880  10.860  0.6289 -0.1740  0.3990
   23SAPC   C31 3008   2.630   3.836  10.743 -0.4319 -0.2252  0.3639
   23SAPC   O32 3009   2.652   3.904  10.646  0.1989 -0.2716  0.3527
   23SAPC   C32 3010   2.627   3.682  10.752  0.0263 -0.2306  0.0880
   23SAPC   H2X 3011   2.535   3.659  10.811  1.0779 -0.3560  1.7549
   23SAPC   H2Y 3012   2.719   3.655  10.808 -0.7711  1.1200  2.2251
   23SAPC   C23 3013   2.501   4.215  10.407 -0.4204 -0.5091  0.2567
   23SAPC   H3R 3014   2.600   4.166  10.392 -0.0959 -0.1502  1.1859
   23SAPC   H3S 3015   2.517   4.315  10.451  1.6987 -1.2229  1.2400
   23SAPC   C24 3016   2.422   4.231  10.279  0.4138  0.0118  1.0816
   23SAPC   H4R 3017   2.470   4.312  10.220  0.4759 -1.0076 -0.3039
   23SAPC   H4S 3018   2.315   4.258  10.296 -0.3940 -1.4433 -1.2561
   23SAPC   C25 3019   2.409   4.107  10.196  0.1259  0.4360 -0.3146
   23SAPC   H5R 3020   2.358   4.018  10.236  0.7649 -2.1205 -4.6065
   23SAPC   C26 3021   2.454   4.095  10.067  0.5625  0.1234 -0.9283
   23SAPC   H6R 3022   2.459   3.996  10.020  1.0639 -0.3356  0.0648
   23SAPC   C27 3023   2.498   4.206   9.980 -0.3407 -0.1073 -0.2765
   23SAPC   H7R 3024   2.608   4.224   9.985  0.0239 -1.0480 -3.1851
   23SAPC   H7S 3025   2.460   4.304  10.015  0.4109 -0.5621  2.0045
   23SAPC   C28 3026   2.447   4.196   9.835  0.7085 -0.1943 -0.6592
   23SAPC   H8R 3027   2.339   4.210   9.827  0.7059  0.3786  0.2715
   23SAPC   C29 3028   2.508   4.158   9.720  0.0133 -0.1138 -0.1430
   23SAPC   H9R 3029   2.457   4.163   9.623  0.2145  0.7421 -0.2124
   23SAPC  C210 3030   2.658   4.115   9.711  0.4046  0.4695  0.1917
   23SAPC  H10R 3031   2.671   4.029   9.642 -1.2918  2.6395 -3.0990
   23SAPC  H10S 3032   2.700   4.082   9.808  0.6358 -0.5358 -0.2279
   23SAPC  C211 3033   2.729   4.234   9.657 -0.5940  0.2625 -0.1357
   23SAPC  H11R 3034   2.749   4.319   9.724  2.5321 -0.7640  0.3694
   23SAPC  C212 3035   2.795   4.228   9.543  0.3960 -0.1395  0.1823
   23SAPC  H12R 3036   2.844   4.320   9.508  1.5539  0.3289  2.8108
   23SAPC  C213 3037   2.807   4.103   9.456 -0.0282 -0.0697  0.6227
   23SAPC  H13R 3038   2.835   4.121   9.350  2.3378  0.9610  1.3387
   23SAPC  H13S 3039   2.702   4.068   9.450 -0.7238  2.1047 -1.1166
   23SAPC  C214 3040   2.901   4.013   9.527 -0.1397 -0.7452 -0.5719
   23SAPC  H14R 3041   2.930   4.044   9.628 -3.5572  1.5404 -0.1116
   23SAPC  C215 3042   2.962   3.910   9.468  0.4910  0.2720 -0.1486
   23SAPC  H15R 3043   3.026   3.842   9.526 -0.4689 -0.0811  0.5257
   23SAPC  C216 3044   2.950   3.863   9.327 -0.3766 -0.7004  0.5359
   23SAPC  H16R 3045   2.851   3.896   9.289  0.9253  0.6490 -1.9555
   23SAPC  H16S 3046   2.947   3.752   9.331  0.2340 -0.8762 -2.0993
   23SAPC  C217 3047   3.054   3.919   9.222 -0.0996 -0.5766 -0.4041
   23SAPC  H17R 3048   3.029   4.025   9.199 -1.7695 -1.2046 -1.7638
   23SAPC  H17S 3049   3.029   3.880   9.121 -0.6229  0.6985 -0.7882
   23SAPC  C218 3050   3.202   3.891   9.263  0.2955 -0.4155  0.3902
   23SAPC  H18R 3051   3.220   3.783   9.286  0.8352 -0.2150  0.9490
   23SAPC  H18S 3052   3.204   3.929   9.368  1.7714  2.4480 -0.6010
   23SAPC  C219 3053   3.315   3.959   9.181  0.1030  0.1927  0.2794
   23SAPC  H19R 3054   3.308   3.920   9.077  0.4377  1.9980 -0.4613
   23SAPC  H19S 3055   3.413   3.921   9.216  0.8888  2.2013  0.3801
   23SAPC  C220 3056   3.306   4.108   9.178  0.3678  0.5035 -0.4380
   23SAPC  H20R 3057   3.279   4.139   9.281 -0.0006 -3.0721  0.7012
   23SAPC  H20S 3058   3.228   4.135   9.103  1.0212  2.1610 -0.5572
   23SAPC  H20T 3059   3.400   4.163   9.159  1.3869 -0.9910  0.0857
   23SAPC   C33 3060   2.600   3.614  10.615  0.3394 -0.6361  0.0155
   23SAPC   H3X 3061   2.552   3.683  10.543  2.5013 -0.1595 -1.0428
   23SAPC   H3Y 3062   2.539   3.522  10.628  0.8786 -1.1739 -1.1592
   23SAPC   C34 3063   2.726   3.569  10.540  0.5497 -0.0929  0.5743
   23SAPC   H4X 3064   2.754   3.482  10.603 -3.1067 -0.9311  1.2494
   23SAPC   H4Y 3065   2.802   3.650  10.534  0.3145  0.1812  1.1581
   23SAPC   C35 3066   2.691   3.510  10.401  0.1937 -0.7968 -0.0849
   23SAPC   H5X 3067   2.658   3.590  10.332 -1.8140 -0.8793  0.7169
   23SAPC   H5Y 3068   2.601   3.445  10.411 -0.2245 -0.1990  0.0889
   23SAPC   C36 3069   2.800   3.427  10.331 -0.5874 -0.5938  0.6189
   23SAPC   H6X 3070   2.837   3.353  10.405  3.2793  0.6251  0.1037
   23SAPC   H6Y 3071   2.885   3.490  10.298  1.2073 -4.0341 -2.1314
   23SAPC   C37 3072   2.744   3.354  10.208  0.1422 -0.3641  0.1375
   23SAPC   H7X 3073   2.712   3.431  10.134 -0.2574 -1.9107 -1.3489
   23SAPC   H7Y 3074   2.650   3.299  10.232 -0.3908  0.6186  0.4066
   23SAPC   C38 3075   2.849   3.257  10.146  0.4011 -0.3618  0.3155
   23SAPC   H8X 3076   2.855   3.171  10.216  0.1874  0.2767  1.1311
   23SAPC   H8Y 3077   2.948   3.307  10.140  0.2342 -0.0445  0.1904
   23SAPC   C39 3078   2.821   3.202  10.004 -0.3264 -0.1684 -0.0074
   23SAPC   H9X 3079   2.710   3.193   9.995 -0.5093  1.8975 -0.2319
   23SAPC   H9Y 3080   2.869   3.102   9.995  0.3587  0.3635 -3.2082
   23SAPC  C310 3081   2.872   3.288   9.886  0.3752  0.2312  0.5215
   23SAPC  H10X 3082   2.982   3.297   9.897  0.2118  1.1405  1.5812
   23SAPC  H10Y 3083   2.833   3.391   9.904 -1.5416 -0.5202  0.9252
   23SAPC  C311 3084   2.830   3.244   9.749  0.6060  0.1242  0.4228
   23SAPC  H11X 3085   2.719   3.240   9.745  0.6257  0.0123 -2.3849
   23SAPC  H11Y 3086   2.877   3.146   9.725  1.6188  0.4412  1.0683
   23SAPC  C312 3087   2.879   3.363   9.656 -0.1720  0.6398  0.0057
   23SAPC  H12X 3088   2.989   3.370   9.664 -0.1088  0.5335 -0.7184
   23SAPC  H12Y 3089   2.833   3.457   9.693 -2.0491 -0.1937 -0.0628
   23SAPC  C313 3090   2.834   3.341   9.508 -0.2619  0.0632 -0.4269
   23SAPC  H13X 3091   2.725   3.354   9.496 -0.4324 -1.5805 -0.8959
   23SAPC  H13Y 3092   2.862   3.237   9.480 -0.6340 -0.3791  0.8092
   23SAPC  C314 3093   2.919   3.416   9.402 -0.0574  0.2456  0.1557
   23SAPC  H14X 3094   3.026   3.413   9.429  0.5448  1.0692 -1.9813
   23SAPC  H14Y 3095   2.883   3.520   9.392  0.2590  0.1863 -2.0383
   23SAPC  C315 3096   2.918   3.345   9.265  0.4164  0.0431  0.2111
   23SAPC  H15X 3097   2.928   3.238   9.292 -3.7699 -0.6266 -0.1842
   23SAPC  H15Y 3098   3.013   3.366   9.211 -0.5084  0.8957 -1.1623
   23SAPC  C316 3099   2.800   3.378   9.170  0.2757  0.0378 -0.5600
   23SAPC  H16X 3100   2.706   3.355   9.224  0.8553  1.4843  1.1656
   23SAPC  H16Y 3101   2.810   3.308   9.084 -0.2014  1.0389 -1.4488
   23SAPC  C317 3102   2.816   3.516   9.106 -0.4492  0.7950  0.2423
   23SAPC  H17X 3103   2.927   3.518   9.094 -0.4828  0.5231 -0.1340
   23SAPC  H17Y 3104   2.780   3.602   9.165  0.4905  0.1974  1.7418
   23SAPC  C318 3105   2.760   3.519   8.969  0.8703  0.1323  0.6558
   23SAPC  H18X 3106   2.661   3.469   8.981  0.5787  0.5936  0.2140
   23SAPC  H18Y 3107   2.826   3.456   8.906 -0.3323 -0.9668  0.4527
   23SAPC  H18Z 3108   2.757   3.622   8.927 -1.4104 -0.3815 -0.6771
   24SAPC     N 3109   3.302   4.385  11.013 -0.4011 -0.3301 -0.5324
   24SAPC   C12 3110   3.226   4.430  10.895 -0.4798 -0.7127  0.5874
   24SAPC  H12A 3111   3.138   4.368  10.888 -0.3843 -0.8188  0.2960
   24SAPC  H12B 3112   3.280   4.422  10.801 -1.0427  0.7312  0.1158
   24SAPC   C13 3113   3.352   4.247  10.995  0.1595 -0.2139  0.6991
   24SAPC  H13A 3114   3.419   4.212  11.072  0.7154 -0.4393  0.1306
   24SAPC  H13B 3115   3.274   4.172  11.001  1.6228 -2.1971 -2.2010
   24SAPC  H13C 3116   3.407   4.253  10.902 -1.2687  4.0380 -0.0651
   24SAPC   C14 3117   3.419   4.474  11.042  0.0180  0.6740 -0.3947
   24SAPC  H14A 3118   3.478   4.487  10.953 -1.5290  0.4675 -1.4911
   24SAPC  H14B 3119   3.387   4.573  11.072 -2.8361 -0.4765  0.7541
   24SAPC  H14C 3120   3.481   4.433  11.121 -2.2166 -0.8593  0.6787
   24SAPC   C15 3121   3.216   4.382  11.141 -0.0324 -0.2051  0.3825
   24SAPC  H15A 3122   3.147   4.298  11.134 -0.9451  0.4775  1.0517
   24SAPC  H15B 3123   3.271   4.371  11.233 -1.0161 -0.8920  0.9058
   24SAPC  H15C 3124   3.154   4.470  11.144 -1.6445 -1.3200  2.4798
   24SAPC   C11 3125   3.193   4.577  10.882 -0.9575  0.2094 -0.2242
   24SAPC  H11A 3126   3.141   4.613  10.973  1.8681  2.3736  0.6829
   24SAPC  H11B 3127   3.126   4.591  10.795  0.8501  0.0748 -1.6893
   24SAPC     P 3128   3.380   4.671  10.731 -0.3134  0.4557  0.0369
   24SAPC   O13 3129   3.291   4.766  10.659  0.7616 -0.5585 -0.3125
   24SAPC   O14 3130   3.519   4.705  10.750 -0.6482  0.0340 -0.5517
   24SAPC   O12 3131   3.307   4.658  10.873 -0.1389 -0.4461 -0.4485
   24SAPC   O11 3132   3.374   4.520  10.682  0.6358 -0.4792  0.1790
   24SAPC    C1 3133   3.489   4.446  10.648  0.3345  0.7798 -0.7541
   24SAPC    HA 3134   3.566   4.438  10.727  0.9605 -0.1222 -1.4343
   24SAPC    HB 3135   3.451   4.341  10.647  1.1961  0.4185 -3.4799
   24SAPC    C2 3136   3.553   4.480  10.509  0.2697  0.1567  0.1501
   24SAPC    HS 3137   3.602   4.580  10.512 -1.3152  1.0420 -1.3777
   24SAPC   O21 3138   3.449   4.486  10.411  0.1207 -0.0137  0.6425
   24SAPC   C21 3139   3.483   4.550  10.298  0.0733  0.1467 -0.5060
   24SAPC   O22 3140   3.590   4.607  10.273 -0.2800  0.4850  0.1524
   24SAPC   C22 3141   3.373   4.524  10.198  0.0207  0.4195 -0.3772
   24SAPC   H2R 3142   3.307   4.439  10.222  0.9996 -0.0220  0.8987
   24SAPC   H2S 3143   3.304   4.611  10.202 -1.0416 -0.4742  2.5863
   24SAPC    C3 3144   3.656   4.369  10.476  0.1772 -0.9943 -0.1708
   24SAPC    HX 3145   3.604   4.271  10.481  1.9165 -1.9861 -0.5704
   24SAPC    HY 3146   3.726   4.351  10.560  0.3927  0.8005  0.0674
   24SAPC   O31 3147   3.718   4.380  10.345 -0.1937  0.0695  0.0647
   24SAPC   C31 3148   3.843   4.432  10.349  0.2578  0.3798  0.3961
   24SAPC   O32 3149   3.903   4.452  10.452  0.4866 -0.7204  0.1405
   24SAPC   C32 3150   3.888   4.456  10.204 -0.3576  0.4357  0.2569
   24SAPC   H2X 3151   3.804   4.509  10.154  0.0889 -1.4764 -2.8058
   24SAPC   H2Y 3152   3.890   4.356  10.156  0.0935  0.8478 -0.6090
   24SAPC   C23 3153   3.441   4.508  10.067 -0.1071 -0.3275  0.0867
   24SAPC   H3R 3154   3.528   4.439  10.070  0.3740  0.2836  1.2899
   24SAPC   H3S 3155   3.473   4.607  10.028  0.0965  0.2765  1.6813
   24SAPC   C24 3156   3.351   4.447   9.959  0.2673  0.1349  0.2100
   24SAPC   H4R 3157   3.297   4.355   9.988 -0.9743  0.1427 -1.9030
   24SAPC   H4S 3158   3.429   4.416   9.887 -0.6437  0.0606 -0.7677
   24SAPC   C25 3159   3.245   4.542   9.908 -0.3035 -0.3082  0.0705
   24SAPC   H5R 3160   3.185   4.592   9.985  1.8714  2.0295  0.3700
   24SAPC   C26 3161   3.228   4.573   9.778  0.5204  0.0474 -0.8699
   24SAPC   H6R 3162   3.147   4.644   9.753 -0.2950 -0.0778  1.2028
   24SAPC   C27 3163   3.289   4.511   9.658 -0.0356 -0.2750 -0.3188
   24SAPC   H7R 3164   3.383   4.453   9.670  0.2684  0.4966  1.2435
   24SAPC   H7S 3165   3.307   4.594   9.586  0.9913 -0.2262 -0.0185
   24SAPC   C28 3166   3.194   4.419   9.589 -0.5199  0.0955  0.4656
   24SAPC   H8R 3167   3.169   4.335   9.655  0.3801 -1.1994 -0.7891
   24SAPC   C29 3168   3.137   4.423   9.466  0.4256  0.7598 -0.6646
   24SAPC   H9R 3169   3.071   4.338   9.444 -2.2174  2.5655 -0.1783
   24SAPC  C210 3170   3.161   4.515   9.347 -0.2666  0.6350 -0.0107
   24SAPC  H10R 3171   3.138   4.620   9.373  1.6400  1.3038 -0.8194
   24SAPC  H10S 3172   3.092   4.484   9.266  0.5844  1.2401 -0.9778
   24SAPC  C211 3173   3.303   4.519   9.288 -0.3785  0.2909 -0.4247
   24SAPC  H11R 3174   3.390   4.523   9.355  0.7076  0.9839 -1.8211
   24SAPC  C212 3175   3.339   4.527   9.158  1.4339 -0.1757  0.4069
   24SAPC  H12R 3176   3.448   4.535   9.144  1.3172 -0.8132 -1.0888
   24SAPC  C213 3177   3.254   4.524   9.038 -0.0185 -0.4338  0.4295
   24SAPC  H13R 3178   3.269   4.617   8.980  0.5791 -0.3938  0.6450
   24SAPC  H13S 3179   3.147   4.530   9.069  0.5105  0.2369  2.2449
   24SAPC  C214 3180   3.287   4.409   8.943  0.1921  0.0414  0.0806
   24SAPC  H14R 3181   3.348   4.331   8.990  0.7783  0.4715  0.0333
   24SAPC  C215 3182   3.282   4.417   8.810  0.0011  0.1544  0.5463
   24SAPC  H15R 3183   3.339   4.348   8.746 -1.8082 -0.5179 -0.4186
   24SAPC  C216 3184   3.219   4.520   8.722  0.0246 -0.3250 -0.0575
   24SAPC  H16R 3185   3.301   4.577   8.674  0.7962 -1.1293  0.2864
   24SAPC  H16S 3186   3.160   4.593   8.782 -1.3110 -0.2736 -1.3753
   24SAPC  C217 3187   3.131   4.471   8.609  0.5411 -0.0458 -0.3095
   24SAPC  H17R 3188   3.183   4.402   8.540 -0.7926 -1.0369 -0.3813
   24SAPC  H17S 3189   3.105   4.564   8.553  0.3050  0.9685  1.4279
   24SAPC  C218 3190   2.997   4.401   8.665  0.9607  1.1424 -0.1339
   24SAPC  H18R 3191   2.935   4.465   8.731 -1.1096 -0.2208 -0.6490
   24SAPC  H18S 3192   3.034   4.320   8.732  1.1406 -0.7669 -2.4109
   24SAPC  C219 3193   2.900   4.336   8.564  0.3023  0.8611  0.0602
   24SAPC  H19R 3194   2.848   4.416   8.508  1.4673  0.3928 -1.7784
   24SAPC  H19S 3195   2.814   4.284   8.610  0.3369 -0.6323 -1.4913
   24SAPC  C220 3196   2.963   4.232   8.471 -0.5120 -0.3189  0.0451
   24SAPC  H20R 3197   2.978   4.138   8.529  2.1608  0.6336  1.0793
   24SAPC  H20S 3198   3.057   4.258   8.417  0.4794 -2.2607  0.7318
   24SAPC  H20T 3199   2.895   4.196   8.391 -1.1820 -0.6874  0.7633
   24SAPC   C33 3200   4.011   4.542  10.179 -0.0180  0.2601 -1.1948
   24SAPC   H3X 3201   4.102   4.493  10.219  0.0129  1.0520 -0.2491
   24SAPC   H3Y 3202   4.011   4.642  10.227 -0.2221  0.8052 -2.3001
   24SAPC   C34 3203   4.044   4.550  10.031  0.2332 -0.5874  0.5017
   24SAPC   H4X 3204   3.962   4.592   9.968 -0.5143 -1.5907  0.7742
   24SAPC   H4Y 3205   4.080   4.456   9.985  1.3002 -0.4206  0.9832
   24SAPC   C35 3206   4.156   4.657   9.997  0.0623  0.2129  0.7703
   24SAPC   H5X 3207   4.248   4.603  10.027 -1.0242 -0.8286  2.3726
   24SAPC   H5Y 3208   4.137   4.754  10.048  0.7057 -0.2290  1.8890
   24SAPC   C36 3209   4.167   4.682   9.845 -0.5996 -0.4286 -0.2611
   24SAPC   H6X 3210   4.063   4.711   9.819 -0.4735  1.4353  1.1505
   24SAPC   H6Y 3211   4.196   4.586   9.796 -0.5725 -0.7986  0.4729
   24SAPC   C37 3212   4.267   4.783   9.789  0.1535 -0.2957  0.1035
   24SAPC   H7X 3213   4.366   4.733   9.786 -0.0740 -0.7098 -1.0035
   24SAPC   H7Y 3214   4.262   4.872   9.856 -1.2297 -0.2335 -0.0616
   24SAPC   C38 3215   4.217   4.833   9.652  0.2132  0.7959 -0.9077
   24SAPC   H8X 3216   4.275   4.922   9.621  0.1656  1.3718  0.5590
   24SAPC   H8Y 3217   4.111   4.866   9.661 -0.1663 -0.3073 -1.1564
   24SAPC   C39 3218   4.208   4.728   9.538 -0.2369 -0.2468  0.1534
   24SAPC   H9X 3219   4.144   4.641   9.565 -0.6153 -0.4381 -1.3147
   24SAPC   H9Y 3220   4.310   4.693   9.510 -0.5899  0.2530 -1.9102
   24SAPC  C310 3221   4.144   4.775   9.404 -0.4622  1.3641 -0.8745
   24SAPC  H10X 3222   4.177   4.881   9.394 -0.6448  1.4121 -0.9855
   24SAPC  H10Y 3223   4.034   4.772   9.420 -0.1500  0.9770  1.5102
   24SAPC  C311 3224   4.170   4.697   9.276  0.7272  0.1013  0.1383
   24SAPC  H11X 3225   4.113   4.602   9.283 -3.5683  2.4246  0.3003
   24SAPC  H11Y 3226   4.281   4.689   9.278  0.9024  1.0806 -2.4552
   24SAPC  C312 3227   4.135   4.777   9.152  0.2166 -0.5997  0.7308
   24SAPC  H12X 3228   4.204   4.862   9.138 -1.1618  0.1864 -2.0657
   24SAPC  H12Y 3229   4.037   4.825   9.169 -0.9454 -2.4418 -0.3931
   24SAPC  C313 3230   4.154   4.694   9.017  0.7242  0.7915 -0.5263
   24SAPC  H13X 3231   4.101   4.597   9.018  1.3511  0.4075  2.0619
   24SAPC  H13Y 3232   4.260   4.659   9.013  0.1708 -1.6279  2.5949
   24SAPC  C314 3233   4.106   4.775   8.897 -0.5312 -0.4224 -1.3558
   24SAPC  H14X 3234   4.156   4.874   8.896  0.7964 -1.0654 -1.0336
   24SAPC  H14Y 3235   4.003   4.806   8.926  0.0210  1.9632 -1.6977
   24SAPC  C315 3236   4.112   4.709   8.760  0.2261  0.0397 -0.7150
   24SAPC  H15X 3237   4.011   4.671   8.731  1.4705 -3.1070 -1.4048
   24SAPC  H15Y 3238   4.183   4.626   8.781  0.1156  0.5958  2.2891
   24SAPC  C316 3239   4.142   4.793   8.647  0.6360 -0.4936 -0.3404
   24SAPC  H16X 3240   4.152   4.734   8.554  1.0584 -1.5480  0.3475
   24SAPC  H16Y 3241   4.241   4.841   8.667 -0.2461  1.6566 -0.9153
   24SAPC  C317 3242   4.044   4.913   8.634 -0.5610 -0.0332  0.7227
   24SAPC  H17X 3243   4.073   4.989   8.710  2.1162 -2.3442  2.2407
   24SAPC  H17Y 3244   3.942   4.872   8.648 -0.8821 -0.0364 -1.3397
   24SAPC  C318 3245   4.040   4.970   8.489  0.9996 -0.1387 -0.3978
   24SAPC  H18X 3246   4.141   5.014   8.478  0.3563  1.9249  1.1983
   24SAPC  H18Y 3247   3.959   5.047   8.485 -2.1954 -3.0992  1.4479
   24SAPC  H18Z 3248   4.019   4.887   8.418  0.3664  1.0712 -1.6778
   25SAPC     N 3249   6.577   2.810   6.427 -0.0093  0.3263 -0.1546
   25SAPC   C12 3250   6.442   2.888   6.409  0.5648  0.2563 -0.4273
   25SAPC  H12A 3251   6.438   2.965   6.485  0.5209  1.2315 -1.3962
   25SAPC  H12B 3252   6.362   2.825   6.446 -0.2761  1.3305 -0.3838
   25SAPC   C13 3253   6.562   2.688   6.338  0.2980 -0.1769 -0.2015
   25SAPC  H13A 3254   6.498   2.607   6.368  0.6349 -1.5761 -2.9555
   25SAPC  H13B 3255   6.518   2.713   6.242  0.1958  2.9747  0.5381
   25SAPC  H13C 3256   6.652   2.632   6.320  0.0350  0.1017 -2.6565
   25SAPC   C14 3257   6.692   2.894   6.384 -0.2671  0.2948 -0.3286
   25SAPC  H14A 3258   6.691   2.981   6.447 -1.8231 -0.5544  0.9041
   25SAPC  H14B 3259   6.785   2.843   6.405 -1.4238 -1.5122  0.6827
   25SAPC  H14C 3260   6.691   2.917   6.279  1.8314  1.5556 -0.1265
   25SAPC   C15 3261   6.606   2.760   6.560  0.3836  0.2820 -0.4140
   25SAPC  H15A 3262   6.602   2.844   6.629  0.1662  0.2223 -0.3528
   25SAPC  H15B 3263   6.542   2.679   6.592  1.5699 -1.0577 -1.3183
   25SAPC  H15C 3264   6.700   2.707   6.562 -0.3569 -1.0644  0.4089
   25SAPC   C11 3265   6.394   2.936   6.275 -0.0370  0.4533 -0.2077
   25SAPC  H11A 3266   6.366   2.856   6.203 -2.6016  0.7448  0.3756
   25SAPC  H11B 3267   6.479   2.993   6.233  0.1379  0.4577  0.1461
   25SAPC     P 3268   6.298   3.171   6.328 -0.3277  0.1033 -0.4625
   25SAPC   O13 3269   6.443   3.205   6.355  0.4588  0.3209 -0.3026
   25SAPC   O14 3270   6.229   3.251   6.228 -0.1012 -0.6216  0.3378
   25SAPC   O12 3271   6.283   3.018   6.296  0.0992 -0.3827  0.8394
   25SAPC   O11 3272   6.211   3.168   6.467 -0.1388 -0.8472 -0.8868
   25SAPC    C1 3273   6.080   3.106   6.475 -0.9609 -0.2666  0.3893
   25SAPC    HA 3274   6.018   3.136   6.388 -0.5245 -0.6539 -0.0584
   25SAPC    HB 3275   6.098   2.997   6.467 -0.0012 -0.1857  1.2267
   25SAPC    C2 3276   6.002   3.151   6.606 -0.5240 -0.2371  0.1666
   25SAPC    HS 3277   5.963   3.251   6.579  1.0062  1.1722  2.7559
   25SAPC   O21 3278   6.086   3.171   6.719  0.3090  0.3134  0.2310
   25SAPC   C21 3279   6.109   3.289   6.764  0.1979  0.4214  0.1854
   25SAPC   O22 3280   6.090   3.397   6.711  0.3021  0.2157 -0.5526
   25SAPC   C22 3281   6.146   3.279   6.909 -0.8327 -0.4457 -0.1237
   25SAPC   H2R 3282   6.142   3.171   6.938  1.5230 -0.9485 -1.3960
   25SAPC   H2S 3283   6.249   3.316   6.922 -0.8036  0.8888 -3.2772
   25SAPC    C3 3284   5.898   3.045   6.637  0.3115  0.1190  0.5145
   25SAPC    HX 3285   5.948   2.947   6.626 -0.4933 -0.1574 -0.8722
   25SAPC    HY 3286   5.820   3.044   6.558  0.6527 -3.2628  0.0900
   25SAPC   O31 3287   5.851   3.057   6.776 -0.0785 -0.4990  0.3162
   25SAPC   C31 3288   5.748   3.144   6.783  0.9826 -0.4099 -0.6370
   25SAPC   O32 3289   5.716   3.220   6.694  0.5932  0.2857  0.5146
   25SAPC   C32 3290   5.691   3.151   6.928  0.4936  0.3843  0.0716
   25SAPC   H2X 3291   5.584   3.121   6.926  0.5919  0.0474 -0.6352
   25SAPC   H2Y 3292   5.690   3.261   6.946 -0.4647  0.4708 -0.4041
   25SAPC   C23 3293   6.046   3.337   7.014  0.5382 -0.1224  0.2680
   25SAPC   H3R 3294   6.052   3.286   7.112 -1.3436 -2.4455 -0.7052
   25SAPC   H3S 3295   5.941   3.322   6.980  1.0786  0.4191 -1.7893
   25SAPC   C24 3296   6.057   3.487   7.027  0.2441  0.6777 -0.0224
   25SAPC   H4R 3297   5.963   3.521   7.074  0.7477  0.2842  1.3202
   25SAPC   H4S 3298   6.063   3.535   6.927  3.0479 -0.0233 -0.2870
   25SAPC   C25 3299   6.176   3.536   7.099  0.3607 -0.5474 -0.2399
   25SAPC   H5R 3300   6.268   3.542   7.039  1.2996 -1.7928  0.9839
   25SAPC   C26 3301   6.185   3.570   7.222 -0.4816  0.1761  0.3719
   25SAPC   H6R 3302   6.288   3.588   7.257 -0.3325  1.1239 -0.5157
   25SAPC   C27 3303   6.075   3.575   7.327 -0.1338  0.6069  0.1816
   25SAPC   H7R 3304   6.128   3.566   7.424  0.8417 -0.3046 -0.4156
   25SAPC   H7S 3305   6.024   3.477   7.323  2.4225 -0.8432  1.1248
   25SAPC   C28 3306   5.973   3.682   7.329  0.5890 -0.7145 -0.4472
   25SAPC   H8R 3307   5.952   3.721   7.228  0.6401 -1.6877 -0.8379
   25SAPC   C29 3308   5.906   3.728   7.437  0.3816 -0.0480  0.4376
   25SAPC   H9R 3309   5.857   3.825   7.420  0.7295 -0.1422 -1.3366
   25SAPC  C210 3310   5.931   3.678   7.581 -0.3652 -1.1456  0.1458
   25SAPC  H10R 3311   5.995   3.751   7.635 -0.6609  0.3892 -1.5046
   25SAPC  H10S 3312   5.987   3.582   7.584  0.4442 -0.7120 -0.6734
   25SAPC  C211 3313   5.798   3.662   7.661 -0.4140  0.5454  0.1824
   25SAPC  H11R 3314   5.712   3.636   7.597  0.7387 -1.3191 -0.6966
   25SAPC  C212 3315   5.777   3.665   7.790 -0.2048 -0.1654  0.4192
   25SAPC  H12R 3316   5.677   3.642   7.829 -0.4914  1.2487  0.5982
   25SAPC  C213 3317   5.890   3.675   7.897  0.6370  0.2042 -0.1238
   25SAPC  H13R 3318   5.895   3.779   7.936 -3.5018  0.4112  0.2430
   25SAPC  H13S 3319   5.994   3.657   7.860  0.9670  2.0933 -0.2124
   25SAPC  C214 3320   5.864   3.578   8.007  0.0165 -0.4277  0.5637
   25SAPC  H14R 3321   5.928   3.489   8.008 -0.3272 -0.7125 -0.7511
   25SAPC  C215 3322   5.774   3.608   8.108 -0.4445  0.0053  0.2108
   25SAPC  H15R 3323   5.742   3.527   8.174  0.2842 -0.5989 -0.1682
   25SAPC  C216 3324   5.688   3.723   8.118  0.9131  0.0335 -0.2498
   25SAPC  H16R 3325   5.699   3.784   8.026  0.7619 -1.5718 -1.3758
   25SAPC  H16S 3326   5.717   3.788   8.204 -2.0073  1.0974  0.0368
   25SAPC  C217 3327   5.535   3.700   8.133  0.0277  0.5993 -0.5946
   25SAPC  H17R 3328   5.496   3.667   8.034  2.3153  0.1049 -1.3989
   25SAPC  H17S 3329   5.496   3.797   8.168  3.9793  2.7999 -1.6703
   25SAPC  C218 3330   5.506   3.583   8.232 -0.2203  0.1175  0.2499
   25SAPC  H18R 3331   5.563   3.583   8.327 -0.0887  0.5035  0.1717
   25SAPC  H18S 3332   5.546   3.495   8.179 -0.8353  0.4681 -0.8315
   25SAPC  C219 3333   5.351   3.563   8.255 -1.1343  0.1104 -0.1476
   25SAPC  H19R 3334   5.297   3.660   8.256  0.1100  0.8271  1.1358
   25SAPC  H19S 3335   5.339   3.526   8.359 -1.2807  0.9460  0.1392
   25SAPC  C220 3336   5.277   3.474   8.156 -0.5441  0.0690 -0.0267
   25SAPC  H20R 3337   5.283   3.517   8.054  3.7517  2.8385  1.1176
   25SAPC  H20S 3338   5.170   3.456   8.179 -0.6734 -0.2757 -0.8551
   25SAPC  H20T 3339   5.325   3.374   8.153  1.6192  1.0638 -0.1176
   25SAPC   C33 3340   5.761   3.072   7.034  0.2399  0.8344 -0.0511
   25SAPC   H3X 3341   5.868   3.098   7.050  0.1755 -0.1894  2.6624
   25SAPC   H3Y 3342   5.757   2.963   7.011  0.8597  0.4685  1.4466
   25SAPC   C34 3343   5.693   3.087   7.170 -0.0872 -0.0133  0.5610
   25SAPC   H4X 3344   5.685   2.981   7.201  0.3534  0.2083  1.4731
   25SAPC   H4Y 3345   5.591   3.129   7.158  0.3322  0.8545 -0.0732
   25SAPC   C35 3346   5.768   3.177   7.269 -0.2703  0.9262  0.6393
   25SAPC   H5X 3347   5.744   3.281   7.238 -2.6072 -0.3145 -2.1602
   25SAPC   H5Y 3348   5.877   3.153   7.262 -0.1729  1.4249  0.3718
   25SAPC   C36 3349   5.708   3.157   7.414  0.5759  0.0627  0.8165
   25SAPC   H6X 3350   5.684   3.053   7.444  0.8310  0.2869  1.8428
   25SAPC   H6Y 3351   5.623   3.228   7.421  0.6551  0.1723  0.6715
   25SAPC   C37 3352   5.814   3.217   7.511  0.4745  0.1638  0.0992
   25SAPC   H7X 3353   5.857   3.309   7.467  2.2641 -0.8008 -0.2630
   25SAPC   H7Y 3354   5.899   3.145   7.511  0.3973  0.0263 -1.8645
   25SAPC   C38 3355   5.758   3.254   7.649  0.1578  0.1468 -0.4057
   25SAPC   H8X 3356   5.663   3.310   7.637 -0.9576 -1.4625  0.5766
   25SAPC   H8Y 3357   5.830   3.316   7.707  1.9916 -2.8332  0.7342
   25SAPC   C39 3358   5.734   3.136   7.745  0.1502 -0.3715  0.0778
   25SAPC   H9X 3359   5.821   3.069   7.763 -1.0648 -1.0267  4.5890
   25SAPC   H9Y 3360   5.660   3.071   7.694  0.5904 -1.1458  0.4181
   25SAPC  C310 3361   5.678   3.159   7.885 -0.5954 -0.9334  0.3542
   25SAPC  H10X 3362   5.583   3.217   7.885  0.2051  0.4648 -1.0462
   25SAPC  H10Y 3363   5.751   3.231   7.928 -1.4542  0.3277 -0.2290
   25SAPC  C311 3364   5.666   3.035   7.973  0.3700 -0.1255  0.0334
   25SAPC  H11X 3365   5.766   2.988   7.970  0.7747  0.7542 -1.9126
   25SAPC  H11Y 3366   5.599   2.965   7.919 -0.1452  0.0449  0.4471
   25SAPC  C312 3367   5.608   3.072   8.108 -0.0955 -0.3707  0.5137
   25SAPC  H12X 3368   5.504   3.107   8.093  0.2163  0.0067 -0.9230
   25SAPC  H12Y 3369   5.668   3.158   8.145  0.2627 -0.5112  0.2641
   25SAPC  C313 3370   5.606   2.966   8.220  0.9500 -0.2829  0.2061
   25SAPC  H13X 3371   5.561   2.870   8.187 -0.2465  0.6719 -1.0085
   25SAPC  H13Y 3372   5.549   3.022   8.298  1.5843  0.6136  0.0369
   25SAPC  C314 3373   5.739   2.948   8.291  0.2407 -0.3206 -0.3947
   25SAPC  H14X 3374   5.785   3.048   8.307 -0.0453  0.0447 -1.7204
   25SAPC  H14Y 3375   5.802   2.887   8.223 -1.6001 -1.9999 -0.6992
   25SAPC  C315 3376   5.725   2.872   8.425  0.3705 -0.0254  0.4652
   25SAPC  H15X 3377   5.638   2.805   8.413 -1.6941  2.3634  1.2457
   25SAPC  H15Y 3378   5.681   2.939   8.503 -1.0261  0.0251 -0.3318
   25SAPC  C316 3379   5.855   2.817   8.476  0.3577 -0.0216  0.0299
   25SAPC  H16X 3380   5.931   2.896   8.497  4.3641 -3.0207 -1.8469
   25SAPC  H16Y 3381   5.908   2.744   8.411  1.0758  0.7074 -0.2224
   25SAPC  C317 3382   5.837   2.762   8.621 -0.4183  0.8759 -0.4952
   25SAPC  H17X 3383   5.776   2.829   8.686 -0.4358  0.4028 -0.0183
   25SAPC  H17Y 3384   5.936   2.743   8.668 -0.7158 -0.3788 -0.3629
   25SAPC  C318 3385   5.752   2.636   8.616  0.2099  0.6365 -0.1818
   25SAPC  H18X 3386   5.810   2.557   8.564 -0.4736  1.2939 -2.0439
   25SAPC  H18Y 3387   5.653   2.651   8.568  0.0830 -1.5537 -0.7216
   25SAPC  H18Z 3388   5.748   2.606   8.722  0.5344 -0.4360 -0.4598
   26SAPC     N 3389   5.298   6.283   6.180  0.1065 -0.4712 -0.4110
   26SAPC   C12 3390   5.376   6.206   6.275  0.1883 -0.5492 -0.0335
   26SAPC  H12A 3391   5.335   6.107   6.289 -2.7010  0.5504 -0.1112
   26SAPC  H12B 3392   5.371   6.255   6.371  1.6736  1.3033 -0.8357
   26SAPC   C13 3393   5.305   6.231   6.043  0.0566 -0.0559  0.3643
   26SAPC  H13A 3394   5.400   6.203   6.000  0.0392  1.1609 -0.5346
   26SAPC  H13B 3395   5.260   6.133   6.032  1.3868 -0.7331  0.6554
   26SAPC  H13C 3396   5.260   6.297   5.970  0.9158  0.6792  0.4907
   26SAPC   C14 3397   5.151   6.287   6.233 -0.3323  0.0646  0.3107
   26SAPC  H14A 3398   5.121   6.183   6.238 -1.4378  0.3515 -0.2444
   26SAPC  H14B 3399   5.149   6.341   6.326  0.6817 -0.6355  0.7683
   26SAPC  H14C 3400   5.074   6.327   6.170 -1.3519 -0.2684  1.3112
   26SAPC   C15 3401   5.346   6.424   6.172  0.3008 -0.7359  0.3492
   26SAPC  H15A 3402   5.335   6.482   6.263  0.1639  0.8503 -0.6469
   26SAPC  H15B 3403   5.445   6.439   6.131 -0.1416  1.5592 -0.0270
   26SAPC  H15C 3404   5.279   6.476   6.106  1.1745 -1.6462 -1.3108
   26SAPC   C11 3405   5.526   6.190   6.244  0.1730  0.7280  1.1503
   26SAPC  H11A 3406   5.572   6.159   6.340  1.1480  0.6405  0.6687
   26SAPC  H11B 3407   5.569   6.286   6.208  0.2503  0.1310 -0.4533
   26SAPC     P 3408   5.515   5.934   6.165  0.4702  0.1018  0.5076
   26SAPC   O13 3409   5.367   5.917   6.172 -0.0967 -0.0338  0.4188
   26SAPC   O14 3410   5.592   5.857   6.062 -0.3532 -0.0130  0.2516
   26SAPC   O12 3411   5.550   6.086   6.148 -0.4759  0.0970 -0.3883
   26SAPC   O11 3412   5.579   5.895   6.309 -0.0626  0.4582  0.6155
   26SAPC    C1 3413   5.516   5.796   6.393  0.4320 -0.6023  0.2310
   26SAPC    HA 3414   5.458   5.730   6.325 -0.6112  1.3617 -0.8823
   26SAPC    HB 3415   5.594   5.723   6.424  1.2266 -0.0869 -0.4799
   26SAPC    C2 3416   5.465   5.851   6.522 -0.0108 -1.0074 -0.0300
   26SAPC    HS 3417   5.440   5.764   6.585 -1.5235 -0.5780  0.0079
   26SAPC   O21 3418   5.344   5.937   6.492 -0.1574  0.0093 -0.3208
   26SAPC   C21 3419   5.236   5.866   6.458  0.6366 -0.7241  0.3871
   26SAPC   O22 3420   5.227   5.748   6.443  0.5920  0.2715 -0.2356
   26SAPC   C22 3421   5.122   5.964   6.419  0.4814  0.0260 -0.4953
   26SAPC   H2R 3422   5.132   5.996   6.314 -3.7410  2.5492 -0.3669
   26SAPC   H2S 3423   5.028   5.907   6.435  1.0468 -0.7947  0.0244
   26SAPC    C3 3424   5.568   5.944   6.597  0.1503  0.5486  0.5223
   26SAPC    HX 3425   5.561   6.045   6.550 -2.2570  0.1563 -0.0786
   26SAPC    HY 3426   5.667   5.898   6.578  0.7109  1.3372  1.4610
   26SAPC   O31 3427   5.534   5.953   6.737 -0.0419 -0.6297 -0.1929
   26SAPC   C31 3428   5.628   6.023   6.798  0.0297 -0.3268  0.4677
   26SAPC   O32 3429   5.730   6.066   6.747  0.0540 -0.4714  0.0381
   26SAPC   C32 3430   5.583   6.019   6.942  0.0330 -0.2036  0.3479
   26SAPC   H2X 3431   5.557   5.913   6.961 -1.9579 -0.0927 -1.3616
   26SAPC   H2Y 3432   5.489   6.077   6.954 -1.0276 -2.1119  1.9400
   26SAPC   C23 3433   5.122   6.097   6.502 -0.5047  0.0581  0.0727
   26SAPC   H3R 3434   5.027   6.152   6.480 -1.2114 -1.7849 -1.8179
   26SAPC   H3S 3435   5.207   6.162   6.471 -0.0186 -0.4397  0.3677
   26SAPC   C24 3436   5.135   6.076   6.651  0.9683 -0.3986 -1.0364
   26SAPC   H4R 3437   5.142   6.176   6.699 -0.2837 -0.8617  0.1761
   26SAPC   H4S 3438   5.229   6.024   6.680 -0.9890 -3.6583  0.0143
   26SAPC   C25 3439   5.014   6.013   6.718  0.0669 -0.7673  0.3451
   26SAPC   H5R 3440   4.925   6.010   6.652  1.2296  0.7413 -1.3870
   26SAPC   C26 3441   5.016   5.951   6.833 -0.4693  0.0087 -0.6113
   26SAPC   H6R 3442   4.926   5.898   6.868 -1.3805  0.9493 -1.4760
   26SAPC   C27 3443   5.129   5.940   6.926 -0.4269 -0.4271 -0.0694
   26SAPC   H7R 3444   5.137   6.045   6.962 -0.5487 -0.7524  0.9454
   26SAPC   H7S 3445   5.217   5.910   6.865 -0.2495  2.2928 -1.2957
   26SAPC   C28 3446   5.106   5.846   7.040 -0.4749  0.4545  0.0721
   26SAPC   H8R 3447   5.099   5.742   7.005  1.4279  0.9879 -2.1913
   26SAPC   C29 3448   5.123   5.872   7.171 -0.2337 -0.3942  0.5213
   26SAPC   H9R 3449   5.096   5.799   7.249 -2.5294  0.3693  0.5056
   26SAPC  C210 3450   5.177   5.999   7.227 -0.5220  0.0949  0.0367
   26SAPC  H10R 3451   5.180   6.089   7.161 -0.9274  0.4865  0.5493
   26SAPC  H10S 3452   5.283   5.995   7.261 -0.0863  3.6373 -0.5055
   26SAPC  C211 3453   5.094   6.045   7.349 -0.0014  0.5139  0.9673
   26SAPC  H11R 3454   4.989   6.059   7.320  0.0996 -0.2398  0.2095
   26SAPC  C212 3455   5.123   6.055   7.482  0.1259  0.1803  0.2723
   26SAPC  H12R 3456   5.040   6.089   7.546 -1.3072  0.9369 -1.8958
   26SAPC  C213 3457   5.261   6.034   7.539 -0.4017 -0.0505  0.3842
   26SAPC  H13R 3458   5.281   6.129   7.594 -0.5086  0.7449 -0.9019
   26SAPC  H13S 3459   5.329   6.024   7.452  0.0622 -0.7011  0.8105
   26SAPC  C214 3460   5.307   5.930   7.632  0.1502  0.1809  0.4309
   26SAPC  H14R 3461   5.367   5.850   7.587 -2.2429 -2.7545  2.1154
   26SAPC  C215 3462   5.259   5.913   7.758  0.2304  0.1760 -0.4350
   26SAPC  H15R 3463   5.305   5.837   7.822  0.6204  1.1387  0.4649
   26SAPC  C216 3464   5.164   6.001   7.830 -0.3814 -0.7921  0.4039
   26SAPC  H16R 3465   5.063   5.954   7.835 -0.1941 -1.7225 -2.3946
   26SAPC  H16S 3466   5.151   6.092   7.767  0.0059 -0.2532  1.1047
   26SAPC  C217 3467   5.209   6.048   7.970 -0.4320 -0.1739  0.2142
   26SAPC  H17R 3468   5.116   6.101   7.999 -1.3594 -2.3973  1.4790
   26SAPC  H17S 3469   5.292   6.122   7.971 -0.7844  0.3152  3.6178
   26SAPC  C218 3470   5.225   5.930   8.062 -0.2458  0.2270 -0.1791
   26SAPC  H18R 3471   5.312   5.868   8.031 -1.6506 -1.7172 -0.3830
   26SAPC  H18S 3472   5.135   5.866   8.066  0.6768 -1.0514  2.0242
   26SAPC  C219 3473   5.250   5.976   8.211 -0.3898 -0.1658 -0.0307
   26SAPC  H19R 3474   5.279   5.890   8.274  2.8919 -0.7104 -2.0715
   26SAPC  H19S 3475   5.158   6.029   8.245  0.3560  0.8551  0.4226
   26SAPC  C220 3476   5.364   6.075   8.237 -0.5028 -0.3244 -0.3485
   26SAPC  H20R 3477   5.365   6.099   8.346 -4.8188 -0.3085 -0.1566
   26SAPC  H20S 3478   5.342   6.172   8.188 -0.6352 -0.4367 -0.5097
   26SAPC  H20T 3479   5.461   6.044   8.193  0.6026 -0.9568  2.3503
   26SAPC   C33 3480   5.679   6.086   7.042  0.4135 -0.3065 -0.1522
   26SAPC   H3X 3481   5.715   6.187   7.014 -0.7075  0.5994  1.5071
   26SAPC   H3Y 3482   5.771   6.026   7.059  0.2832 -0.3061  0.5678
   26SAPC   C34 3483   5.607   6.091   7.174  0.3428  0.4417 -0.6081
   26SAPC   H4X 3484   5.565   5.990   7.195 -1.7069  0.7110 -2.9373
   26SAPC   H4Y 3485   5.517   6.156   7.167  1.2383  1.5145 -4.1012
   26SAPC   C35 3486   5.695   6.131   7.291 -0.7629  0.1834  0.2224
   26SAPC   H5X 3487   5.727   6.236   7.282  0.7634 -0.0655  2.1933
   26SAPC   H5Y 3488   5.777   6.060   7.315 -1.2329 -0.9098 -1.1968
   26SAPC   C36 3489   5.614   6.112   7.425  0.5540 -0.0478  0.6939
   26SAPC   H6X 3490   5.581   6.007   7.441  1.4008 -0.7161 -1.5863
   26SAPC   H6Y 3491   5.520   6.170   7.410  0.4171  0.0224  1.7911
   26SAPC   C37 3492   5.688   6.173   7.545  0.8396  0.5942  0.2560
   26SAPC   H7X 3493   5.720   6.277   7.522 -0.0280  0.3699 -2.3498
   26SAPC   H7Y 3494   5.776   6.114   7.580 -0.3362 -2.9242 -2.0736
   26SAPC   C38 3495   5.605   6.180   7.678 -0.6210 -0.4380 -0.0521
   26SAPC   H8X 3496   5.577   6.074   7.695  0.6039 -1.0168 -1.4344
   26SAPC   H8Y 3497   5.517   6.246   7.656  0.1972  0.3033 -1.2803
   26SAPC   C39 3498   5.686   6.226   7.799 -0.0496  0.8042 -0.4586
   26SAPC   H9X 3499   5.702   6.336   7.789 -0.1678  1.0295  1.4563
   26SAPC   H9Y 3500   5.780   6.171   7.821 -0.1914  0.5248 -0.5485
   26SAPC  C310 3501   5.601   6.213   7.923  0.3800 -0.3142 -0.0369
   26SAPC  H10X 3502   5.594   6.108   7.958 -3.1236  0.3804  1.7511
   26SAPC  H10Y 3503   5.497   6.244   7.896  0.0215 -2.3797 -1.1995
   26SAPC  C311 3504   5.650   6.303   8.035 -0.0232 -0.4708  0.0920
   26SAPC  H11X 3505   5.563   6.318   8.102 -0.4624 -1.2289 -0.2858
   26SAPC  H11Y 3506   5.677   6.405   8.003 -0.5206  0.1657  1.6177
   26SAPC  C312 3507   5.759   6.247   8.126 -0.4450  0.2490 -0.4448
   26SAPC  H12X 3508   5.852   6.221   8.072  0.3394  2.0481 -0.0484
   26SAPC  H12Y 3509   5.728   6.155   8.180  1.1184 -0.4745 -0.7281
   26SAPC  C313 3510   5.779   6.346   8.246  0.1083  0.2819  0.2922
   26SAPC  H13X 3511   5.775   6.449   8.204 -2.5820 -0.4631 -1.5388
   26SAPC  H13Y 3512   5.883   6.336   8.284 -0.0888 -1.9021  0.3479
   26SAPC  C314 3513   5.680   6.325   8.363 -0.8472 -0.4814  0.3987
   26SAPC  H14X 3514   5.688   6.219   8.396  3.7153  0.6014  3.8937
   26SAPC  H14Y 3515   5.578   6.355   8.331 -0.3097  0.6506 -0.3134
   26SAPC  C315 3516   5.725   6.421   8.474  0.3020  0.0288  0.0058
   26SAPC  H15X 3517   5.724   6.528   8.446  0.0328 -0.0781 -0.4175
   26SAPC  H15Y 3518   5.831   6.401   8.500  0.0889 -1.2928 -0.0352
   26SAPC  C316 3519   5.635   6.396   8.601 -0.2517 -0.7966 -0.5256
   26SAPC  H16X 3520   5.675   6.452   8.688  1.6480 -0.5393 -1.5270
   26SAPC  H16Y 3521   5.630   6.290   8.634 -1.8829 -0.0342  1.9560
   26SAPC  C317 3522   5.490   6.448   8.581  0.1465 -0.2703  0.3734
   26SAPC  H17X 3523   5.442   6.382   8.505  1.2234 -1.1932  0.4671
   26SAPC  H17Y 3524   5.483   6.552   8.544 -0.7223 -0.2164  0.6764
   26SAPC  C318 3525   5.416   6.443   8.712 -0.3651 -0.0253  0.0992
   26SAPC  H18X 3526   5.305   6.450   8.703 -0.2136  2.2814 -0.6867
   26SAPC  H18Y 3527   5.455   6.525   8.776  0.5155 -0.0338 -0.4085
   26SAPC  H18Z 3528   5.440   6.347   8.763  0.1657 -0.0522 -0.1963
   27SAPC     N 3529   3.132   6.486   6.175  0.1981  0.0815  0.0455
   27SAPC   C12 3530   3.233   6.405   6.261  0.2746 -0.2674  0.8072
   27SAPC  H12A 3531   3.283   6.339   6.191 -0.0337 -1.1892  1.4311
   27SAPC  H12B 3532   3.187   6.342   6.336  2.2198 -1.0410  1.4172
   27SAPC   C13 3533   3.063   6.584   6.255 -0.3805 -0.2814  0.5533
   27SAPC  H13A 3534   2.998   6.648   6.197  1.1607 -1.0152 -2.1050
   27SAPC  H13B 3535   3.000   6.536   6.329 -1.9280 -0.8782 -1.0682
   27SAPC  H13C 3536   3.128   6.657   6.301 -1.1207 -0.3360  1.7382
   27SAPC   C14 3537   3.201   6.551   6.063 -0.3394 -0.0747  0.2516
   27SAPC  H14A 3538   3.249   6.476   6.001 -1.2063 -1.0518  0.7284
   27SAPC  H14B 3539   3.129   6.606   6.004  0.8155  1.7906  0.5070
   27SAPC  H14C 3540   3.283   6.614   6.095 -1.0545  1.5227 -0.9437
   27SAPC   C15 3541   3.027   6.396   6.121  0.6425 -0.1635 -0.0866
   27SAPC  H15A 3542   2.977   6.356   6.208  0.2050 -0.4294 -0.4587
   27SAPC  H15B 3543   2.966   6.445   6.047  0.5580  0.2244  0.2410
   27SAPC  H15C 3544   3.073   6.307   6.080 -1.9520 -2.0645  0.8454
   27SAPC   C11 3545   3.342   6.490   6.337  0.1242 -0.0788 -0.0816
   27SAPC  H11A 3546   3.292   6.553   6.414 -0.1204 -0.1370 -0.1890
   27SAPC  H11B 3547   3.389   6.550   6.256  0.9874 -0.9792 -0.2573
   27SAPC     P 3548   3.576   6.419   6.410 -0.2207 -0.0317 -0.2528
   27SAPC   O13 3549   3.624   6.346   6.526 -0.8863  0.2388 -0.0931
   27SAPC   O14 3550   3.648   6.396   6.283 -0.0830  0.2834  0.1890
   27SAPC   O12 3551   3.424   6.396   6.390 -0.3896  0.1658 -0.3635
   27SAPC   O11 3552   3.577   6.580   6.432  0.1174  1.0488 -0.2009
   27SAPC    C1 3553   3.701   6.639   6.459 -0.9131 -0.2361  0.2816
   27SAPC    HA 3554   3.776   6.617   6.380  0.7684 -0.1712  1.8179
   27SAPC    HB 3555   3.696   6.750   6.448  0.6691 -0.2730 -1.1821
   27SAPC    C2 3556   3.757   6.612   6.601  0.5283  0.4128 -0.1830
   27SAPC    HS 3557   3.775   6.503   6.614 -0.1835  0.0529 -1.9238
   27SAPC   O21 3558   3.649   6.659   6.692  0.0647  1.1192 -0.3464
   27SAPC   C21 3559   3.623   6.572   6.798  0.3558 -0.5814  0.0419
   27SAPC   O22 3560   3.687   6.479   6.830 -0.2236  0.2226  0.1276
   27SAPC   C22 3561   3.489   6.615   6.866 -0.3432  0.1281 -0.2837
   27SAPC   H2R 3562   3.514   6.720   6.892 -1.6503  0.6499 -1.0168
   27SAPC   H2S 3563   3.407   6.634   6.793  1.5590  0.7794 -2.3584
   27SAPC    C3 3564   3.884   6.690   6.634  0.0384 -1.0123  0.2052
   27SAPC    HX 3565   3.870   6.795   6.601 -0.5198 -1.2312 -0.2584
   27SAPC    HY 3566   3.972   6.640   6.588  0.4238 -1.0072  0.9085
   27SAPC   O31 3567   3.907   6.718   6.776  0.8448  0.4730 -0.3616
   27SAPC   C31 3568   4.001   6.642   6.829 -0.7979 -0.0240 -0.5309
   27SAPC   O32 3569   4.091   6.582   6.774 -0.7883 -0.5686  0.4501
   27SAPC   C32 3570   3.979   6.618   6.977 -0.8129 -0.2072  0.0774
   27SAPC   H2X 3571   4.076   6.610   7.031 -1.2600  1.0400  1.1309
   27SAPC   H2Y 3572   3.934   6.516   6.979 -0.1770 -0.6326 -2.8787
   27SAPC   C23 3573   3.447   6.529   6.993  0.6231 -0.3564  0.6473
   27SAPC   H3R 3574   3.523   6.540   7.073  1.5459  1.7917 -0.4446
   27SAPC   H3S 3575   3.440   6.426   6.952 -0.4204  0.6766 -1.9813
   27SAPC   C24 3576   3.310   6.582   7.047 -0.5976 -0.2725  0.2200
   27SAPC   H4R 3577   3.230   6.562   6.972 -1.0423 -1.9462  1.0998
   27SAPC   H4S 3578   3.319   6.692   7.060  0.8153  0.0448 -2.6961
   27SAPC   C25 3579   3.281   6.508   7.179  0.8331  0.0668  1.0519
   27SAPC   H5R 3580   3.251   6.403   7.161 -0.0209  0.2380  1.4458
   27SAPC   C26 3581   3.272   6.544   7.304 -0.1904 -0.5975  0.4777
   27SAPC   H6R 3582   3.231   6.476   7.379  1.3747 -1.8784  0.2248
   27SAPC   C27 3583   3.307   6.688   7.355 -0.4885 -0.1466 -0.3218
   27SAPC   H7R 3584   3.231   6.714   7.432 -2.2305 -0.6284 -1.8124
   27SAPC   H7S 3585   3.304   6.771   7.280  1.6373  1.1043  0.8667
   27SAPC   C28 3586   3.447   6.684   7.399 -0.2973  0.0629  0.4375
   27SAPC   H8R 3587   3.519   6.641   7.327  0.5445  0.0716  1.2632
   27SAPC   C29 3588   3.490   6.724   7.522 -0.3152  0.2097 -0.1797
   27SAPC   H9R 3589   3.596   6.714   7.550 -0.6094 -0.1102  0.8410
   27SAPC  C210 3590   3.400   6.773   7.626 -0.1977  0.4042  0.3344
   27SAPC  H10R 3591   3.310   6.709   7.638  0.3127 -0.7381 -1.5860
   27SAPC  H10S 3592   3.357   6.872   7.601 -1.8248 -0.0682  1.0779
   27SAPC  C211 3593   3.466   6.784   7.764  0.1922 -0.4375  0.0985
   27SAPC  H11R 3594   3.576   6.776   7.767  0.4155  2.1446  2.2456
   27SAPC  C212 3595   3.393   6.818   7.870  0.5240 -1.1272 -0.3438
   27SAPC  H12R 3596   3.441   6.849   7.964  0.6995  0.7875 -1.0130
   27SAPC  C213 3597   3.243   6.844   7.878 -0.4741 -0.4707 -0.6221
   27SAPC  H13R 3598   3.190   6.819   7.784  0.6014 -1.8506 -0.9010
   27SAPC  H13S 3599   3.229   6.953   7.894 -1.4490 -0.6410 -0.2609
   27SAPC  C214 3600   3.171   6.773   7.989 -1.1942 -1.0861  0.2035
   27SAPC  H14R 3601   3.187   6.815   8.089 -2.0307 -2.4177  0.9159
   27SAPC  C215 3602   3.082   6.678   7.979  0.1549  0.1275 -0.2455
   27SAPC  H15R 3603   3.030   6.635   8.066 -1.7155  0.0968 -1.3144
   27SAPC  C216 3604   3.030   6.619   7.849  0.7831  0.0656  0.2198
   27SAPC  H16R 3605   2.973   6.524   7.863  1.0335 -0.0465  0.5004
   27SAPC  H16S 3606   3.110   6.609   7.773  0.4057 -0.6624 -0.0988
   27SAPC  C217 3607   2.930   6.710   7.780  0.3235 -0.0825 -0.1856
   27SAPC  H17R 3608   2.970   6.813   7.774  2.4241 -0.9412 -1.9631
   27SAPC  H17S 3609   2.833   6.708   7.836  0.8793 -1.9106  0.8188
   27SAPC  C218 3610   2.904   6.665   7.640  0.1270  0.2712  0.0819
   27SAPC  H18R 3611   2.857   6.564   7.643  0.6738 -0.0348 -1.2973
   27SAPC  H18S 3612   3.004   6.654   7.593  0.3068 -1.6841  0.7910
   27SAPC  C219 3613   2.805   6.750   7.557 -0.2080 -0.2765 -0.1797
   27SAPC  H19R 3614   2.712   6.784   7.606 -0.4115  0.4508 -1.0441
   27SAPC  H19S 3615   2.754   6.689   7.480 -0.9298  2.4796 -2.0185
   27SAPC  C220 3616   2.878   6.867   7.492 -0.8797  0.2548 -0.8089
   27SAPC  H20R 3617   2.984   6.842   7.472 -0.5463  0.8128  0.2062
   27SAPC  H20S 3618   2.858   6.963   7.544  1.5260  0.9933 -1.1604
   27SAPC  H20T 3619   2.839   6.887   7.390 -0.8594  0.7880 -0.7141
   27SAPC   C33 3620   3.902   6.722   7.060  0.0390 -0.1675  0.8167
   27SAPC   H3X 3621   3.795   6.725   7.029  0.5459 -1.1318 -1.1674
   27SAPC   H3Y 3622   3.949   6.822   7.050  2.4586 -1.3068  0.0015
   27SAPC   C34 3623   3.910   6.687   7.208  0.0701  0.1393  0.2350
   27SAPC   H4X 3624   4.016   6.699   7.237  0.6172 -0.9092 -1.2501
   27SAPC   H4Y 3625   3.893   6.577   7.214  0.3484 -0.0191 -1.5543
   27SAPC   C35 3626   3.814   6.782   7.285 -0.2711  0.3897  0.1802
   27SAPC   H5X 3627   3.708   6.785   7.252  0.1718  0.9028 -1.3014
   27SAPC   H5Y 3628   3.844   6.886   7.261 -1.9547  0.3745 -2.3433
   27SAPC   C36 3629   3.835   6.766   7.430 -0.2727  0.5098 -0.0334
   27SAPC   H6X 3630   3.938   6.723   7.430 -0.2607  0.5386 -0.0075
   27SAPC   H6Y 3631   3.772   6.689   7.479 -2.1489  1.6052 -0.6248
   27SAPC   C37 3632   3.837   6.896   7.506 -0.1481 -0.6694  0.0791
   27SAPC   H7X 3633   3.740   6.945   7.482 -0.6405 -1.4872  0.3600
   27SAPC   H7Y 3634   3.927   6.954   7.478 -0.5351 -0.2334 -0.2938
   27SAPC   C38 3635   3.831   6.868   7.653 -0.1938 -0.6085  0.8672
   27SAPC   H8X 3636   3.927   6.815   7.669  0.4440  0.5129  0.9094
   27SAPC   H8Y 3637   3.748   6.796   7.668 -1.2872  0.1354 -1.1394
   27SAPC   C39 3638   3.809   6.974   7.760  0.2296 -0.2295  0.0560
   27SAPC   H9X 3639   3.720   7.035   7.734  0.1233 -0.3428  0.1564
   27SAPC   H9Y 3640   3.896   7.043   7.757 -0.1937  0.5221  2.8290
   27SAPC  C310 3641   3.798   6.911   7.897 -0.0062  0.6828 -0.9372
   27SAPC  H10X 3642   3.887   6.845   7.905  0.3154  1.1096 -0.9200
   27SAPC  H10Y 3643   3.710   6.849   7.924 -0.1090  1.4661  0.6383
   27SAPC  C311 3644   3.790   7.023   8.006  0.1181 -0.4038  0.3232
   27SAPC  H11X 3645   3.872   7.097   7.990 -0.0006 -0.2298  0.5125
   27SAPC  H11Y 3646   3.794   6.974   8.105 -4.0769 -1.2126  0.3033
   27SAPC  C312 3647   3.652   7.103   8.016  0.3708  0.5577  0.3073
   27SAPC  H12X 3648   3.570   7.028   8.017 -0.4686  1.4522  0.2866
   27SAPC  H12Y 3649   3.645   7.160   7.920  0.2176  2.3923  1.3681
   27SAPC  C313 3650   3.633   7.208   8.123 -0.1876 -1.4434  0.4790
   27SAPC  H13X 3651   3.547   7.275   8.102 -1.7680 -2.6463  2.6123
   27SAPC  H13Y 3652   3.723   7.272   8.136 -0.9249 -0.6359  1.9156
   27SAPC  C314 3653   3.618   7.150   8.264  0.1682 -0.4760 -0.2832
   27SAPC  H14X 3654   3.709   7.093   8.292 -0.0253  0.3280  2.2508
   27SAPC  H14Y 3655   3.529   7.084   8.274  0.1170 -0.1264  2.1972
   27SAPC  C315 3656   3.613   7.265   8.366 -0.2625  0.1856 -0.1413
   27SAPC  H15X 3657   3.528   7.337   8.356  0.2052  0.6163 -1.2184
   27SAPC  H15Y 3658   3.706   7.326   8.365  1.3503 -1.9884  2.6809
   27SAPC  C316 3659   3.613   7.210   8.509  0.1568 -0.3717  1.1427
   27SAPC  H16X 3660   3.721   7.183   8.514  1.2373  2.1344 -3.4937
   27SAPC  H16Y 3661   3.546   7.122   8.524 -1.2758  0.8462  2.2530
   27SAPC  C317 3662   3.586   7.312   8.623  0.2846 -0.3386  0.0366
   27SAPC  H17X 3663   3.476   7.332   8.623 -0.0638 -1.9802  2.2686
   27SAPC  H17Y 3664   3.628   7.415   8.617  1.4930 -0.8695 -0.7823
   27SAPC  C318 3665   3.601   7.262   8.764  0.5994 -0.0440 -0.8145
   27SAPC  H18X 3666   3.558   7.160   8.777 -0.2665  0.5381  1.1952
   27SAPC  H18Y 3667   3.549   7.333   8.830  2.1666 -0.0003  0.4462
   27SAPC  H18Z 3668   3.708   7.265   8.796  0.1495  1.4736  0.6748
   28SAPC     N 3669   0.425   3.531   6.073 -0.5876  0.3522 -1.1049
   28SAPC   C12 3670   0.432   3.540   6.227  0.1675  0.4743  0.1134
   28SAPC  H12A 3671   0.340   3.527   6.281  0.1751 -2.5817 -0.4481
   28SAPC  H12B 3672   0.475   3.635   6.257  0.6404  0.8035 -1.5082
   28SAPC   C13 3673   0.563   3.545   6.017  0.4310  0.0745 -0.5743
   28SAPC  H13A 3674   0.603   3.637   6.055  1.3556 -0.5117 -0.0858
   28SAPC  H13B 3675   0.628   3.461   6.040 -2.0268 -1.6031  0.6947
   28SAPC  H13C 3676   0.553   3.551   5.910  1.1856 -3.5234 -0.9818
   28SAPC   C14 3677   0.352   3.414   6.029  0.1577  0.2462  0.0485
   28SAPC  H14A 3678   0.350   3.420   5.921  2.4835 -1.7518 -0.1847
   28SAPC  H14B 3679   0.391   3.318   6.059  2.1206  0.3192 -2.0348
   28SAPC  H14C 3680   0.250   3.405   6.065 -0.6199  0.4863 -1.9709
   28SAPC   C15 3681   0.350   3.654   6.017 -0.0032  0.7355 -0.2184
   28SAPC  H15A 3682   0.396   3.749   6.038 -0.8134  1.3676 -1.2026
   28SAPC  H15B 3683   0.337   3.647   5.910 -0.8685 -0.6060 -0.0500
   28SAPC  H15C 3684   0.250   3.646   6.059 -0.8295  0.0589 -2.2103
   28SAPC   C11 3685   0.532   3.441   6.301 -0.9479 -0.2248 -0.1418
   28SAPC  H11A 3686   0.502   3.339   6.270 -1.0542 -0.0469 -0.6389
   28SAPC  H11B 3687   0.513   3.437   6.411 -1.8079 -3.0298 -0.3063
   28SAPC     P 3688   0.728   3.583   6.368  0.1564  0.3265  0.1339
   28SAPC   O13 3689   0.862   3.614   6.315 -0.3843  0.6184 -0.1671
   28SAPC   O14 3690   0.627   3.699   6.364 -0.2641  0.8358  0.2531
   28SAPC   O12 3691   0.672   3.460   6.281  0.3671  0.2077 -0.0575
   28SAPC   O11 3692   0.739   3.510   6.508 -0.1161  0.3607  0.4678
   28SAPC    C1 3693   0.775   3.595   6.618  1.0341 -0.4094  0.7398
   28SAPC    HA 3694   0.869   3.651   6.600 -0.7077  2.9270  1.2822
   28SAPC    HB 3695   0.693   3.668   6.632  0.4375  0.1767 -4.1755
   28SAPC    C2 3696   0.786   3.520   6.757  0.1223  0.5310 -0.1559
   28SAPC    HS 3697   0.863   3.440   6.748 -0.7578 -0.7190  2.4135
   28SAPC   O21 3698   0.656   3.467   6.798  0.3266 -0.4372 -0.0888
   28SAPC   C21 3699   0.593   3.381   6.727 -0.2979 -0.2194  0.1472
   28SAPC   O22 3700   0.632   3.300   6.643  0.6184  0.1511 -0.0940
   28SAPC   C22 3701   0.448   3.380   6.765  0.1617 -0.0225  0.2685
   28SAPC   H2R 3702   0.427   3.475   6.820  0.3963 -0.2284  0.7153
   28SAPC   H2S 3703   0.392   3.381   6.669 -0.2298 -1.4205  0.4685
   28SAPC    C3 3704   0.827   3.612   6.872 -0.5223 -0.3850 -0.0235
   28SAPC    HX 3705   0.738   3.670   6.905  0.1003  0.9963 -0.6734
   28SAPC    HY 3706   0.912   3.675   6.838 -0.2617  0.6654  2.3806
   28SAPC   O31 3707   0.889   3.537   6.975 -0.0087  0.2203 -0.9324
   28SAPC   C31 3708   0.902   3.592   7.093  0.2951  0.0772 -0.3474
   28SAPC   O32 3709   0.866   3.708   7.111 -0.0630  0.5737  0.0088
   28SAPC   C32 3710   0.959   3.485   7.191  0.3811  0.2309  0.1898
   28SAPC   H2X 3711   1.069   3.474   7.177  0.5470 -0.6444  1.8849
   28SAPC   H2Y 3712   0.905   3.389   7.181  1.8456 -0.5307 -0.7010
   28SAPC   C23 3713   0.403   3.273   6.865  0.1217  0.7473 -0.1598
   28SAPC   H3R 3714   0.460   3.179   6.850 -0.4469  0.6690 -2.1510
   28SAPC   H3S 3715   0.296   3.244   6.863  0.2615 -0.5144  3.2937
   28SAPC   C24 3716   0.426   3.309   7.013  0.0759  0.1885  0.3139
   28SAPC   H4R 3717   0.356   3.389   7.045  1.1947  0.8640  1.1841
   28SAPC   H4S 3718   0.385   3.220   7.066  0.1938  0.5498  1.0352
   28SAPC   C25 3719   0.566   3.337   7.061  0.0501 -0.8314  0.1674
   28SAPC   H5R 3720   0.605   3.437   7.040  0.4822 -0.6816  1.5566
   28SAPC   C26 3721   0.648   3.243   7.113 -0.4104  0.3767 -0.1485
   28SAPC   H6R 3722   0.754   3.268   7.127 -0.6855  0.1973  3.0350
   28SAPC   C27 3723   0.608   3.099   7.156  0.3294 -0.5495 -0.2908
   28SAPC   H7R 3724   0.530   3.044   7.099  1.5832 -0.8865 -1.7324
   28SAPC   H7S 3725   0.583   3.088   7.264  1.0642  0.3956 -0.0056
   28SAPC   C28 3726   0.724   3.003   7.137 -0.4053  0.7612 -0.0908
   28SAPC   H8R 3727   0.738   2.978   7.031 -0.2732 -2.7760  0.6233
   28SAPC   C29 3728   0.801   2.940   7.228  0.0825  0.2746  0.5654
   28SAPC   H9R 3729   0.879   2.868   7.200  1.0331  1.2998  0.4913
   28SAPC  C210 3730   0.781   2.964   7.375 -0.1574  0.3254 -0.3046
   28SAPC  H10R 3731   0.826   2.882   7.435  2.4830  1.3944 -0.6856
   28SAPC  H10S 3732   0.672   2.958   7.391 -0.0423  0.4826  0.5533
   28SAPC  C211 3733   0.844   3.086   7.441 -0.0184 -0.3287 -0.1433
   28SAPC  H11R 3734   0.778   3.174   7.432 -0.6252 -0.6949  0.6197
   28SAPC  C212 3735   0.953   3.095   7.518 -0.1840 -0.0967 -0.1354
   28SAPC  H12R 3736   0.976   3.195   7.558 -1.5143  0.5475 -0.9210
   28SAPC  C213 3737   1.053   2.983   7.549  0.2735 -0.2081  0.1725
   28SAPC  H13R 3738   0.996   2.898   7.593 -1.2153  1.1978  1.0509
   28SAPC  H13S 3739   1.114   3.014   7.637 -0.1200 -0.9329  0.7204
   28SAPC  C214 3740   1.147   2.940   7.444  0.5010 -0.1501 -0.1760
   28SAPC  H14R 3741   1.114   2.853   7.386 -0.3735  0.2572 -0.3128
   28SAPC  C215 3742   1.261   3.010   7.408 -0.3146  0.4556 -0.6349
   28SAPC  H15R 3743   1.317   2.980   7.318  2.4631  1.8212  0.5026
   28SAPC  C216 3744   1.318   3.129   7.478 -0.1323 -0.6976  0.5505
   28SAPC  H16R 3745   1.232   3.185   7.521 -0.5389 -1.1484  0.3337
   28SAPC  H16S 3746   1.355   3.203   7.403  1.1722 -0.7286  1.1480
   28SAPC  C217 3747   1.434   3.113   7.578 -0.3256  0.9617 -0.3216
   28SAPC  H17R 3748   1.472   3.212   7.611 -0.1667  0.8198 -0.0745
   28SAPC  H17S 3749   1.503   3.057   7.512 -1.4637  0.1186 -0.8422
   28SAPC  C218 3750   1.398   3.027   7.696  0.7772 -0.2110  0.4183
   28SAPC  H18R 3751   1.381   2.923   7.660 -0.5945  0.2323 -0.2523
   28SAPC  H18S 3752   1.301   3.067   7.732  0.8393 -0.3274  0.7224
   28SAPC  C219 3753   1.509   3.026   7.812  0.6443  0.3758 -0.3929
   28SAPC  H19R 3754   1.482   2.967   7.902  1.3241  1.9212  0.8682
   28SAPC  H19S 3755   1.527   3.129   7.847 -2.1330  0.6586  0.4600
   28SAPC  C220 3756   1.650   2.977   7.762 -0.3482 -0.1317  0.0128
   28SAPC  H20R 3757   1.643   2.878   7.713 -0.1132 -0.2100  0.1319
   28SAPC  H20S 3758   1.723   2.976   7.846  0.8358 -0.3394 -0.9868
   28SAPC  H20T 3759   1.690   3.048   7.687  1.7749 -0.1465  1.0484
   28SAPC   C33 3760   0.946   3.551   7.333  0.7964 -0.2039  1.1697
   28SAPC   H3X 3761   0.839   3.570   7.353  0.3346 -0.8949 -0.4495
   28SAPC   H3Y 3762   1.005   3.645   7.339  1.5432 -0.3749 -1.8918
   28SAPC   C34 3763   1.004   3.450   7.435  0.7210  0.3479  0.1768
   28SAPC   H4X 3764   1.114   3.463   7.426  0.6375  0.7948 -0.2629
   28SAPC   H4Y 3765   0.966   3.348   7.410  2.1818  0.1504 -1.4382
   28SAPC   C35 3766   0.971   3.506   7.577 -0.8850  0.1535  0.5055
   28SAPC   H5X 3767   0.978   3.616   7.591  2.6384  0.0050  0.6698
   28SAPC   H5Y 3768   1.041   3.466   7.653  1.7664  1.3714 -1.1913
   28SAPC   C36 3769   0.824   3.467   7.622  0.4195  0.1644 -0.0674
   28SAPC   H6X 3770   0.808   3.358   7.609 -0.9209  0.5605 -2.2783
   28SAPC   H6Y 3771   0.758   3.509   7.543  1.7044  1.8694 -0.2810
   28SAPC   C37 3772   0.768   3.520   7.756 -0.7027 -0.3486  0.6315
   28SAPC   H7X 3773   0.665   3.483   7.772 -0.7960  0.5129  2.2278
   28SAPC   H7Y 3774   0.766   3.630   7.737 -0.8299 -0.4278  0.1636
   28SAPC   C38 3775   0.856   3.482   7.880  0.5049  0.2887  0.3069
   28SAPC   H8X 3776   0.963   3.508   7.873  0.3444  0.7015 -0.7020
   28SAPC   H8Y 3777   0.851   3.371   7.884  2.8122 -0.1102 -3.2707
   28SAPC   C39 3778   0.791   3.539   8.005  0.2232 -0.2540 -0.9766
   28SAPC   H9X 3779   0.681   3.526   8.014  0.0408  2.1515  1.4128
   28SAPC   H9Y 3780   0.812   3.646   7.984  0.5758 -0.4555 -1.7127
   28SAPC  C310 3781   0.862   3.498   8.140  0.3848  0.1210  0.1535
   28SAPC  H10X 3782   0.811   3.558   8.219 -0.7317  0.7680 -1.0190
   28SAPC  H10Y 3783   0.964   3.540   8.152  0.5419 -0.4973  1.1311
   28SAPC  C311 3784   0.851   3.352   8.188 -0.5378 -0.1744 -0.4022
   28SAPC  H11X 3785   0.904   3.346   8.285 -0.2280  2.0912 -0.3905
   28SAPC  H11Y 3786   0.913   3.293   8.117 -0.1320  0.9036 -0.9652
   28SAPC  C312 3787   0.716   3.288   8.206  0.1634 -0.0883 -0.2425
   28SAPC  H12X 3788   0.639   3.294   8.125  0.4873  1.4636 -0.4693
   28SAPC  H12Y 3789   0.675   3.341   8.294 -0.8035 -1.6757  0.3015
   28SAPC  C313 3790   0.734   3.138   8.236 -0.2173 -0.0387  0.0912
   28SAPC  H13X 3791   0.815   3.113   8.308 -0.8925 -3.3116 -0.1129
   28SAPC  H13Y 3792   0.772   3.108   8.136 -1.2214 -1.6083  0.1425
   28SAPC  C314 3793   0.607   3.075   8.287 -0.2892 -0.3207 -0.3010
   28SAPC  H14X 3794   0.521   3.095   8.220 -1.2479  2.3802  1.5482
   28SAPC  H14Y 3795   0.580   3.129   8.380  1.1382  0.3269 -0.2356
   28SAPC  C315 3796   0.605   2.923   8.303 -0.4515 -0.3986  0.3949
   28SAPC  H15X 3797   0.663   2.889   8.391  1.3283  2.3459  0.4019
   28SAPC  H15Y 3798   0.660   2.894   8.210 -0.7155 -0.6536  0.3151
   28SAPC  C316 3799   0.469   2.861   8.313  0.0493 -0.5443  0.0931
   28SAPC  H16X 3800   0.398   2.919   8.377  1.1169  2.0632 -0.9207
   28SAPC  H16Y 3801   0.497   2.763   8.356  1.1015 -0.4778 -0.4040
   28SAPC  C317 3802   0.406   2.840   8.175  0.1529 -0.3869 -0.3875
   28SAPC  H17X 3803   0.481   2.787   8.112 -0.1294 -0.0134 -1.0360
   28SAPC  H17Y 3804   0.382   2.938   8.129 -1.5166  0.1058  1.3897
   28SAPC  C318 3805   0.277   2.757   8.180 -0.0178  0.2103  0.6596
   28SAPC  H18X 3806   0.239   2.733   8.079 -1.3134 -0.7012  1.3338
   28SAPC  H18Y 3807   0.199   2.807   8.242 -2.5245 -1.4000 -1.0223
   28SAPC  H18Z 3808   0.298   2.658   8.226 -1.6255 -0.0264  0.9379
   29SAPC     N 3809   5.987   5.753   6.256  0.2397 -0.4937 -0.4914
   29SAPC   C12 3810   5.909   5.884   6.256  0.3028 -0.3627  0.1757
   29SAPC  H12A 3811   5.886   5.921   6.355  3.6307 -1.1284  1.3635
   29SAPC  H12B 3812   5.814   5.862   6.209 -2.4936  2.7170  3.7555
   29SAPC   C13 3813   6.001   5.698   6.119  0.2601  0.2464  0.4728
   29SAPC  H13A 3814   6.039   5.774   6.052 -0.5623  1.0617  0.9142
   29SAPC  H13B 3815   6.072   5.618   6.109  1.2597  1.3361 -2.0755
   29SAPC  H13C 3816   5.904   5.673   6.079  1.2027 -0.4314 -1.5064
   29SAPC   C14 3817   6.119   5.771   6.318 -0.0705  0.3837  0.3601
   29SAPC  H14A 3818   6.106   5.826   6.410  1.0837 -1.1127  1.4637
   29SAPC  H14B 3819   6.172   5.679   6.339 -0.0579  0.1740 -0.5684
   29SAPC  H14C 3820   6.179   5.825   6.246  0.8826  1.5787  1.9753
   29SAPC   C15 3821   5.913   5.661   6.339 -0.0375 -0.1539  0.7111
   29SAPC  H15A 3822   5.966   5.566   6.343  0.0484 -0.0650  2.2981
   29SAPC  H15B 3823   5.899   5.703   6.437 -0.3852  2.4358 -0.3906
   29SAPC  H15C 3824   5.815   5.648   6.297  0.9020 -1.5780 -1.2131
   29SAPC   C11 3825   5.969   6.009   6.172  0.7156  0.3438 -0.5255
   29SAPC  H11A 3826   6.019   6.072   6.249  0.7452 -0.7115  0.3505
   29SAPC  H11B 3827   5.878   6.068   6.146 -0.5267 -0.0178  2.5437
   29SAPC     P 3828   6.211   6.014   6.057 -0.1674 -0.1201 -0.3348
   29SAPC   O13 3829   6.288   5.920   5.977 -0.2202 -0.3776 -0.2419
   29SAPC   O14 3830   6.211   6.154   6.017  0.7318  0.5334  0.3986
   29SAPC   O12 3831   6.058   5.965   6.068  0.1502 -0.0497 -0.3067
   29SAPC   O11 3832   6.267   5.999   6.208  0.1388  0.2486  0.2500
   29SAPC    C1 3833   6.385   6.067   6.248 -0.0232  0.6327  0.5315
   29SAPC    HA 3834   6.476   6.023   6.202  0.2635 -0.3671  2.0204
   29SAPC    HB 3835   6.379   6.175   6.221  0.1625  0.3348 -0.7580
   29SAPC    C2 3836   6.400   6.051   6.404 -0.2527  0.6963  0.0961
   29SAPC    HS 3837   6.495   6.099   6.436  0.3818 -0.2876 -0.2707
   29SAPC   O21 3838   6.395   5.903   6.429  0.4886 -0.3667  0.3615
   29SAPC   C21 3839   6.488   5.849   6.506 -0.1762  0.0048  0.4238
   29SAPC   O22 3840   6.584   5.906   6.552  0.3579 -0.5008  0.5735
   29SAPC   C22 3841   6.462   5.700   6.513 -0.1853 -0.4166 -0.7404
   29SAPC   H2R 3842   6.358   5.692   6.550  0.3651  2.5265  1.8376
   29SAPC   H2S 3843   6.463   5.657   6.410  1.1371  0.5608 -1.1744
   29SAPC    C3 3844   6.282   6.117   6.470 -0.0318  0.4255 -0.3356
   29SAPC    HX 3845   6.187   6.076   6.428 -0.9470 -0.2274  2.2005
   29SAPC    HY 3846   6.276   6.224   6.442  1.5869  0.4906 -0.5119
   29SAPC   O31 3847   6.293   6.101   6.612 -0.9754 -0.0740  0.2778
   29SAPC   C31 3848   6.222   6.018   6.681 -0.1976 -0.7892  0.7372
   29SAPC   O32 3849   6.123   5.958   6.638  1.2556 -0.4072 -0.0357
   29SAPC   C32 3850   6.274   6.026   6.827 -0.1369  0.0341 -0.0349
   29SAPC   H2X 3851   6.343   6.112   6.827 -2.5136  2.0586 -0.1488
   29SAPC   H2Y 3852   6.328   5.932   6.851  1.9238  1.1013 -0.2928
   29SAPC   C23 3853   6.547   5.626   6.617  0.4399 -0.6627 -0.3085
   29SAPC   H3R 3854   6.551   5.690   6.707 -1.2867 -1.7914  0.6270
   29SAPC   H3S 3855   6.655   5.619   6.592  0.1709  0.3866 -1.9045
   29SAPC   C24 3856   6.484   5.487   6.661  1.0230 -0.2133 -0.1893
   29SAPC   H4R 3857   6.506   5.405   6.590  0.7534  1.3377 -2.1593
   29SAPC   H4S 3858   6.374   5.492   6.651  1.0799  1.6230 -0.2374
   29SAPC   C25 3859   6.522   5.453   6.804  0.4131  0.5616  0.0654
   29SAPC   H5R 3860   6.603   5.379   6.812  0.5985  0.8191  0.5457
   29SAPC   C26 3861   6.463   5.478   6.924  0.7504  0.0025  0.3579
   29SAPC   H6R 3862   6.519   5.443   7.012  1.4140 -0.8046 -0.3626
   29SAPC   C27 3863   6.334   5.543   6.948  0.6741 -0.5236 -0.2168
   29SAPC   H7R 3864   6.278   5.551   6.852  1.3722  2.6310 -0.4624
   29SAPC   H7S 3865   6.346   5.648   6.981  0.9046  0.1664 -2.3222
   29SAPC   C28 3866   6.247   5.471   7.047 -0.1015  0.2403 -0.2391
   29SAPC   H8R 3867   6.176   5.404   6.996 -0.7869 -1.1066  2.3178
   29SAPC   C29 3868   6.259   5.461   7.178 -0.2785  0.0427 -0.0797
   29SAPC   H9R 3869   6.185   5.406   7.238  1.5410 -0.8208  1.4598
   29SAPC  C210 3870   6.363   5.532   7.261  0.5191 -0.4429 -0.0414
   29SAPC  H10R 3871   6.325   5.629   7.299  2.1000  0.1784  0.0584
   29SAPC  H10S 3872   6.439   5.572   7.189  2.8701 -1.4690  1.7563
   29SAPC  C211 3873   6.421   5.450   7.364  0.0099  0.3852 -0.7158
   29SAPC  H11R 3874   6.519   5.406   7.337  0.2530 -0.9563  2.0431
   29SAPC  C212 3875   6.374   5.418   7.484  0.1290  0.2160 -0.3750
   29SAPC  H12R 3876   6.440   5.361   7.551  0.6242 -1.7373 -2.4003
   29SAPC  C213 3877   6.242   5.455   7.553 -0.4455  0.5740 -0.4402
   29SAPC  H13R 3878   6.218   5.382   7.633 -0.4294  2.3673  1.2751
   29SAPC  H13S 3879   6.156   5.441   7.484 -0.4772 -2.7275  0.1193
   29SAPC  C214 3880   6.229   5.590   7.606  0.6208 -0.9300 -0.1622
   29SAPC  H14R 3881   6.247   5.663   7.526  0.7139 -0.4851  0.2617
   29SAPC  C215 3882   6.189   5.631   7.728 -0.3899 -0.0735  0.8928
   29SAPC  H15R 3883   6.159   5.737   7.735 -0.0777  0.0372  0.5965
   29SAPC  C216 3884   6.149   5.534   7.836 -0.2233 -0.5414  1.0891
   29SAPC  H16R 3885   6.118   5.435   7.797  0.1647 -0.8141  1.4678
   29SAPC  H16S 3886   6.055   5.572   7.882  0.3988 -1.6170  3.4139
   29SAPC  C217 3887   6.260   5.476   7.921 -0.4373 -0.6638 -0.1856
   29SAPC  H17R 3888   6.348   5.438   7.865  1.0314  1.3204  0.6431
   29SAPC  H17S 3889   6.225   5.391   7.984 -0.9750 -1.5345 -1.6211
   29SAPC  C218 3890   6.313   5.579   8.022 -0.5591  0.3634 -0.0487
   29SAPC  H18R 3891   6.355   5.671   7.976 -1.3557  0.1830 -1.1792
   29SAPC  H18S 3892   6.395   5.532   8.080  0.1418  1.8950  0.2661
   29SAPC  C219 3893   6.206   5.612   8.127  0.7338  0.6468  0.0390
   29SAPC  H19R 3894   6.156   5.520   8.163  1.7414  0.7809  1.8981
   29SAPC  H19S 3895   6.118   5.662   8.081 -2.4520 -3.4513  1.0472
   29SAPC  C220 3896   6.267   5.680   8.242  0.3203 -0.5692 -0.7554
   29SAPC  H20R 3897   6.194   5.720   8.316 -0.5291  2.1979 -2.9119
   29SAPC  H20S 3898   6.322   5.770   8.207 -1.1804  1.4831  1.7718
   29SAPC  H20T 3899   6.326   5.599   8.289  0.7805  0.7229  0.9984
   29SAPC   C33 3900   6.165   6.052   6.927 -0.1391  0.1163 -0.4563
   29SAPC   H3X 3901   6.086   5.975   6.914  1.1234 -1.3732  0.3538
   29SAPC   H3Y 3902   6.123   6.153   6.909 -0.8968 -0.5545 -2.7634
   29SAPC   C34 3903   6.215   6.043   7.070 -0.2335  0.2004 -0.3468
   29SAPC   H4X 3904   6.304   6.108   7.084 -0.4734  0.8232 -1.5675
   29SAPC   H4Y 3905   6.242   5.938   7.095 -2.5211 -0.6836 -1.2392
   29SAPC   C35 3906   6.099   6.091   7.163 -0.7668 -0.0064  0.3299
   29SAPC   H5X 3907   6.004   6.035   7.152  0.2985 -1.5460 -1.7456
   29SAPC   H5Y 3908   6.072   6.197   7.143 -0.9187 -0.5018 -2.6149
   29SAPC   C36 3909   6.141   6.077   7.314 -0.7456 -0.0171 -0.2887
   29SAPC   H6X 3910   6.158   5.970   7.337  1.0512  0.3407  0.2026
   29SAPC   H6Y 3911   6.053   6.105   7.377  0.0174  0.4827  0.5792
   29SAPC   C37 3912   6.269   6.151   7.360  0.3502 -0.4992 -0.2613
   29SAPC   H7X 3913   6.264   6.258   7.332  0.8400 -0.2852  0.4298
   29SAPC   H7Y 3914   6.351   6.108   7.299  0.4996 -3.8420  2.0288
   29SAPC   C38 3915   6.296   6.139   7.517  0.0860  0.0295 -0.9704
   29SAPC   H8X 3916   6.394   6.189   7.537 -0.3961  0.5013  0.3094
   29SAPC   H8Y 3917   6.299   6.031   7.542  2.9027  0.4549  1.1208
   29SAPC   C39 3918   6.190   6.200   7.602 -0.2670 -0.4385 -0.4110
   29SAPC   H9X 3919   6.103   6.132   7.616  1.1487 -1.9877  1.3410
   29SAPC   H9Y 3920   6.152   6.293   7.554 -0.1363 -0.0453  0.2330
   29SAPC  C310 3921   6.227   6.245   7.748 -0.2952 -0.3726 -0.5091
   29SAPC  H10X 3922   6.168   6.331   7.785  0.4150  0.1516 -0.5711
   29SAPC  H10Y 3923   6.331   6.281   7.730 -1.0106  2.0452 -0.1687
   29SAPC  C311 3924   6.232   6.139   7.854 -0.4924 -0.2026  0.4160
   29SAPC  H11X 3925   6.286   6.166   7.948  0.0479 -1.6003  0.5288
   29SAPC  H11Y 3926   6.317   6.074   7.822 -0.3670  0.1228  0.0891
   29SAPC  C312 3927   6.108   6.068   7.895  0.0599  0.6205 -0.9055
   29SAPC  H12X 3928   6.095   5.970   7.845 -1.9809 -0.9065  2.2864
   29SAPC  H12Y 3929   6.023   6.132   7.864 -0.0654  1.6905  1.4254
   29SAPC  C313 3930   6.107   6.051   8.047  0.1572 -0.0096 -0.1088
   29SAPC  H13X 3931   6.105   6.145   8.106  1.3901 -0.4250  0.6139
   29SAPC  H13Y 3932   6.203   6.003   8.072 -0.3603  0.0788  2.2782
   29SAPC  C314 3933   5.996   5.958   8.109  0.6115 -0.2030  0.5301
   29SAPC  H14X 3934   6.003   5.852   8.078  0.8127  0.0141 -0.1777
   29SAPC  H14Y 3935   5.898   6.000   8.078  0.5271 -0.5822  0.2778
   29SAPC  C315 3936   5.999   5.955   8.266 -0.2413  0.0981 -0.2613
   29SAPC  H15X 3937   6.044   6.048   8.307  0.8885  0.0399 -1.3282
   29SAPC  H15Y 3938   6.071   5.880   8.305 -0.5370  0.6205  1.3592
   29SAPC  C316 3939   5.867   5.914   8.328 -0.4888  0.3638 -0.1860
   29SAPC  H16X 3940   5.852   5.811   8.290 -0.4216 -0.7850  2.6933
   29SAPC  H16Y 3941   5.798   5.998   8.304 -0.2113  1.1138  1.5115
   29SAPC  C317 3942   5.885   5.896   8.483  0.6249 -0.0743 -0.2352
   29SAPC  H17X 3943   5.991   5.867   8.500  1.4380  2.5565 -0.3880
   29SAPC  H17Y 3944   5.826   5.805   8.510 -0.4092  0.2761 -1.2532
   29SAPC  C318 3945   5.843   6.024   8.564 -0.1333  0.4623  1.0138
   29SAPC  H18X 3946   5.886   6.019   8.667  1.0483  0.9609  0.5596
   29SAPC  H18Y 3947   5.734   6.037   8.579 -0.4019 -1.8499  1.5679
   29SAPC  H18Z 3948   5.902   6.111   8.529  0.7541 -1.3880 -2.5892
   30SAPC     N 3949   0.673   6.715   6.005 -1.3274 -0.3409  1.0683
   30SAPC   C12 3950   0.585   6.604   5.948  0.2471 -0.0911  0.7307
   30SAPC  H12A 3951   0.489   6.609   5.998 -0.9482 -0.2474 -1.3786
   30SAPC  H12B 3952   0.624   6.510   5.982  2.3329  0.4993  0.0861
   30SAPC   C13 3953   0.711   6.678   6.143  0.4108 -0.1449  0.5965
   30SAPC  H13A 3954   0.627   6.672   6.210  0.6999 -1.4983  0.8731
   30SAPC  H13B 3955   0.756   6.580   6.149 -1.7327 -1.2646 -0.6328
   30SAPC  H13C 3956   0.770   6.755   6.190 -1.6803  0.5595  2.2066
   30SAPC   C14 3957   0.806   6.712   5.928  0.6616 -0.9121  0.5504
   30SAPC  H14A 3958   0.873   6.792   5.958 -0.3406 -0.2646  1.1286
   30SAPC  H14B 3959   0.860   6.621   5.948  3.2386  0.2879 -0.4525
   30SAPC  H14C 3960   0.776   6.729   5.826 -2.5191  1.6120  1.7107
   30SAPC   C15 3961   0.604   6.844   5.982 -0.2044  0.4492 -0.6837
   30SAPC  H15A 3962   0.560   6.855   5.884 -0.8402  0.2587 -0.4203
   30SAPC  H15B 3963   0.532   6.867   6.058  0.0738  0.2003 -0.3394
   30SAPC  H15C 3964   0.674   6.926   5.993  2.1132 -1.7773  4.1445
   30SAPC   C11 3965   0.548   6.612   5.799 -0.2431 -0.3734 -0.4948
   30SAPC  H11A 3966   0.495   6.519   5.769 -2.1054  1.0776 -1.9736
   30SAPC  H11B 3967   0.640   6.605   5.737  0.5571  3.1338  0.0966
   30SAPC     P 3968   0.321   6.734   5.811  0.1180  0.2325  0.0332
   30SAPC   O13 3969   0.289   6.879   5.831 -0.2202  0.8166 -0.4712
   30SAPC   O14 3970   0.229   6.653   5.728  0.5592  0.1065 -0.0302
   30SAPC   O12 3971   0.466   6.720   5.758 -0.0431 -0.2042 -0.5085
   30SAPC   O11 3972   0.317   6.665   5.955  0.8174  0.2307  0.2989
   30SAPC    C1 3973   0.203   6.636   6.028 -0.0704 -0.3275  0.2041
   30SAPC    HA 3974   0.136   6.721   6.051  0.3663 -0.2146  1.1007
   30SAPC    HB 3975   0.146   6.553   5.981 -1.4948  0.7241 -0.0041
   30SAPC    C2 3976   0.249   6.590   6.169  0.0780  0.5846  0.0296
   30SAPC    HS 3977   0.165   6.583   6.243  1.2929 -1.0268  1.3343
   30SAPC   O21 3978   0.345   6.676   6.227 -0.3764  0.5512 -0.3425
   30SAPC   C21 3979   0.294   6.795   6.265 -0.1417  0.0217 -0.4141
   30SAPC   O22 3980   0.175   6.822   6.256  0.0769  0.3488  0.0026
   30SAPC   C22 3981   0.407   6.885   6.319 -0.1169 -0.1142 -0.6703
   30SAPC   H2R 3982   0.507   6.843   6.293 -1.1357 -2.7444 -0.6759
   30SAPC   H2S 3983   0.409   6.986   6.273 -0.6975 -0.3591 -1.2547
   30SAPC    C3 3984   0.318   6.455   6.147 -0.2243  0.2455 -0.0255
   30SAPC    HX 3985   0.415   6.469   6.096 -1.2036  3.2910 -1.3049
   30SAPC    HY 3986   0.241   6.397   6.091 -0.3564 -1.2593  1.6107
   30SAPC   O31 3987   0.333   6.391   6.272  0.0153 -0.6781  0.2357
   30SAPC   C31 3988   0.445   6.381   6.343 -0.5683 -0.3843  0.7350
   30SAPC   O32 3989   0.550   6.446   6.316  0.5572  0.0553 -0.0969
   30SAPC   C32 3990   0.440   6.285   6.462  0.1754  0.5607 -0.3309
   30SAPC   H2X 3991   0.455   6.180   6.427 -0.5099  0.8157 -1.4208
   30SAPC   H2Y 3992   0.336   6.287   6.501  0.1013 -0.0020 -0.4813
   30SAPC   C23 3993   0.392   6.906   6.470  0.5449 -0.2250 -0.0845
   30SAPC   H3R 3994   0.323   6.990   6.492  0.3416  0.0461 -1.6588
   30SAPC   H3S 3995   0.486   6.955   6.505 -0.2567  0.7473  0.7926
   30SAPC   C24 3996   0.375   6.788   6.557  0.1690  0.1283 -0.4085
   30SAPC   H4R 3997   0.300   6.720   6.510 -0.4299  2.4139 -3.0276
   30SAPC   H4S 3998   0.332   6.822   6.653  2.0945  2.1697 -0.1985
   30SAPC   C25 3999   0.501   6.707   6.572  0.2503  0.2501 -0.4030
   30SAPC   H5R 4000   0.534   6.656   6.481 -0.6470 -2.3926  0.6465
   30SAPC   C26 4001   0.555   6.673   6.688 -0.0698 -0.3517 -0.6521
   30SAPC   H6R 4002   0.635   6.598   6.684  0.4715  0.2443 -3.1315
   30SAPC   C27 4003   0.503   6.702   6.829  0.5844  0.2454  0.4741
   30SAPC   H7R 4004   0.394   6.719   6.836  0.8002  2.5781 -0.7679
   30SAPC   H7S 4005   0.564   6.791   6.857 -0.0622  0.6284  0.6864
   30SAPC   C28 4006   0.534   6.587   6.922 -0.3204  0.4416 -0.6255
   30SAPC   H8R 4007   0.563   6.495   6.868 -0.5690 -0.8338  1.3297
   30SAPC   C29 4008   0.515   6.575   7.057 -0.4972  0.8353  0.4898
   30SAPC   H9R 4009   0.543   6.485   7.113 -0.2517  1.7405  1.8854
   30SAPC  C210 4010   0.475   6.688   7.145  0.3517 -0.2478  0.5738
   30SAPC  H10R 4011   0.451   6.776   7.081 -0.5673 -1.0999 -0.2849
   30SAPC  H10S 4012   0.549   6.703   7.227  2.5206  0.1886 -1.3696
   30SAPC  C211 4013   0.334   6.670   7.207  0.1644 -0.1622  0.3107
   30SAPC  H11R 4014   0.251   6.701   7.142  0.4081  0.2276  0.1779
   30SAPC  C212 4015   0.315   6.631   7.337  0.2415  0.2078  0.2558
   30SAPC  H12R 4016   0.210   6.627   7.371  0.1155  0.4482 -0.0932
   30SAPC  C213 4017   0.417   6.562   7.425 -0.9695  0.3309  0.2859
   30SAPC  H13R 4018   0.502   6.521   7.367  0.3526  2.4649  0.6296
   30SAPC  H13S 4019   0.369   6.478   7.481  0.5813  0.3905  1.7885
   30SAPC  C214 4020   0.471   6.655   7.532 -0.3486  0.1514  0.2277
   30SAPC  H14R 4021   0.567   6.706   7.515 -0.4233  0.9769  2.0937
   30SAPC  C215 4022   0.432   6.680   7.655  0.0759  0.7937 -0.1320
   30SAPC  H15R 4023   0.490   6.759   7.704  1.7782  0.7772 -1.9981
   30SAPC  C216 4024   0.311   6.623   7.726 -0.8055 -0.5107 -0.2028
   30SAPC  H16R 4025   0.247   6.556   7.664 -0.7207  2.4820 -3.8694
   30SAPC  H16S 4026   0.242   6.706   7.754 -0.1881 -0.9470  3.0763
   30SAPC  C217 4027   0.349   6.540   7.855 -0.2563 -0.3319 -0.2722
   30SAPC  H17R 4028   0.458   6.519   7.859  0.1195  0.4542 -3.4447
   30SAPC  H17S 4029   0.304   6.439   7.863  0.8470 -0.9935 -1.8904
   30SAPC  C218 4030   0.298   6.617   7.985  0.2084 -0.7001  0.2018
   30SAPC  H18R 4031   0.191   6.641   7.968  1.0353  2.1008 -1.7655
   30SAPC  H18S 4032   0.333   6.722   7.975 -0.8902 -0.3280  0.1098
   30SAPC  C219 4033   0.341   6.544   8.103 -0.1547  0.0862  1.2279
   30SAPC  H19R 4034   0.451   6.541   8.112  0.0111  1.1424 -0.2252
   30SAPC  H19S 4035   0.303   6.442   8.078 -1.3691  0.4119  1.6633
   30SAPC  C220 4036   0.279   6.577   8.232 -0.3263  0.2144 -0.5492
   30SAPC  H20R 4037   0.296   6.494   8.304 -0.2200  1.9727  1.5574
   30SAPC  H20S 4038   0.171   6.588   8.211 -0.5160  1.4285  0.9144
   30SAPC  H20T 4039   0.316   6.670   8.279  0.7600 -0.6135  0.3073
   30SAPC   C33 4040   0.539   6.310   6.579 -0.3357 -0.3228  0.5563
   30SAPC   H3X 4041   0.520   6.411   6.620 -3.8800 -1.0083  0.9554
   30SAPC   H3Y 4042   0.644   6.308   6.543 -0.1772  2.0837  0.7570
   30SAPC   C34 4043   0.524   6.202   6.691 -0.2129  0.0284  0.4414
   30SAPC   H4X 4044   0.604   6.228   6.765  0.9724 -0.4037 -0.6504
   30SAPC   H4Y 4045   0.545   6.103   6.647  0.7390  0.2391  0.3893
   30SAPC   C35 4046   0.401   6.219   6.780 -0.0371  0.0205  0.1170
   30SAPC   H5X 4047   0.310   6.200   6.720  0.4254  0.2328 -0.6650
   30SAPC   H5Y 4048   0.387   6.322   6.820 -1.0588  0.8098 -2.1455
   30SAPC   C36 4049   0.393   6.121   6.901 -0.1233  0.3245 -0.1594
   30SAPC   H6X 4050   0.441   6.025   6.875  1.1066  1.4226 -2.2427
   30SAPC   H6Y 4051   0.283   6.113   6.917 -0.0772 -0.6321 -0.3032
   30SAPC   C37 4052   0.464   6.168   7.026  0.3245  0.8868  0.2418
   30SAPC   H7X 4053   0.420   6.265   7.057  2.2183  1.8142  0.1873
   30SAPC   H7Y 4054   0.573   6.176   7.006  0.1032 -0.0775 -1.5730
   30SAPC   C38 4055   0.435   6.059   7.134  0.2602  0.3972 -0.3132
   30SAPC   H8X 4056   0.515   5.982   7.124  1.8464  1.9160  0.2345
   30SAPC   H8Y 4057   0.332   6.023   7.116  0.8713 -1.8063  0.3357
   30SAPC   C39 4058   0.435   6.124   7.270 -0.6700 -1.0407 -1.2458
   30SAPC   H9X 4059   0.372   6.214   7.282  2.3970  1.0788  0.2787
   30SAPC   H9Y 4060   0.535   6.167   7.291 -0.1301 -2.1396 -1.5067
   30SAPC  C310 4061   0.397   6.041   7.404 -0.0485  0.5513 -0.0472
   30SAPC  H10X 4062   0.474   5.962   7.418  0.8511  1.4615  0.2830
   30SAPC  H10Y 4063   0.303   5.988   7.379  0.0492 -0.3965  1.4723
   30SAPC  C311 4064   0.379   6.130   7.519 -0.0392  0.0169 -0.1514
   30SAPC  H11X 4065   0.290   6.195   7.501 -0.4836 -0.1562  1.2548
   30SAPC  H11Y 4066   0.461   6.199   7.547 -0.9316  0.8537  0.5139
   30SAPC  C312 4067   0.345   6.053   7.646  1.1604  0.4077 -0.9539
   30SAPC  H12X 4068   0.424   5.977   7.662 -0.2847 -1.7561 -3.2630
   30SAPC  H12Y 4069   0.257   5.991   7.619 -0.0165  1.3770  0.5128
   30SAPC  C313 4070   0.330   6.144   7.770  0.1237 -0.2024 -0.7486
   30SAPC  H13X 4071   0.269   6.236   7.759 -0.3005 -0.0542  2.0224
   30SAPC  H13Y 4072   0.434   6.169   7.800 -0.3932  0.4411  0.5633
   30SAPC  C314 4073   0.269   6.070   7.895 -0.5646 -0.2182  0.2750
   30SAPC  H14X 4074   0.340   5.990   7.923 -0.1636  0.2800  0.7025
   30SAPC  H14Y 4075   0.166   6.036   7.868 -0.3889 -1.3513  0.9976
   30SAPC  C315 4076   0.257   6.170   8.011  0.6548 -1.0564  0.2313
   30SAPC  H15X 4077   0.178   6.243   7.982  0.8999 -0.6105  0.6631
   30SAPC  H15Y 4078   0.354   6.222   8.027  0.8491 -1.0813 -0.8278
   30SAPC  C316 4079   0.214   6.098   8.142  0.1760  0.8698  0.0443
   30SAPC  H16X 4080   0.265   5.999   8.151 -0.8958  0.1287 -1.5206
   30SAPC  H16Y 4081   0.109   6.061   8.142  0.8582 -1.2093  0.8706
   30SAPC  C317 4082   0.239   6.185   8.267  0.3497  0.0077 -0.6480
   30SAPC  H17X 4083   0.219   6.293   8.249 -0.7655 -0.3573 -1.7563
   30SAPC  H17Y 4084   0.346   6.171   8.292 -0.3776 -0.6808  2.4797
   30SAPC  C318 4085   0.146   6.143   8.382 -0.2768  0.4607 -0.3595
   30SAPC  H18X 4086   0.178   6.188   8.479  0.3414 -1.0114  0.1410
   30SAPC  H18Y 4087   0.158   6.033   8.381 -1.7480  0.2592  0.8297
   30SAPC  H18Z 4088   0.041   6.176   8.372 -1.3150 -1.5556  2.5879
   31SAPC     N 4089   6.710   0.610   5.654 -0.2330  0.4986 -0.3647
   31SAPC   C12 4090   6.635   0.554   5.776 -0.0248 -0.3912  0.4164
   31SAPC  H12A 4091   6.695   0.550   5.866  0.7972 -1.6088 -0.1531
   31SAPC  H12B 4092   6.614   0.451   5.750  1.8425 -0.5149 -0.8139
   31SAPC   C13 4093   6.754   0.745   5.673  0.1276  0.0758 -0.4829
   31SAPC  H13A 4094   6.686   0.812   5.724  0.1809  0.1194 -0.4683
   31SAPC  H13B 4095   6.841   0.755   5.736  2.0903 -1.0331 -2.8343
   31SAPC  H13C 4096   6.773   0.795   5.579 -0.7015  0.5273 -0.4219
   31SAPC   C14 4097   6.833   0.532   5.640 -0.3379  0.0534  0.4160
   31SAPC  H14A 4098   6.893   0.569   5.557  0.2375 -2.0560 -0.1589
   31SAPC  H14B 4099   6.904   0.541   5.720 -0.6663  0.2863  0.6888
   31SAPC  H14C 4100   6.811   0.429   5.618 -2.3561  0.4382  0.3964
   31SAPC   C15 4101   6.631   0.604   5.526 -0.6986  0.1210  0.4929
   31SAPC  H15A 4102   6.589   0.506   5.503 -0.2317 -0.2952  1.3719
   31SAPC  H15B 4103   6.544   0.667   5.534  0.1415  1.8199 -2.2200
   31SAPC  H15C 4104   6.687   0.639   5.441 -0.2972 -1.9028 -0.1391
   31SAPC   C11 4105   6.501   0.619   5.809  0.2722 -0.2024  0.1800
   31SAPC  H11A 4106   6.440   0.560   5.881  0.1838  1.3983  1.4716
   31SAPC  H11B 4107   6.439   0.620   5.716 -0.1256  0.4648  0.4464
   31SAPC     P 4108   6.539   0.800   6.007 -0.4468 -0.6071 -0.0633
   31SAPC   O13 4109   6.600   0.937   6.007 -0.0080 -0.5942  0.4819
   31SAPC   O14 4110   6.410   0.775   6.080 -0.1703 -0.6734  0.2416
   31SAPC   O12 4111   6.516   0.750   5.859  0.1780 -0.4681 -0.4065
   31SAPC   O11 4112   6.651   0.699   6.046 -0.2570 -0.2613 -0.1591
   31SAPC    C1 4113   6.612   0.580   6.115 -0.4951  0.6667  0.0903
   31SAPC    HA 4114   6.515   0.535   6.086 -0.0702  0.7356 -1.5771
   31SAPC    HB 4115   6.694   0.505   6.105  0.6301  1.6843  1.3442
   31SAPC    C2 4116   6.603   0.610   6.271 -0.2880  0.6564 -0.2150
   31SAPC    HS 4117   6.539   0.699   6.259  0.3962  1.4962  1.7713
   31SAPC   O21 4118   6.731   0.652   6.321  0.3119 -0.4472  0.0537
   31SAPC   C21 4119   6.738   0.736   6.427  0.7432 -1.0888 -0.1460
   31SAPC   O22 4120   6.641   0.797   6.470  0.2307  0.4730  0.0499
   31SAPC   C22 4121   6.889   0.767   6.457  0.0922 -0.7586 -0.1485
   31SAPC   H2R 4122   6.945   0.692   6.396  0.8694  0.7114 -1.2919
   31SAPC   H2S 4123   6.913   0.866   6.413  0.3045 -0.9866 -0.5584
   31SAPC    C3 4124   6.541   0.494   6.358 -0.8028  0.4510  0.2868
   31SAPC    HX 4125   6.608   0.407   6.338  0.4764  1.4783 -0.0213
   31SAPC    HY 4126   6.451   0.446   6.315 -0.2798 -0.4038  0.1110
   31SAPC   O31 4127   6.540   0.522   6.500 -0.1011 -0.3844  0.1828
   31SAPC   C31 4128   6.432   0.566   6.558  0.4596 -0.1198  0.7794
   31SAPC   O32 4129   6.322   0.590   6.503 -0.2105  0.2746 -0.0775
   31SAPC   C32 4130   6.467   0.593   6.697  0.4604  1.3209 -0.6994
   31SAPC   H2X 4131   6.550   0.668   6.700 -0.1146  1.9484  1.7009
   31SAPC   H2Y 4132   6.515   0.502   6.740 -0.2971  1.3376  0.1959
   31SAPC   C23 4133   6.899   0.753   6.612  0.0079  0.3997  0.3408
   31SAPC   H3R 4134   6.819   0.813   6.661  1.4083  0.3264  2.9033
   31SAPC   H3S 4135   6.990   0.801   6.652 -1.1627  1.1161  2.2752
   31SAPC   C24 4136   6.899   0.608   6.653 -0.1047  0.6379 -0.5121
   31SAPC   H4R 4137   6.794   0.570   6.650 -0.1916  0.9182 -1.5848
   31SAPC   H4S 4138   6.918   0.618   6.762 -0.3735 -2.6635 -0.0494
   31SAPC   C25 4139   6.998   0.519   6.586  0.4938  0.2764  0.0589
   31SAPC   H5R 4140   6.972   0.493   6.483 -0.6939 -1.4714  0.7542
   31SAPC   C26 4141   7.110   0.466   6.631  0.1559 -0.5213  0.3705
   31SAPC   H6R 4142   7.172   0.403   6.565  0.3722 -0.1629  0.2245
   31SAPC   C27 4143   7.173   0.472   6.768  0.1151 -0.0443  0.7287
   31SAPC   H7R 4144   7.094   0.483   6.846  1.4077  3.3222  1.7343
   31SAPC   H7S 4145   7.249   0.552   6.771  1.7028 -1.5247  2.2239
   31SAPC   C28 4146   7.245   0.341   6.799  0.0290 -0.0752  0.2054
   31SAPC   H8R 4147   7.238   0.271   6.715 -0.5860  1.0288 -0.7003
   31SAPC   C29 4148   7.306   0.317   6.916  0.1573  0.2495 -0.3102
   31SAPC   H9R 4149   7.365   0.223   6.914 -0.1831 -0.0924  2.0525
   31SAPC  C210 4150   7.326   0.391   7.043  0.6920 -0.0909 -0.1793
   31SAPC  H10R 4151   7.355   0.493   7.012 -1.1518  0.4034 -0.4167
   31SAPC  H10S 4152   7.419   0.353   7.090 -0.4798 -0.6874  1.7715
   31SAPC  C211 4153   7.198   0.402   7.135  0.0771 -0.2147 -0.1975
   31SAPC  H11R 4154   7.106   0.432   7.084  0.5688 -0.7231 -1.4226
   31SAPC  C212 4155   7.174   0.357   7.255 -0.1038  0.1284 -0.5642
   31SAPC  H12R 4156   7.074   0.372   7.298  0.2893 -0.2609  0.5131
   31SAPC  C213 4157   7.269   0.286   7.353  0.1289 -0.7702 -0.6526
   31SAPC  H13R 4158   7.341   0.220   7.301 -0.4096 -0.0780 -2.3698
   31SAPC  H13S 4159   7.218   0.212   7.418  0.3835  0.2645  0.7610
   31SAPC  C214 4160   7.342   0.384   7.437  0.6275 -0.1508  0.3259
   31SAPC  H14R 4161   7.370   0.480   7.390  2.0532  0.3898  2.1444
   31SAPC  C215 4162   7.385   0.373   7.564  0.1587  0.2224 -0.1363
   31SAPC  H15R 4163   7.435   0.461   7.608 -0.6897  0.2024  0.8878
   31SAPC  C216 4164   7.365   0.254   7.655  0.6184 -0.7229 -0.4079
   31SAPC  H16R 4165   7.459   0.194   7.665 -0.1834 -2.2694 -1.6295
   31SAPC  H16S 4166   7.286   0.185   7.619 -0.8520  1.0037 -0.5897
   31SAPC  C217 4167   7.318   0.323   7.793  0.0855 -0.5360  0.0277
   31SAPC  H17R 4168   7.241   0.399   7.769  0.0848 -0.6751 -0.4244
   31SAPC  H17S 4169   7.413   0.368   7.828  0.7325 -1.2204 -0.7908
   31SAPC  C218 4170   7.269   0.213   7.888 -0.3424 -0.7455  0.0671
   31SAPC  H18R 4171   7.358   0.164   7.934 -0.8082 -1.7935 -0.1101
   31SAPC  H18S 4172   7.216   0.133   7.832 -3.5884  0.9113  0.4993
   31SAPC  C219 4173   7.170   0.262   7.996 -0.3402  0.3034  0.5116
   31SAPC  H19R 4174   7.155   0.172   8.059 -2.4415  0.4498  0.2905
   31SAPC  H19S 4175   7.077   0.298   7.946 -1.0057 -1.8606  0.0909
   31SAPC  C220 4176   7.228   0.366   8.091 -0.1690  0.3467 -0.2002
   31SAPC  H20R 4177   7.260   0.447   8.022  0.1920 -1.8036 -2.6829
   31SAPC  H20S 4178   7.318   0.342   8.151  0.8866 -1.3637 -2.3314
   31SAPC  H20T 4179   7.143   0.410   8.148 -1.2400  1.3810 -2.4759
   31SAPC   C33 4180   6.364   0.654   6.788 -0.0357  0.3741  0.8645
   31SAPC   H3X 4181   6.310   0.733   6.733 -0.3061  0.0722  0.6974
   31SAPC   H3Y 4182   6.419   0.715   6.863 -0.5185 -0.2002  1.7098
   31SAPC   C34 4183   6.263   0.561   6.855 -0.0083 -0.2147 -0.2242
   31SAPC   H4X 4184   6.229   0.495   6.771  0.0398  0.0395 -0.4453
   31SAPC   H4Y 4185   6.178   0.626   6.886 -0.0327  0.3638 -1.4389
   31SAPC   C35 4186   6.319   0.490   6.979 -0.0837  0.1891  0.3265
   31SAPC   H5X 4187   6.396   0.410   6.979 -0.4720 -0.3412  3.7317
   31SAPC   H5Y 4188   6.228   0.436   7.013 -0.0652 -3.1380 -3.9749
   31SAPC   C36 4189   6.382   0.589   7.086  0.3341  0.0082  0.6633
   31SAPC   H6X 4190   6.302   0.663   7.110 -1.7159 -1.8483 -0.0418
   31SAPC   H6Y 4191   6.473   0.642   7.051 -0.6006  1.7431  0.7346
   31SAPC   C37 4192   6.411   0.520   7.217 -0.0026 -0.4925  0.4051
   31SAPC   H7X 4193   6.515   0.481   7.224 -0.3308 -1.7039 -1.0452
   31SAPC   H7Y 4194   6.321   0.456   7.227 -0.2227 -0.2132  0.2079
   31SAPC   C38 4195   6.410   0.621   7.339 -0.5441  0.0792  1.2352
   31SAPC   H8X 4196   6.318   0.684   7.335  1.6649  3.5693 -1.7913
   31SAPC   H8Y 4197   6.494   0.693   7.345  0.2745 -0.5620 -1.2861
   31SAPC   C39 4198   6.425   0.552   7.473 -0.5209 -0.0531  0.2429
   31SAPC   H9X 4199   6.511   0.481   7.475 -0.1199  0.3751 -0.9949
   31SAPC   H9Y 4200   6.332   0.494   7.493 -0.8550  0.5766  0.5101
   31SAPC  C310 4201   6.437   0.658   7.591  0.0000 -0.2426 -0.3329
   31SAPC  H10X 4202   6.347   0.724   7.597  0.1153 -0.1975  1.9973
   31SAPC  H10Y 4203   6.515   0.732   7.564 -1.7896  1.7697 -0.2316
   31SAPC  C311 4204   6.459   0.588   7.729  0.0429  0.1037 -0.6243
   31SAPC  H11X 4205   6.550   0.525   7.717  1.3351  1.1875  2.5463
   31SAPC  H11Y 4206   6.372   0.526   7.759  0.0653  0.2204 -0.3123
   31SAPC  C312 4207   6.491   0.693   7.837  0.5582 -0.2504  0.3471
   31SAPC  H12X 4208   6.401   0.758   7.832  1.8791  1.5299 -2.3272
   31SAPC  H12Y 4209   6.562   0.769   7.800  0.3218 -0.0353  0.3348
   31SAPC  C313 4210   6.534   0.632   7.972  0.0591 -0.0795  0.2226
   31SAPC  H13X 4211   6.631   0.587   7.942 -0.4642  0.2652 -2.2595
   31SAPC  H13Y 4212   6.463   0.551   7.996 -0.5935  0.9580  1.9527
   31SAPC  C314 4213   6.549   0.734   8.087 -0.0572  1.1518  0.6206
   31SAPC  H14X 4214   6.447   0.769   8.114  0.6320  3.4080  0.4555
   31SAPC  H14Y 4215   6.605   0.824   8.055  0.3271 -0.0020 -2.3318
   31SAPC  C315 4216   6.627   0.673   8.204 -0.5997  0.7485 -0.5108
   31SAPC  H15X 4217   6.728   0.645   8.168 -1.0201 -2.5845  0.5804
   31SAPC  H15Y 4218   6.582   0.575   8.231  0.8890  0.5199  1.3782
   31SAPC  C316 4219   6.650   0.760   8.327  0.9513 -0.8624 -0.3160
   31SAPC  H16X 4220   6.557   0.775   8.387  1.5298 -1.1894  0.6675
   31SAPC  H16Y 4221   6.671   0.861   8.285 -1.1802 -0.2654 -0.0711
   31SAPC  C317 4222   6.758   0.718   8.425 -0.1404  0.9534  0.3258
   31SAPC  H17X 4223   6.741   0.771   8.520 -0.3032 -0.3548  1.0511
   31SAPC  H17Y 4224   6.860   0.757   8.402  0.3638 -0.1494  0.6246
   31SAPC  C318 4225   6.755   0.569   8.457 -0.3196 -0.1030  0.0375
   31SAPC  H18X 4226   6.746   0.500   8.371  1.0430  0.6433 -0.7447
   31SAPC  H18Y 4227   6.677   0.539   8.530 -0.2389 -0.7609 -0.1470
   31SAPC  H18Z 4228   6.851   0.538   8.505 -0.4823  0.7999  0.9866
   32SAPC     N 4229   1.334   1.376   5.919 -0.2869 -0.2559 -0.6334
   32SAPC   C12 4230   1.319   1.362   6.074  0.6701 -0.8995 -0.1229
   32SAPC  H12A 4231   1.232   1.420   6.103  0.2617 -1.0256 -1.0748
   32SAPC  H12B 4232   1.408   1.404   6.116  1.0707 -0.7769 -1.0860
   32SAPC   C13 4233   1.234   1.284   5.852  0.4060  0.2415 -0.0041
   32SAPC  H13A 4234   1.225   1.302   5.746  0.5028 -0.2596 -0.0985
   32SAPC  H13B 4235   1.249   1.179   5.873 -1.0267  0.1451  0.6665
   32SAPC  H13C 4236   1.132   1.297   5.885  0.0602 -1.8001 -0.1442
   32SAPC   C14 4237   1.311   1.521   5.876  0.2203  0.5789  0.0066
   32SAPC  H14A 4238   1.385   1.583   5.923  0.0102 -0.4036  1.7282
   32SAPC  H14B 4239   1.311   1.530   5.768 -2.4437 -0.5695 -0.1705
   32SAPC  H14C 4240   1.215   1.564   5.899  0.3494  0.8674  0.0059
   32SAPC   C15 4241   1.476   1.338   5.889  0.2620 -0.2126 -0.2740
   32SAPC  H15A 4242   1.549   1.393   5.946  0.7886  1.3255 -2.3146
   32SAPC  H15B 4243   1.488   1.231   5.895  0.0081 -0.2388 -0.1781
   32SAPC  H15C 4244   1.502   1.375   5.791  1.9629  2.7244  1.1250
   32SAPC   C11 4245   1.290   1.222   6.142 -0.2627 -0.2729 -0.0686
   32SAPC  H11A 4246   1.195   1.193   6.093 -0.5486  2.4216 -1.2514
   32SAPC  H11B 4247   1.268   1.248   6.248 -0.8599 -1.3902  0.0972
   32SAPC     P 4248   1.519   1.121   6.191  0.0333  0.3777 -0.1514
   32SAPC   O13 4249   1.591   1.000   6.155  0.3249 -0.5187  0.7328
   32SAPC   O14 4250   1.582   1.254   6.172  0.0820 -0.0500  0.2790
   32SAPC   O12 4251   1.382   1.120   6.116  0.2612  0.4544 -0.0451
   32SAPC   O11 4252   1.477   1.099   6.334 -0.3666  0.3145  0.0065
   32SAPC    C1 4253   1.381   1.007   6.374  0.1608  0.7698 -0.6447
   32SAPC    HA 4254   1.279   1.052   6.368 -1.9000 -3.1504  0.8356
   32SAPC    HB 4255   1.375   0.924   6.300 -0.4726  1.0168 -0.8803
   32SAPC    C2 4256   1.410   0.939   6.509  0.0376 -0.1937 -0.1531
   32SAPC    HS 4257   1.332   0.862   6.529  1.1234 -1.0547  0.9498
   32SAPC   O21 4258   1.414   1.037   6.618 -0.4511  0.7103  0.5551
   32SAPC   C21 4259   1.297   1.061   6.674  0.3091 -0.1677  0.3085
   32SAPC   O22 4260   1.185   1.022   6.641 -0.1105 -0.2213  0.0583
   32SAPC   C22 4261   1.324   1.138   6.807 -0.4845  0.8166  0.2049
   32SAPC   H2R 4262   1.407   1.089   6.863 -1.0285  1.5688  1.7197
   32SAPC   H2S 4263   1.364   1.236   6.775  0.0334  0.8047  0.7908
   32SAPC    C3 4264   1.543   0.857   6.510  0.6651 -0.2251  0.1971
   32SAPC    HX 4265   1.626   0.931   6.508  2.4512 -2.1053  0.2530
   32SAPC    HY 4266   1.554   0.803   6.414  0.9493  0.0927  0.0503
   32SAPC   O31 4267   1.547   0.771   6.627  0.6265  0.1734  0.0875
   32SAPC   C31 4268   1.659   0.702   6.629  0.3531  0.2570 -0.1242
   32SAPC   O32 4269   1.743   0.703   6.543 -0.3243  0.3464 -0.1128
   32SAPC   C32 4270   1.667   0.599   6.744  0.4054  0.1197 -0.2775
   32SAPC   H2X 4271   1.692   0.506   6.688  0.1040 -0.4508  0.5235
   32SAPC   H2Y 4272   1.563   0.599   6.784  0.0413 -1.1544 -1.1525
   32SAPC   C23 4273   1.199   1.151   6.897 -0.8082 -0.2695  0.4378
   32SAPC   H3R 4274   1.133   1.215   6.836  1.4262  1.0299 -0.7609
   32SAPC   H3S 4275   1.218   1.211   6.989  0.7485 -0.8568  0.5326
   32SAPC   C24 4276   1.132   1.020   6.946  0.0336  0.1070  0.3234
   32SAPC   H4R 4277   1.201   0.953   7.001 -2.2468 -4.4357 -1.8103
   32SAPC   H4S 4278   1.097   0.960   6.859  1.1180 -1.4462  0.9216
   32SAPC   C25 4279   1.016   1.050   7.041  0.2601  0.5575  0.6410
   32SAPC   H5R 4280   0.924   1.081   6.991  0.8273  0.5804 -0.4231
   32SAPC   C26 4281   1.026   1.046   7.172  0.2184  0.3934 -1.0734
   32SAPC   H6R 4282   0.946   1.076   7.242 -1.0555 -0.8594 -1.9286
   32SAPC   C27 4283   1.149   1.006   7.251  0.0763  0.1698 -0.2458
   32SAPC   H7R 4284   1.153   1.063   7.346 -0.5151  1.2547 -0.8570
   32SAPC   H7S 4285   1.238   1.052   7.205 -0.3964  4.0914  2.3049
   32SAPC   C28 4286   1.158   0.859   7.287  0.0232  0.4385 -0.6438
   32SAPC   H8R 4287   1.107   0.792   7.216 -1.6511  1.1389 -0.1566
   32SAPC   C29 4288   1.228   0.804   7.389 -0.4216  0.0863 -0.1330
   32SAPC   H9R 4289   1.226   0.697   7.414 -0.3626  0.3064  0.8594
   32SAPC  C210 4290   1.304   0.883   7.493  0.7342 -0.8342  0.2103
   32SAPC  H10R 4291   1.237   0.916   7.574  0.5613 -1.0515  0.1575
   32SAPC  H10S 4292   1.335   0.979   7.447 -0.3426 -0.6579 -0.1563
   32SAPC  C211 4293   1.423   0.808   7.558 -0.2891  0.3486  1.0483
   32SAPC  H11R 4294   1.514   0.808   7.495 -0.5686  1.6634  0.5997
   32SAPC  C212 4295   1.429   0.738   7.670 -0.1937  0.9457  0.0942
   32SAPC  H12R 4296   1.521   0.688   7.703 -1.5234 -2.4609 -0.8600
   32SAPC  C213 4297   1.319   0.726   7.772 -0.1218 -0.2189  0.0645
   32SAPC  H13R 4298   1.323   0.620   7.804  0.9382 -0.5294 -1.0102
   32SAPC  H13S 4299   1.219   0.738   7.727 -0.8651 -3.1589  0.7742
   32SAPC  C214 4300   1.345   0.824   7.886 -0.3933 -0.2470  0.6332
   32SAPC  H14R 4301   1.356   0.928   7.852 -1.5946 -0.5257 -0.6810
   32SAPC  C215 4302   1.363   0.796   8.015 -0.1285  0.6666  0.1494
   32SAPC  H15R 4303   1.382   0.885   8.076  0.4638  0.1355  0.7459
   32SAPC  C216 4304   1.354   0.662   8.089 -0.1451  0.1305  0.5559
   32SAPC  H16R 4305   1.441   0.648   8.157  0.5654 -0.5526 -0.4544
   32SAPC  H16S 4306   1.369   0.585   8.010  0.6699 -0.7146  1.5101
   32SAPC  C217 4307   1.219   0.642   8.140  0.9698 -0.3999 -0.4848
   32SAPC  H17R 4308   1.149   0.628   8.054 -0.4353 -0.0746  0.5706
   32SAPC  H17S 4309   1.181   0.736   8.186 -0.7547 -0.3921 -1.8021
   32SAPC  C218 4310   1.206   0.528   8.246  0.2273 -0.3617  0.4194
   32SAPC  H18R 4311   1.104   0.539   8.288 -1.4424 -0.4413 -3.2259
   32SAPC  H18S 4312   1.282   0.553   8.324 -1.2157  0.1853  1.6984
   32SAPC  C219 4313   1.234   0.389   8.187 -0.5461  0.0482 -0.1008
   32SAPC  H19R 4314   1.342   0.406   8.172 -0.2361 -1.2276  0.5054
   32SAPC  H19S 4315   1.188   0.372   8.087  4.4647  1.1008 -2.8855
   32SAPC  C220 4316   1.196   0.266   8.271  0.4552  0.4065 -0.0184
   32SAPC  H20R 4317   1.207   0.170   8.216  0.8361  0.2972  0.2461
   32SAPC  H20S 4318   1.087   0.260   8.290  0.8443 -2.4135  1.8997
   32SAPC  H20T 4319   1.223   0.261   8.378 -2.2719  1.2711  0.7960
   32SAPC   C33 4320   1.763   0.623   6.858  0.0108 -0.0979  0.4657
   32SAPC   H3X 4321   1.860   0.650   6.813 -0.4831  1.8782  0.5257
   32SAPC   H3Y 4322   1.779   0.532   6.921  0.5412  0.9743  1.9280
   32SAPC   C34 4323   1.712   0.728   6.957  0.2957  0.2612  0.5005
   32SAPC   H4X 4324   1.601   0.714   6.960  0.1752  1.1799  0.5815
   32SAPC   H4Y 4325   1.735   0.828   6.913  1.3198 -0.0834  0.2329
   32SAPC   C35 4326   1.768   0.734   7.100 -0.9697 -0.3801 -0.1679
   32SAPC   H5X 4327   1.877   0.751   7.091 -0.7394 -1.7106 -0.0930
   32SAPC   H5Y 4328   1.753   0.641   7.158  1.9340  0.9436  3.1297
   32SAPC   C36 4329   1.702   0.847   7.196 -0.6397  0.0386 -0.7220
   32SAPC   H6X 4330   1.593   0.826   7.201 -1.5123  4.0316  2.2219
   32SAPC   H6Y 4331   1.706   0.945   7.143 -1.0340 -1.2262 -3.1982
   32SAPC   C37 4332   1.767   0.854   7.331 -0.5675 -0.0398 -0.7980
   32SAPC   H7X 4333   1.722   0.934   7.395  0.1129 -0.1166 -0.2097
   32SAPC   H7Y 4334   1.871   0.894   7.325 -0.5498  0.0620 -0.0264
   32SAPC   C38 4335   1.769   0.719   7.402  0.1477 -0.2511 -1.0519
   32SAPC   H8X 4336   1.834   0.649   7.344 -1.0511 -2.0697 -0.2801
   32SAPC   H8Y 4337   1.666   0.679   7.407 -0.4942  1.4978  0.6076
   32SAPC   C39 4338   1.816   0.737   7.545 -0.3772 -0.3908 -1.3031
   32SAPC   H9X 4339   1.752   0.818   7.584 -0.3869 -0.3633 -1.3769
   32SAPC   H9Y 4340   1.923   0.765   7.555 -1.2349  3.0993 -0.4848
   32SAPC  C310 4341   1.809   0.602   7.620  0.0282 -0.0282  0.3134
   32SAPC  H10X 4342   1.882   0.539   7.566 -0.8787  1.8556 -3.4458
   32SAPC  H10Y 4343   1.703   0.575   7.600 -0.1146  1.7762 -1.7218
   32SAPC  C311 4344   1.847   0.600   7.769  0.1872  0.8205 -0.2578
   32SAPC  H11X 4345   1.957   0.607   7.783 -0.1628  2.5868  2.0919
   32SAPC  H11Y 4346   1.805   0.507   7.813  1.6434  0.3856  0.2585
   32SAPC  C312 4347   1.797   0.723   7.845  0.6247  0.2712 -0.2308
   32SAPC  H12X 4348   1.687   0.726   7.830  0.6514  4.4079 -0.8201
   32SAPC  H12Y 4349   1.835   0.814   7.793  1.1200 -0.5470 -1.3498
   32SAPC  C313 4350   1.857   0.729   7.988  0.9437 -0.1737  0.2106
   32SAPC  H13X 4351   1.965   0.713   7.970  0.4270 -1.6137 -1.9318
   32SAPC  H13Y 4352   1.838   0.633   8.041  1.8095  0.1393  1.1274
   32SAPC  C314 4353   1.837   0.858   8.062 -0.3672  0.6961 -0.3213
   32SAPC  H14X 4354   1.727   0.878   8.059 -0.8741 -1.6889  0.3583
   32SAPC  H14Y 4355   1.886   0.950   8.024  0.3750  0.7662  0.7905
   32SAPC  C315 4356   1.877   0.849   8.214  0.7445  0.5912 -0.1342
   32SAPC  H15X 4357   1.800   0.783   8.258  0.1994  0.3106 -1.4486
   32SAPC  H15Y 4358   1.854   0.950   8.254 -1.9772 -0.1366  0.3812
   32SAPC  C316 4359   2.016   0.797   8.235  0.8759 -0.1417  0.4387
   32SAPC  H16X 4360   2.081   0.845   8.160  2.4307 -1.9676  0.5161
   32SAPC  H16Y 4361   2.018   0.690   8.203  1.1619  0.7141 -2.6847
   32SAPC  C317 4362   2.067   0.815   8.376 -0.5573 -0.5067 -0.3840
   32SAPC  H17X 4363   2.147   0.738   8.382  1.1495  1.2583  0.8467
   32SAPC  H17Y 4364   1.982   0.783   8.441 -0.5696  2.2645  1.1177
   32SAPC  C318 4365   2.108   0.957   8.406 -0.0445 -0.2800  0.5113
   32SAPC  H18X 4366   2.205   0.987   8.360  0.8861 -1.5061  1.6229
   32SAPC  H18Y 4367   2.111   0.976   8.515  0.6228 -2.5924  0.9361
   32SAPC  H18Z 4368   2.037   1.036   8.373  1.2836  1.0877  0.8022
   33POPC     N 4369   6.131   1.681  11.434 -0.0525 -0.1563 -0.5573
   33POPC   C12 4370   6.051   1.628  11.315 -0.4981 -0.2147 -0.1591
   33POPC  H12A 4371   5.995   1.711  11.275 -1.4283  0.5258  2.5116
   33POPC  H12B 4372   5.978   1.553  11.340  0.1134 -2.2392 -3.6956
   33POPC   C13 4373   6.051   1.787  11.507 -0.6397  0.3752  0.8450
   33POPC  H13A 4374   6.097   1.826  11.596 -0.1699  2.4180 -0.2362
   33POPC  H13B 4375   6.054   1.871  11.440 -2.5357  0.0773  0.3216
   33POPC  H13C 4376   5.949   1.752  11.519 -0.1374 -1.4736  0.0544
   33POPC   C14 4377   6.174   1.572  11.523  0.4369 -0.4855  0.2320
   33POPC  H14A 4378   6.263   1.528  11.480 -0.1882 -0.5681 -1.0492
   33POPC  H14B 4379   6.197   1.610  11.621 -0.5312 -1.6532  0.9464
   33POPC  H14C 4380   6.108   1.488  11.538  0.7978 -0.6370  1.0068
   33POPC   C15 4381   6.257   1.757  11.401  0.4494  0.1264  0.2400
   33POPC  H15A 4382   6.306   1.783  11.493 -2.5573  0.0176  2.0046
   33POPC  H15B 4383   6.217   1.845  11.353  0.8045 -0.5936 -1.4495
   33POPC  H15C 4384   6.323   1.704  11.334 -0.6856 -1.9121  0.6680
   33POPC   C11 4385   6.127   1.565  11.191 -0.1083 -0.4260 -0.1354
   33POPC  H11A 4386   6.218   1.620  11.157 -0.8851  0.8448 -0.2206
   33POPC  H11B 4387   6.053   1.564  11.109 -0.9931  1.4247  0.5735
   33POPC     P 4388   6.170   1.311  11.141  0.1323  0.2391 -0.1891
   33POPC   O13 4389   6.093   1.204  11.209  0.6940 -0.2953  0.3588
   33POPC   O14 4390   6.313   1.272  11.099 -0.0895 -0.1100 -0.4324
   33POPC   O12 4391   6.165   1.434  11.242  0.0548  0.0682 -0.2472
   33POPC   O11 4392   6.106   1.360  11.011  0.4113 -0.4294  0.0807
   33POPC    C1 4393   6.024   1.282  10.928 -0.1006  0.5837 -0.1410
   33POPC    HA 4394   5.996   1.188  10.982 -0.2100 -0.1218 -1.4016
   33POPC    HB 4395   5.919   1.313  10.910 -0.5515 -0.6159  0.3407
   33POPC    C2 4396   6.091   1.248  10.788  0.7181 -0.4743  0.2507
   33POPC    HS 4397   6.018   1.184  10.735  0.1343  1.2086 -1.0321
   33POPC   O21 4398   6.218   1.181  10.805  0.3316 -0.2126 -0.8460
   33POPC   C21 4399   6.204   1.059  10.854 -0.3130  0.4312  0.6891
   33POPC   O22 4400   6.109   0.994  10.883 -0.1198 -0.2075  0.6123
   33POPC   C22 4401   6.346   1.003  10.878  0.2814 -0.6298  0.3848
   33POPC   H2R 4402   6.331   0.908  10.935 -0.3161 -0.9766 -0.3225
   33POPC   H2S 4403   6.400   1.083  10.933  0.2339 -1.0852  1.1106
   33POPC    C3 4404   6.105   1.379  10.701  0.3021 -0.3460  0.2484
   33POPC    HX 4405   6.186   1.445  10.738  0.9683  0.1787 -1.9468
   33POPC    HY 4406   6.016   1.445  10.702  0.4530 -0.1277  2.1936
   33POPC   O31 4407   6.126   1.328  10.566  0.5137 -1.1201  0.1727
   33POPC   C31 4408   6.224   1.397  10.502 -1.1019  0.6610  0.4711
   33POPC   O32 4409   6.254   1.510  10.538 -0.3760 -0.2002 -0.3256
   33POPC   C32 4410   6.263   1.326  10.378  0.0287  0.9363  0.4711
   33POPC   H2X 4411   6.188   1.344  10.297  0.3529 -3.8430 -1.2195
   33POPC   H2Y 4412   6.255   1.217  10.398 -2.2854  1.0539  0.4883
   33POPC   C23 4413   6.421   0.981  10.741  0.1715  0.4069  0.4522
   33POPC   H3R 4414   6.524   0.964  10.779 -0.3576 -1.6447  1.0710
   33POPC   H3S 4415   6.421   1.071  10.675 -0.9132 -2.2288 -3.5197
   33POPC   C24 4416   6.388   0.859  10.662  0.2420  0.0453  0.4680
   33POPC   H4R 4417   6.381   0.774  10.733  0.6401  1.2924  2.0561
   33POPC   H4S 4418   6.470   0.838  10.590 -1.2828 -0.9149 -1.0921
   33POPC   C25 4419   6.250   0.872  10.589 -0.0653 -0.4047 -0.0491
   33POPC   H5R 4420   6.247   0.979  10.559 -2.0837  0.6522  3.3530
   33POPC   H5S 4421   6.165   0.862  10.660 -1.0086 -2.3133 -1.3751
   33POPC   C26 4422   6.244   0.780  10.470 -0.1897 -0.0602  0.2137
   33POPC   H6R 4423   6.226   0.679  10.512  0.3875  0.5162  1.9544
   33POPC   H6S 4424   6.345   0.776  10.423 -0.8059  1.4111 -1.3228
   33POPC   C27 4425   6.127   0.829  10.376  0.0381 -0.1786 -0.4140
   33POPC   H7R 4426   6.123   0.940  10.370 -0.9196 -0.2755 -2.1776
   33POPC   H7S 4427   6.027   0.797  10.412  0.2766 -0.6512 -0.1565
   33POPC   C28 4428   6.139   0.775  10.236 -0.3710 -0.3328 -0.8016
   33POPC   H8R 4429   6.044   0.791  10.182  0.4706  3.9322 -1.3937
   33POPC   H8S 4430   6.161   0.666  10.238  1.2389 -0.0271 -0.0602
   33POPC   C29 4431   6.245   0.841  10.153 -0.0095 -0.0991  0.5048
   33POPC   H91 4432   6.334   0.777  10.144 -0.5211 -0.6110 -1.3081
   33POPC  C210 4433   6.244   0.956  10.081 -0.3509 -0.3169 -0.4482
   33POPC  H101 4434   6.333   0.988  10.025  0.1271 -0.0589  0.4361
   33POPC  C211 4435   6.133   1.054  10.075 -0.1220  0.4209  0.4108
   33POPC  H11R 4436   6.178   1.155  10.060  1.7640 -0.5919 -1.2131
   33POPC  H11S 4437   6.059   1.043  10.157 -0.5877  0.9147  0.0637
   33POPC  C212 4438   6.054   1.036   9.944  0.4063  0.3982  0.1747
   33POPC  H12R 4439   5.978   1.116   9.939  1.3371  1.4488  1.9366
   33POPC  H12S 4440   6.005   0.937   9.934  2.5648 -0.5139 -3.4776
   33POPC  C213 4441   6.141   1.032   9.811 -0.0635 -0.0470  0.5108
   33POPC  H13R 4442   6.216   0.951   9.809 -0.0626 -0.0381  0.1324
   33POPC  H13S 4443   6.205   1.123   9.820  0.3868 -0.5207  2.5741
   33POPC  C214 4444   6.056   1.030   9.682  0.9435  0.8796 -0.1440
   33POPC  H14R 4445   5.990   1.120   9.680 -0.6234 -0.2222  0.2358
   33POPC  H14S 4446   5.980   0.949   9.682 -0.6931  2.3559 -0.0276
   33POPC  C215 4447   6.126   1.048   9.541  0.3841  0.5594 -0.2432
   33POPC  H15R 4448   6.221   1.106   9.549  1.0926 -0.6931  0.9166
   33POPC  H15S 4449   6.061   1.107   9.474 -0.3445  1.8358  1.5212
   33POPC  C216 4450   6.171   0.909   9.481 -0.1235  0.5395  0.1254
   33POPC  H16R 4451   6.081   0.844   9.488  0.3209 -0.0872  0.1363
   33POPC  H16S 4452   6.258   0.864   9.534  0.0296 -0.7256 -1.1260
   33POPC  C217 4453   6.205   0.926   9.335 -0.0739 -0.7593  0.6760
   33POPC  H17R 4454   6.291   0.996   9.326 -0.8885  0.0177 -3.6592
   33POPC  H17S 4455   6.116   0.964   9.280 -1.3420 -2.2597  1.6195
   33POPC  C218 4456   6.237   0.796   9.261  0.0429  0.0300 -0.5645
   33POPC  H18R 4457   6.158   0.720   9.282 -0.6165  0.9892  0.5483
   33POPC  H18S 4458   6.339   0.762   9.286 -0.5022 -0.7300  0.7145
   33POPC  H18T 4459   6.236   0.806   9.150  0.5883  0.3323 -0.5442
   33POPC   C33 4460   6.397   1.377  10.337 -0.0803 -0.0861 -0.0463
   33POPC   H3X 4461   6.466   1.350  10.420  0.1728 -0.7605 -0.4659
   33POPC   H3Y 4462   6.402   1.487  10.327 -0.0662 -0.1926 -1.4361
   33POPC   C34 4463   6.443   1.323  10.201  0.7832  0.0784  0.2321
   33POPC   H4X 4464   6.395   1.224  10.183  1.5460  0.0290 -1.7932
   33POPC   H4Y 4465   6.550   1.294  10.205  1.5322  2.4439 -1.0911
   33POPC   C35 4466   6.427   1.406  10.079 -0.1637  0.3778 -0.0040
   33POPC   H5X 4467   6.481   1.501  10.102  0.6460  0.5705 -2.3984
   33POPC   H5Y 4468   6.320   1.434  10.065 -0.7964 -1.3431  1.1488
   33POPC   C36 4469   6.471   1.336   9.947 -0.0649  0.1474 -0.5321
   33POPC   H6X 4470   6.427   1.235   9.938 -0.3111  0.1652  0.3452
   33POPC   H6Y 4471   6.580   1.343   9.967 -0.1676 -1.3271  0.7496
   33POPC   C37 4472   6.442   1.431   9.830  0.0214  0.1889 -0.3702
   33POPC   H7X 4473   6.520   1.509   9.840  0.2628 -0.0124 -0.6492
   33POPC   H7Y 4474   6.341   1.474   9.843  0.4677  0.5280  2.8366
   33POPC   C38 4475   6.434   1.352   9.704 -0.1363 -0.3603 -0.1672
   33POPC   H8X 4476   6.330   1.315   9.690  0.0963 -1.3129  0.4674
   33POPC   H8Y 4477   6.497   1.261   9.716 -0.6902 -0.5422  1.5665
   33POPC   C39 4478   6.471   1.429   9.574  0.2193 -0.3016  0.3619
   33POPC   H9X 4479   6.555   1.496   9.603  1.7356 -1.8238 -0.3309
   33POPC   H9Y 4480   6.383   1.492   9.551 -1.6895 -1.7977  3.0195
   33POPC  C310 4481   6.522   1.337   9.469 -0.1310 -0.7829  0.8633
   33POPC  H10X 4482   6.577   1.258   9.525 -0.5602 -0.6910  1.4235
   33POPC  H10Y 4483   6.596   1.389   9.404 -0.8415  2.2783  2.3652
   33POPC  C311 4484   6.408   1.271   9.386 -0.0258 -0.9771  0.2613
   33POPC  H11X 4485   6.327   1.236   9.454 -2.1250  0.8339 -1.1458
   33POPC  H11Y 4486   6.456   1.183   9.339 -0.3262 -1.2494  0.4641
   33POPC  C312 4487   6.370   1.368   9.276 -0.4719  0.6028  0.9695
   33POPC  H12X 4488   6.459   1.395   9.214 -0.4090 -0.7804  0.4278
   33POPC  H12Y 4489   6.315   1.453   9.321 -0.3172 -0.0381  2.4266
   33POPC  C313 4490   6.275   1.292   9.174  0.4665 -0.1732  0.0873
   33POPC  H13X 4491   6.183   1.265   9.230  1.2895 -1.0849  1.0752
   33POPC  H13Y 4492   6.319   1.195   9.141  0.7385  0.2953 -0.9771
   33POPC  C314 4493   6.255   1.379   9.046 -0.1884  0.1229 -0.1062
   33POPC  H14X 4494   6.349   1.381   8.985 -0.1296 -0.2938 -0.0287
   33POPC  H14Y 4495   6.241   1.486   9.073  3.3122  0.5865  0.4494
   33POPC  C315 4496   6.148   1.323   8.947  0.5095 -0.7952  0.4536
   33POPC  H15X 4497   6.134   1.392   8.861  0.1963 -1.3348  0.0767
   33POPC  H15Y 4498   6.050   1.308   8.996  0.4877 -1.3933  0.2299
   33POPC  C316 4499   6.192   1.186   8.881  0.0770  0.0503  0.4112
   33POPC  H16X 4500   6.123   1.169   8.795  0.6466 -0.8059  0.1215
   33POPC  H16Y 4501   6.191   1.098   8.948  1.7718  0.1504  0.6043
   33POPC  H16Z 4502   6.293   1.206   8.841 -1.2899  1.4023 -2.6557
   34POPC     N 4503   6.174   1.883  10.544  0.4860  0.1086 -0.4755
   34POPC   C12 4504   6.103   2.007  10.517 -0.2155 -0.6367  0.1293
   34POPC  H12A 4505   6.013   1.987  10.460 -1.1389 -0.1158  1.3605
   34POPC  H12B 4506   6.151   2.069  10.442 -0.7665 -0.2003  0.1226
   34POPC   C13 4507   6.290   1.898  10.638 -0.0167 -0.0253  0.7217
   34POPC  H13A 4508   6.352   1.810  10.648  1.2061  0.8369  1.0552
   34POPC  H13B 4509   6.359   1.976  10.608  0.2271 -0.9633 -1.3207
   34POPC  H13C 4510   6.257   1.929  10.736  0.3838  1.6966  0.3528
   34POPC   C14 4511   6.084   1.785  10.609 -0.1514 -0.6275  0.3494
   34POPC  H14A 4512   6.119   1.684  10.589  1.5913  0.1957 -1.0635
   34POPC  H14B 4513   6.074   1.806  10.714 -1.0119  0.1500  0.1193
   34POPC  H14C 4514   5.985   1.794  10.565 -0.0130 -1.7096 -0.2421
   34POPC   C15 4515   6.226   1.829  10.420 -0.3354 -0.1705  0.2407
   34POPC  H15A 4516   6.280   1.738  10.440  1.0697  0.7243  0.7479
   34POPC  H15B 4517   6.302   1.898  10.384 -1.7531  1.0910 -0.4434
   34POPC  H15C 4518   6.149   1.815  10.346 -0.3812  1.6114 -0.1134
   34POPC   C11 4519   6.066   2.096  10.638 -0.3008  0.4408 -0.6176
   34POPC  H11A 4520   6.032   2.029  10.719  0.2657 -0.3301 -0.9989
   34POPC  H11B 4521   5.981   2.163  10.614 -0.5140 -0.4054 -2.4352
   34POPC     P 4522   6.274   2.263  10.616  0.3205 -0.0968  0.6631
   34POPC   O13 4523   6.406   2.198  10.624  0.0628 -0.3546 -0.1195
   34POPC   O14 4524   6.251   2.405  10.661  0.5034  0.8255  0.1374
   34POPC   O12 4525   6.177   2.165  10.693  0.1502  0.8972  0.3465
   34POPC   O11 4526   6.227   2.256  10.464 -0.4054  0.2042 -0.0509
   34POPC    C1 4527   6.256   2.377  10.387 -0.3026 -0.6403  0.4851
   34POPC    HA 4528   6.361   2.364  10.355 -0.5593 -1.2078 -0.1450
   34POPC    HB 4529   6.245   2.478  10.432  1.4724  0.1330 -0.6969
   34POPC    C2 4530   6.171   2.376  10.249  0.0324 -0.2541  0.3893
   34POPC    HS 4531   6.195   2.276  10.208  0.1626 -0.4162  0.8529
   34POPC   O21 4532   6.215   2.487  10.165 -0.4129 -0.0457  0.4253
   34POPC   C21 4533   6.207   2.467  10.037  0.1562  0.4594 -0.2114
   34POPC   O22 4534   6.174   2.366   9.985 -0.3672  0.1235 -0.3893
   34POPC   C22 4535   6.270   2.583   9.962 -0.2017 -0.8841 -0.1876
   34POPC   H2R 4536   6.379   2.593   9.979  0.2071 -1.6203 -2.1331
   34POPC   H2S 4537   6.230   2.680   9.998  0.2975 -1.3863  1.8479
   34POPC    C3 4538   6.019   2.382  10.274 -0.2588  0.6893  0.6747
   34POPC    HX 4539   5.996   2.491  10.274  2.1384  1.4057 -3.2831
   34POPC    HY 4540   5.984   2.345  10.373 -0.6737  0.8778  0.5996
   34POPC   O31 4541   5.953   2.330  10.158  0.6621 -0.3660  0.2567
   34POPC   C31 4542   5.933   2.198  10.160 -0.5265  0.2703 -0.0277
   34POPC   O32 4543   5.970   2.120  10.246  0.4997 -0.1540 -0.2501
   34POPC   C32 4544   5.848   2.156  10.044  0.1987 -0.6054 -0.1064
   34POPC   H2X 4545   5.887   2.202   9.951 -0.4424  2.2463  0.9512
   34POPC   H2Y 4546   5.747   2.195  10.068  0.8737  1.2416 -0.1775
   34POPC   C23 4547   6.267   2.570   9.812  0.1135 -0.0517  0.2274
   34POPC   H3R 4548   6.255   2.468   9.771  0.7507 -0.5061  1.1286
   34POPC   H3S 4549   6.352   2.614   9.756  0.0319 -1.7528 -1.3192
   34POPC   C24 4550   6.146   2.646   9.757 -0.3289 -0.2189  0.0779
   34POPC   H4R 4551   6.118   2.739   9.811 -0.1641  0.1072 -0.3893
   34POPC   H4S 4552   6.061   2.577   9.767 -0.5352  0.0011 -0.1447
   34POPC   C25 4553   6.156   2.705   9.619 -0.4855 -0.5746 -0.1400
   34POPC   H5R 4554   6.228   2.789   9.617  0.1081 -1.0804 -0.4624
   34POPC   H5S 4555   6.058   2.752   9.597 -0.1106 -0.6874 -2.2312
   34POPC   C26 4556   6.197   2.597   9.525  0.1866  0.1574 -0.1376
   34POPC   H6R 4557   6.139   2.504   9.542  0.1316  0.4061  1.0816
   34POPC   H6S 4558   6.302   2.560   9.533 -0.3377 -1.7870 -1.3215
   34POPC   C27 4559   6.156   2.628   9.383  0.3110 -0.5850  0.9250
   34POPC   H7R 4560   6.189   2.552   9.309  0.5651 -0.7287  1.1796
   34POPC   H7S 4561   6.199   2.727   9.359  0.0035 -0.9791 -1.5053
   34POPC   C28 4562   6.003   2.632   9.353  0.2579 -0.3980 -0.2891
   34POPC   H8R 4563   5.951   2.686   9.435  0.5106  0.3007 -0.5814
   34POPC   H8S 4564   5.963   2.528   9.361 -0.1394 -0.1884  0.4794
   34POPC   C29 4565   5.959   2.691   9.217  0.0966 -0.0107  0.4648
   34POPC   H91 4566   5.920   2.793   9.226 -2.0317 -0.5170 -1.9041
   34POPC  C210 4567   5.953   2.628   9.096  0.2464 -0.4494 -0.0375
   34POPC  H101 4568   5.909   2.671   9.005 -2.0443 -3.1814 -0.3773
   34POPC  C211 4569   5.995   2.485   9.069  0.1838 -0.0867  0.1253
   34POPC  H11R 4570   5.910   2.431   9.023  0.9726 -0.3680 -1.0785
   34POPC  H11S 4571   6.021   2.442   9.168 -0.7131  0.4149  0.5826
   34POPC  C212 4572   6.118   2.474   8.979  0.4810  1.2580  0.3652
   34POPC  H12R 4573   6.109   2.529   8.883 -1.0890 -0.7239 -0.6967
   34POPC  H12S 4574   6.126   2.369   8.945 -1.2131  1.6735 -1.4788
   34POPC  C213 4575   6.256   2.536   9.037 -0.4214 -0.7308  0.0778
   34POPC  H13R 4576   6.287   2.476   9.126 -0.6873 -0.6268  0.2456
   34POPC  H13S 4577   6.226   2.639   9.070  3.2594  0.8614 -1.0718
   34POPC  C214 4578   6.362   2.537   8.925 -0.4009  0.0601  0.5161
   34POPC  H14R 4579   6.365   2.430   8.899 -1.8727  0.1223  0.0066
   34POPC  H14S 4580   6.457   2.572   8.971  0.7685 -0.4537 -1.4005
   34POPC  C215 4581   6.346   2.614   8.800  0.1993 -0.7148 -0.3899
   34POPC  H15R 4582   6.333   2.722   8.823  2.3068 -0.8498  1.8749
   34POPC  H15S 4583   6.265   2.570   8.737  0.9967  0.5921 -2.4445
   34POPC  C216 4584   6.476   2.602   8.703  0.7351 -0.2071  0.1797
   34POPC  H16R 4585   6.500   2.494   8.697 -0.0359 -0.4193  0.7161
   34POPC  H16S 4586   6.557   2.645   8.765  0.3958  0.7939 -0.0498
   34POPC  C217 4587   6.446   2.681   8.571  0.4071 -0.4954 -0.2610
   34POPC  H17R 4588   6.431   2.787   8.602 -1.5088 -0.1520 -2.0622
   34POPC  H17S 4589   6.350   2.646   8.526  0.4053  0.1095 -0.7535
   34POPC  C218 4590   6.555   2.678   8.462  0.0995 -0.8853  0.1226
   34POPC  H18R 4591   6.585   2.576   8.429  2.5039 -0.4180  0.6211
   34POPC  H18S 4592   6.653   2.722   8.492  0.1567 -1.5726  0.9707
   34POPC  H18T 4593   6.525   2.728   8.367  0.1327 -1.9006 -0.4333
   34POPC   C33 4594   5.822   2.002  10.028 -0.0281 -0.4201 -0.2301
   34POPC   H3X 4595   5.750   1.969  10.105 -0.2114 -1.4953 -0.8446
   34POPC   H3Y 4596   5.914   1.939  10.029 -0.5745 -1.2366 -0.0555
   34POPC   C34 4597   5.755   1.982   9.890 -0.5102 -0.0530  0.1424
   34POPC   H4X 4598   5.673   2.055   9.875  1.0052  1.2268 -2.6518
   34POPC   H4Y 4599   5.703   1.884   9.888 -2.1938  0.8084  0.1064
   34POPC   C35 4600   5.852   1.979   9.781 -0.9005 -0.6313 -0.1190
   34POPC   H5X 4601   5.915   1.889   9.796  1.2801  0.9648  0.9261
   34POPC   H5Y 4602   5.918   2.068   9.783  0.0601 -1.2615 -1.7043
   34POPC   C36 4603   5.787   1.967   9.640  0.1457  0.5726  0.3798
   34POPC   H6X 4604   5.739   2.067   9.640 -0.7519  0.1665 -0.2512
   34POPC   H6Y 4605   5.711   1.886   9.629  0.7017  0.1243 -0.2686
   34POPC   C37 4606   5.893   1.950   9.525  0.1465  0.5893 -0.1039
   34POPC   H7X 4607   5.943   1.852   9.536  2.4253  1.7650  0.4727
   34POPC   H7Y 4608   5.964   2.031   9.551 -0.2752  0.8501  0.2607
   34POPC   C38 4609   5.835   1.948   9.395  0.6636  0.1937  0.5068
   34POPC   H8X 4610   5.745   1.882   9.392 -0.2753  1.4562 -1.2348
   34POPC   H8Y 4611   5.905   1.897   9.325  0.4175  0.4071  0.1017
   34POPC   C39 4612   5.785   2.084   9.342  0.3881 -0.8372 -0.6916
   34POPC   H9X 4613   5.870   2.155   9.346 -0.2439 -0.1030 -0.0674
   34POPC   H9Y 4614   5.720   2.126   9.422  2.1828  0.4043  0.1818
   34POPC  C310 4615   5.726   2.081   9.205 -0.3874 -0.6497  0.7590
   34POPC  H10X 4616   5.680   2.179   9.181 -0.1630 -1.2988 -2.9954
   34POPC  H10Y 4617   5.641   2.010   9.205 -1.7470  0.5719 -3.9634
   34POPC  C311 4618   5.818   2.050   9.083  0.0236 -0.1061 -0.4429
   34POPC  H11X 4619   5.864   1.949   9.086 -1.4691 -0.7869  0.6270
   34POPC  H11Y 4620   5.897   2.128   9.088  0.7231 -0.7700 -0.8779
   34POPC  C312 4621   5.748   2.069   8.951  0.2700 -0.1361 -0.1787
   34POPC  H12X 4622   5.664   2.142   8.957 -0.4367 -0.5824 -3.0714
   34POPC  H12Y 4623   5.702   1.971   8.923 -0.0744 -0.0521  0.0774
   34POPC  C313 4624   5.846   2.125   8.842  0.6532  0.3230 -1.0799
   34POPC  H13X 4625   5.914   2.038   8.828  0.3165 -0.1212 -0.0621
   34POPC  H13Y 4626   5.926   2.195   8.874  1.3367 -0.8533 -0.0732
   34POPC  C314 4627   5.789   2.142   8.707  0.1396 -0.2989  0.2159
   34POPC  H14X 4628   5.681   2.116   8.707  0.1455 -0.4193 -1.3624
   34POPC  H14Y 4629   5.836   2.075   8.632 -0.5021 -1.0928  0.5039
   34POPC  C315 4630   5.807   2.288   8.663 -0.3058 -0.5471 -0.9946
   34POPC  H15X 4631   5.764   2.350   8.745  1.0631  2.8191 -2.6222
   34POPC  H15Y 4632   5.766   2.303   8.561  0.3205  0.1051 -1.1623
   34POPC  C316 4633   5.957   2.333   8.649  0.7608 -0.3473 -0.5765
   34POPC  H16X 4634   6.009   2.342   8.746 -0.7561 -0.8133  0.3175
   34POPC  H16Y 4635   5.972   2.429   8.596  1.9153 -0.7626 -1.0264
   34POPC  H16Z 4636   6.011   2.264   8.581  0.4556  0.2912 -1.4827
   35POPC     N 4637   4.249   0.100  11.052 -0.4332  0.1132  0.0122
   35POPC   C12 4638   4.242   0.207  10.940  0.3517  0.4497  0.0620
   35POPC  H12A 4639   4.320   0.281  10.957 -0.0256  0.7694  0.4283
   35POPC  H12B 4640   4.150   0.263  10.946  1.4694  2.6085 -1.5739
   35POPC   C13 4641   4.371   0.015  11.040 -0.1347 -0.0623  0.4330
   35POPC  H13A 4642   4.455   0.077  11.014 -0.4622  0.2998  0.2195
   35POPC  H13B 4643   4.391  -0.039  11.131 -0.8314 -2.2568 -0.6536
   35POPC  H13C 4644   4.360  -0.056  10.959 -0.1396  2.0361 -1.5059
   35POPC   C14 4645   4.243   0.154  11.192  0.7460 -0.1767  0.0997
   35POPC  H14A 4646   4.329   0.217  11.210  2.5614 -2.0191 -1.5805
   35POPC  H14B 4647   4.150   0.201  11.219  1.1891  2.0070 -1.9018
   35POPC  H14C 4648   4.259   0.071  11.259 -0.3232 -0.9533 -0.5751
   35POPC   C15 4649   4.134   0.011  11.047 -0.5357 -0.3220 -0.7721
   35POPC  H15A 4650   4.150  -0.077  11.107  0.1750 -1.0862 -2.0424
   35POPC  H15B 4651   4.107  -0.011  10.944 -0.4685  0.4459 -0.9673
   35POPC  H15C 4652   4.050   0.059  11.097  1.4591  0.3753  2.1344
   35POPC   C11 4653   4.252   0.163  10.791  0.3617  0.5419  0.3412
   35POPC  H11A 4654   4.343   0.099  10.787 -1.0646 -1.6001  0.6922
   35POPC  H11B 4655   4.255   0.251  10.723 -1.2384  1.1351  0.9934
   35POPC     P 4656   4.009   0.105  10.690 -0.1077  0.1270 -0.1681
   35POPC   O13 4657   3.947   0.232  10.741  0.5817 -0.5752  0.0783
   35POPC   O14 4658   3.924  -0.018  10.702 -0.6776 -0.2583  0.7511
   35POPC   O12 4659   4.145   0.069  10.762 -0.0825  0.5831 -0.3034
   35POPC   O11 4660   4.048   0.119  10.537  0.1395 -0.4451  0.4290
   35POPC    C1 4661   4.145   0.046  10.476  0.2380  0.5997 -0.0935
   35POPC    HA 4662   4.093  -0.052  10.467  0.7491  0.4507 -1.7102
   35POPC    HB 4663   4.231   0.033  10.545  0.3387 -1.3812 -0.5532
   35POPC    C2 4664   4.182   0.099  10.340 -0.6918  0.5417  0.1587
   35POPC    HS 4665   4.264   0.038  10.298  0.2526  1.2319  0.9498
   35POPC   O21 4666   4.221   0.242  10.356 -0.3639  0.0567  0.3019
   35POPC   C21 4667   4.344   0.256  10.387  0.1311 -0.6268 -0.0158
   35POPC   O22 4668   4.422   0.170  10.418  1.0381 -0.1153 -0.1689
   35POPC   C22 4669   4.367   0.412  10.395 -0.9983 -0.1432 -0.2986
   35POPC   H2R 4670   4.461   0.424  10.453 -0.0090 -1.5879 -1.5300
   35POPC   H2S 4671   4.291   0.445  10.468 -1.6703 -1.7849 -0.2154
   35POPC    C3 4672   4.065   0.083  10.236  0.6136  0.5784 -0.8373
   35POPC    HX 4673   3.984   0.141  10.285  1.8702  1.8309 -0.1568
   35POPC    HY 4674   4.039  -0.024  10.227  0.3320  0.6249 -0.5838
   35POPC   O31 4675   4.107   0.148  10.112  0.7590  0.2243  0.0215
   35POPC   C31 4676   4.173   0.071  10.028  0.1612  0.3464  0.9038
   35POPC   O32 4677   4.204  -0.041  10.053 -0.2815 -0.0019 -0.5632
   35POPC   C32 4678   4.200   0.138   9.896 -0.0623  0.2292  0.2013
   35POPC   H2X 4679   4.289   0.203   9.909  0.1989 -0.3306  1.2956
   35POPC   H2Y 4680   4.114   0.201   9.864  0.6137 -0.3015 -3.1300
   35POPC   C23 4681   4.356   0.493  10.267  0.0373  0.3043  0.4853
   35POPC   H3R 4682   4.277   0.570  10.283  0.3611  0.5792  0.8103
   35POPC   H3S 4683   4.354   0.421  10.183  1.1913 -0.5311  1.1496
   35POPC   C24 4684   4.476   0.585  10.222 -0.1859 -0.2991  0.1995
   35POPC   H4R 4685   4.564   0.517  10.227  1.3269  1.6120  0.7267
   35POPC   H4S 4686   4.497   0.671  10.290 -1.1800  1.1557 -1.2566
   35POPC   C25 4687   4.460   0.652  10.080  0.1727  0.5437 -0.4804
   35POPC   H5R 4688   4.537   0.732  10.074  0.3220  0.2900 -2.6348
   35POPC   H5S 4689   4.361   0.701  10.068 -0.8572 -1.4362 -0.3860
   35POPC   C26 4690   4.479   0.560   9.954 -0.0061 -0.0549 -0.5401
   35POPC   H6R 4691   4.482   0.638   9.875 -0.6607  1.0440  0.4782
   35POPC   H6S 4692   4.389   0.498   9.930  0.7429 -0.2470 -3.1143
   35POPC   C27 4693   4.598   0.473   9.969  0.4751  0.2100 -0.4593
   35POPC   H7R 4694   4.581   0.393  10.045  1.5057 -0.3603 -0.8074
   35POPC   H7S 4695   4.679   0.543   9.996 -1.5144  2.8272 -0.9021
   35POPC   C28 4696   4.636   0.395   9.843 -0.3448  0.0219  0.8205
   35POPC   H8R 4697   4.540   0.349   9.812 -0.6995  1.6882 -0.7517
   35POPC   H8S 4698   4.707   0.313   9.866  0.1434  0.0073 -0.6523
   35POPC   C29 4699   4.691   0.477   9.730  0.3149 -0.1646  0.5460
   35POPC   H91 4700   4.753   0.561   9.764 -0.7464  2.1793 -2.7675
   35POPC  C210 4701   4.663   0.457   9.599 -0.2191  0.0847  0.2068
   35POPC  H101 4702   4.699   0.526   9.521  1.0627  1.1179  1.6567
   35POPC  C211 4703   4.577   0.348   9.548  0.4578  0.3734  0.5005
   35POPC  H11R 4704   4.493   0.398   9.494  1.4371 -1.8728 -3.4837
   35POPC  H11S 4705   4.532   0.287   9.630 -3.4325  1.4817 -0.5700
   35POPC  C212 4706   4.640   0.261   9.436 -0.5232 -0.0625 -1.1479
   35POPC  H12R 4707   4.568   0.182   9.406 -0.3678 -1.7530  2.4123
   35POPC  H12S 4708   4.725   0.205   9.480 -1.0599  0.3118  0.4107
   35POPC  C213 4709   4.690   0.335   9.312  0.9036 -0.5131  0.6759
   35POPC  H13R 4710   4.783   0.393   9.331  0.6311 -0.2632  1.2661
   35POPC  H13S 4711   4.621   0.414   9.277  5.1127  2.6654 -1.4149
   35POPC  C214 4712   4.703   0.243   9.193 -0.3637  0.4143 -0.0334
   35POPC  H14R 4713   4.599   0.215   9.167 -1.3025  1.4432  2.3904
   35POPC  H14S 4714   4.764   0.153   9.218 -0.0164 -0.1192 -2.5231
   35POPC  C215 4715   4.758   0.307   9.067 -0.2659 -0.7939  0.6943
   35POPC  H15R 4716   4.869   0.298   9.069 -0.3842 -2.5986  1.2617
   35POPC  H15S 4717   4.728   0.414   9.068  2.3903  0.0238  0.6630
   35POPC  C216 4718   4.717   0.244   8.932  0.1011  0.3342 -1.1707
   35POPC  H16R 4719   4.606   0.245   8.935 -0.1220 -3.6567 -2.6640
   35POPC  H16S 4720   4.750   0.139   8.940 -2.0061 -0.2701  0.3752
   35POPC  C217 4721   4.777   0.306   8.812  0.3362  0.2120  0.0613
   35POPC  H17R 4722   4.888   0.313   8.819  0.4861  0.0723 -1.6855
   35POPC  H17S 4723   4.733   0.406   8.792 -0.1533 -0.0186 -0.0281
   35POPC  C218 4724   4.760   0.219   8.689 -0.5609 -0.2090 -0.5418
   35POPC  H18R 4725   4.652   0.212   8.664 -1.1454  2.0270  1.0816
   35POPC  H18S 4726   4.806   0.119   8.700  2.8619  0.8060 -3.4679
   35POPC  H18T 4727   4.829   0.263   8.614  1.5874  0.6149  1.8030
   35POPC   C33 4728   4.227   0.050   9.777 -0.5296 -0.5065 -0.0532
   35POPC   H3X 4729   4.148  -0.029   9.775  1.0266 -2.1155 -1.1460
   35POPC   H3Y 4730   4.321  -0.009   9.781 -1.0639 -1.3267  0.8067
   35POPC   C34 4731   4.221   0.123   9.646  0.3558 -0.6021 -0.0241
   35POPC   H4X 4732   4.275   0.220   9.657 -0.9201  0.2826 -1.2024
   35POPC   H4Y 4733   4.120   0.137   9.603  0.5917 -1.3512 -0.8411
   35POPC   C35 4734   4.296   0.052   9.535  0.5173  0.2575 -0.5166
   35POPC   H5X 4735   4.228  -0.036   9.519  0.5132  0.2311 -0.3506
   35POPC   H5Y 4736   4.396   0.012   9.563  0.1560 -1.2752 -1.2794
   35POPC   C36 4737   4.300   0.141   9.415  0.0818  0.2016 -0.4438
   35POPC   H6X 4738   4.381   0.216   9.432 -0.0669  0.2583  0.0314
   35POPC   H6Y 4739   4.208   0.202   9.404 -0.5595 -0.6552  0.0639
   35POPC   C37 4740   4.325   0.070   9.281  0.3682 -0.5386 -0.2455
   35POPC   H7X 4741   4.263  -0.022   9.278 -1.6940  0.7727 -0.9325
   35POPC   H7Y 4742   4.431   0.040   9.281  0.6532  0.4130  0.0585
   35POPC   C38 4743   4.290   0.159   9.164  0.1429 -0.0122  0.9028
   35POPC   H8X 4744   4.378   0.226   9.150  0.9343 -0.7395  2.1548
   35POPC   H8Y 4745   4.205   0.225   9.191 -1.1855 -0.5349 -1.7570
   35POPC   C39 4746   4.252   0.075   9.037  0.4529 -0.0693 -0.4852
   35POPC   H9X 4747   4.159   0.019   9.060  1.7763 -1.8957  0.7203
   35POPC   H9Y 4748   4.330   0.001   9.009  1.8353  0.8422  0.8398
   35POPC  C310 4749   4.216   0.151   8.912 -1.0174  0.7226 -0.0368
   35POPC  H10X 4750   4.128   0.217   8.923 -0.9057  0.9410 -0.4136
   35POPC  H10Y 4751   4.190   0.080   8.830 -1.0592  2.9068 -2.0117
   35POPC  C311 4752   4.326   0.238   8.851  0.0857 -0.0704  0.0784
   35POPC  H11X 4753   4.411   0.191   8.798 -0.3481  0.9615 -1.5941
   35POPC  H11Y 4754   4.382   0.291   8.932 -0.7345  1.9257 -0.6015
   35POPC  C312 4755   4.299   0.360   8.756 -0.4023 -0.1306 -1.1209
   35POPC  H12X 4756   4.396   0.375   8.703  0.6437 -1.0534  0.4428
   35POPC  H12Y 4757   4.276   0.448   8.820 -0.5756 -0.2833 -0.9741
   35POPC  C313 4758   4.183   0.343   8.661 -0.1139  0.5284 -0.1265
   35POPC  H13X 4759   4.176   0.435   8.598  1.9988  2.2194  1.8964
   35POPC  H13Y 4760   4.087   0.340   8.718  0.5803 -1.1490  1.0235
   35POPC  C314 4761   4.179   0.217   8.569 -0.5848  0.2750  1.3465
   35POPC  H14X 4762   4.217   0.127   8.621  0.7956 -0.3165 -0.5544
   35POPC  H14Y 4763   4.249   0.232   8.484  0.3757 -1.7196  1.7246
   35POPC  C315 4764   4.040   0.206   8.503 -0.2493 -0.4664 -0.4527
   35POPC  H15X 4765   4.030   0.135   8.418 -1.0426 -0.9697  0.0468
   35POPC  H15Y 4766   4.024   0.310   8.467  0.1796 -0.1638  0.2013
   35POPC  C316 4767   3.921   0.159   8.598 -0.2749  0.0511 -0.1056
   35POPC  H16X 4768   3.920   0.230   8.683 -1.2705  1.9236 -1.6156
   35POPC  H16Y 4769   3.934   0.052   8.626  0.7077  0.1068 -0.2950
   35POPC  H16Z 4770   3.824   0.171   8.545  0.1500  0.6726 -0.7619
   36POPC     N 4771   6.178   5.489  10.549 -0.3567  0.2506 -0.0180
   36POPC   C12 4772   6.207   5.484  10.398 -0.3689  0.4764 -0.0483
   36POPC  H12A 4773   6.306   5.443  10.389 -0.1034  1.3746 -1.5468
   36POPC  H12B 4774   6.224   5.587  10.370 -2.8569  0.6133 -1.3772
   36POPC   C13 4775   6.046   5.565  10.565 -0.8853  0.9405 -0.3568
   36POPC  H13A 4776   6.039   5.595  10.668 -0.2588 -1.5362  0.4697
   36POPC  H13B 4777   6.034   5.645  10.493  0.9521  0.9186 -0.7422
   36POPC  H13C 4778   5.968   5.492  10.557  1.0503 -1.4046  0.8219
   36POPC   C14 4779   6.172   5.353  10.613  0.1535  0.0151  0.5619
   36POPC  H14A 4780   6.084   5.306  10.572 -2.5637  4.2558  0.9160
   36POPC  H14B 4781   6.266   5.300  10.602  0.2668 -0.0319  1.6359
   36POPC  H14C 4782   6.150   5.373  10.717 -1.2912  0.2739  0.2245
   36POPC   C15 4783   6.291   5.569  10.608 -0.3485 -0.1808 -0.0571
   36POPC  H15A 4784   6.299   5.666  10.561  1.1956  0.4011  1.3165
   36POPC  H15B 4785   6.385   5.521  10.586 -1.0893 -2.3957  1.3248
   36POPC  H15C 4786   6.281   5.585  10.715  1.5908  0.6914  0.0403
   36POPC   C11 4787   6.101   5.410  10.308  0.7188  0.4572  0.7544
   36POPC  H11A 4788   6.128   5.411  10.200 -1.0726  0.1111  0.2692
   36POPC  H11B 4789   6.004   5.465  10.313  0.6832  0.3966  0.7311
   36POPC     P 4790   5.967   5.182  10.349  0.1824  0.3088 -0.0692
   36POPC   O13 4791   5.856   5.269  10.398  1.1350 -0.4142 -0.0767
   36POPC   O14 4792   6.002   5.057  10.422 -0.4245  0.5711  0.0120
   36POPC   O12 4793   6.095   5.271  10.350  0.4842 -0.1065 -0.3059
   36POPC   O11 4794   5.945   5.146  10.196 -0.4197 -0.2556 -0.0572
   36POPC    C1 4795   6.058   5.123  10.110  0.3535 -0.0884  0.4155
   36POPC    HA 4796   6.119   5.041  10.153  0.2840 -1.0945 -1.3223
   36POPC    HB 4797   6.121   5.211  10.089 -0.5380  0.0358 -2.0859
   36POPC    C2 4798   5.998   5.070   9.977  0.1401 -0.5887 -0.0379
   36POPC    HS 4799   5.940   4.975   9.978 -1.1233  0.1475 -0.7821
   36POPC   O21 4800   6.108   5.051   9.891 -0.0726 -0.0306 -0.3244
   36POPC   C21 4801   6.133   4.935   9.846  0.3027  0.7742  0.4081
   36POPC   O22 4802   6.070   4.828   9.871 -0.4320 -0.0386 -0.4251
   36POPC   C22 4803   6.262   4.942   9.761  0.1297  0.1828 -0.1209
   36POPC   H2R 4804   6.336   4.981   9.834 -0.2330  0.3494  0.1632
   36POPC   H2S 4805   6.249   5.026   9.689  1.7722  1.4634  1.0046
   36POPC    C3 4806   5.905   5.181   9.917  0.1809  0.0979  0.5983
   36POPC    HX 4807   5.954   5.281   9.924  1.5317 -0.5877  1.5825
   36POPC    HY 4808   5.824   5.195   9.991  1.3140 -1.0742  2.1533
   36POPC   O31 4809   5.863   5.154   9.780  0.6734  0.1681  0.1594
   36POPC   C31 4810   5.755   5.079   9.775 -0.1179 -0.2866 -0.1641
   36POPC   O32 4811   5.691   5.035   9.869 -0.1016 -0.1671 -0.3272
   36POPC   C32 4812   5.731   5.044   9.625  0.1361  0.3330  1.1263
   36POPC   H2X 4813   5.779   4.945   9.613 -0.5745 -0.0304  1.1951
   36POPC   H2Y 4814   5.786   5.116   9.560 -1.6494 -1.4628 -2.6996
   36POPC   C23 4815   6.297   4.806   9.687  0.2156  0.1529 -0.8660
   36POPC   H3R 4816   6.252   4.724   9.747 -0.4436  1.8941  1.1797
   36POPC   H3S 4817   6.408   4.798   9.690  0.1664 -0.6965  1.6446
   36POPC   C24 4818   6.251   4.799   9.542 -0.2447  0.2275 -0.1832
   36POPC   H4R 4819   6.273   4.700   9.496 -0.6784 -0.3064  0.7451
   36POPC   H4S 4820   6.311   4.871   9.482 -0.0067  1.0806  1.0417
   36POPC   C25 4821   6.104   4.832   9.520 -0.1944 -0.0142 -0.4470
   36POPC   H5R 4822   6.083   4.937   9.549 -0.0962 -0.0050 -0.4083
   36POPC   H5S 4823   6.050   4.764   9.590 -0.8204 -0.7472 -1.6062
   36POPC   C26 4824   6.061   4.825   9.372  0.1959 -0.2399 -1.0650
   36POPC   H6R 4825   6.105   4.733   9.327 -2.2257 -1.8489 -0.3384
   36POPC   H6S 4826   6.092   4.922   9.328 -1.2265 -0.7566 -3.3643
   36POPC   C27 4827   5.909   4.814   9.359 -0.0257  1.0805 -0.3296
   36POPC   H7R 4828   5.864   4.895   9.419  0.2551  0.1920  1.1306
   36POPC   H7S 4829   5.885   4.722   9.417  1.4314  1.5312  1.0334
   36POPC   C28 4830   5.856   4.809   9.211 -0.5495  0.2935 -0.2793
   36POPC   H8R 4831   5.875   4.903   9.156  1.5957  1.0494  1.6083
   36POPC   H8S 4832   5.747   4.791   9.221 -0.6479  1.2047  0.4307
   36POPC   C29 4833   5.890   4.688   9.132 -0.1035  1.1199 -0.2689
   36POPC   H91 4834   5.837   4.592   9.146  1.3756 -0.3225 -3.5061
   36POPC  C210 4835   5.978   4.680   9.026  0.1695  0.1391  0.2208
   36POPC  H101 4836   5.981   4.595   8.957  1.2687 -0.6110  1.1519
   36POPC  C211 4837   6.067   4.795   8.973  0.7330 -0.3646 -0.4593
   36POPC  H11R 4838   6.039   4.884   9.033  0.6006 -0.8451  0.1999
   36POPC  H11S 4839   6.052   4.819   8.866 -1.1592  1.6023  0.1713
   36POPC  C212 4840   6.217   4.788   8.991  0.3148 -0.2478  0.0294
   36POPC  H12R 4841   6.241   4.756   9.095  0.8240 -3.8107 -1.0444
   36POPC  H12S 4842   6.258   4.891   8.979  3.6693 -1.6566 -2.2201
   36POPC  C213 4843   6.284   4.707   8.883 -0.3518  0.1759 -0.5032
   36POPC  H13R 4844   6.281   4.760   8.786 -1.5728 -1.2278 -1.2575
   36POPC  H13S 4845   6.232   4.609   8.874 -1.4784  0.8280 -1.3465
   36POPC  C214 4846   6.429   4.686   8.918  0.1841  0.1976 -0.2855
   36POPC  H14R 4847   6.464   4.582   8.897  0.5208  0.4727 -1.1182
   36POPC  H14S 4848   6.444   4.696   9.028  0.5989 -0.8042 -0.2364
   36POPC  C215 4849   6.514   4.798   8.852 -0.4538 -0.7081 -0.0143
   36POPC  H15R 4850   6.458   4.894   8.858  0.1410 -0.4234  1.4940
   36POPC  H15S 4851   6.523   4.769   8.745  0.4578 -2.7927  0.5768
   36POPC  C216 4852   6.651   4.824   8.906 -0.5986  0.0424 -0.2554
   36POPC  H16R 4853   6.712   4.875   8.828 -2.0375  1.8265 -0.2721
   36POPC  H16S 4854   6.710   4.730   8.911  2.9585  2.0781 -0.3655
   36POPC  C217 4855   6.656   4.889   9.047 -0.0066  0.2466 -0.2151
   36POPC  H17R 4856   6.613   4.814   9.117 -1.3142  4.2624  3.7140
   36POPC  H17S 4857   6.591   4.979   9.050 -1.0641 -0.3765 -2.1937
   36POPC  C218 4858   6.800   4.916   9.099 -0.7873  0.0767 -0.0846
   36POPC  H18R 4859   6.859   4.977   9.028 -0.8785  0.6644  0.3377
   36POPC  H18S 4860   6.844   4.815   9.113 -2.3039 -0.7568 -1.0015
   36POPC  H18T 4861   6.796   4.961   9.200 -2.5293 -1.2986  0.5234
   36POPC   C33 4862   5.594   5.033   9.580  0.3856  0.7165  0.4196
   36POPC   H3X 4863   5.531   5.124   9.585  0.3653  0.6363  3.0865
   36POPC   H3Y 4864   5.551   4.952   9.643  0.8245 -0.2601 -0.4945
   36POPC   C34 4865   5.582   4.968   9.442 -0.6492 -0.2495  0.2110
   36POPC   H4X 4866   5.618   4.864   9.448 -0.3042 -0.1295  0.2397
   36POPC   H4Y 4867   5.641   5.017   9.361  0.1692 -0.6978  0.5223
   36POPC   C35 4868   5.433   4.973   9.397 -0.3954 -0.6475 -0.4833
   36POPC   H5X 4869   5.404   5.080   9.389  1.6113 -0.0782 -0.7241
   36POPC   H5Y 4870   5.382   4.932   9.487  1.6050 -0.6737  0.7144
   36POPC   C36 4871   5.411   4.886   9.267 -0.8869 -0.8686 -0.8499
   36POPC   H6X 4872   5.313   4.839   9.287 -0.4482 -0.5159  2.9002
   36POPC   H6Y 4873   5.486   4.805   9.258 -1.9542 -2.0910  0.7120
   36POPC   C37 4874   5.401   4.967   9.141  0.3350  0.1914 -0.2375
   36POPC   H7X 4875   5.495   5.024   9.124 -0.4676  0.8900 -2.8033
   36POPC   H7Y 4876   5.314   5.036   9.129  1.0014  0.8844 -1.2412
   36POPC   C38 4877   5.393   4.872   9.018 -0.3976  0.7638  0.0447
   36POPC   H8X 4878   5.315   4.805   9.059 -0.6257  0.2328 -1.2061
   36POPC   H8Y 4879   5.490   4.818   9.007 -0.1779  0.8533  1.3756
   36POPC   C39 4880   5.360   4.952   8.886  0.2465  0.8952  0.3479
   36POPC   H9X 4881   5.438   5.026   8.862 -1.7181  3.6156  1.7225
   36POPC   H9Y 4882   5.261   4.998   8.907  0.3577  2.1465 -1.6806
   36POPC  C310 4883   5.329   4.852   8.780 -0.5595  0.2523 -0.0916
   36POPC  H10X 4884   5.246   4.792   8.821 -0.5055  0.1261 -0.1688
   36POPC  H10Y 4885   5.421   4.792   8.765 -0.8031 -0.4535  1.1312
   36POPC  C311 4886   5.256   4.912   8.654  0.3175  0.6577  1.2364
   36POPC  H11X 4887   5.324   4.980   8.598 -0.7146  1.0098  0.3708
   36POPC  H11Y 4888   5.170   4.972   8.690 -1.8363 -2.3336  1.5131
   36POPC  C312 4889   5.195   4.809   8.556 -0.0232  1.0456 -0.1671
   36POPC  H12X 4890   5.166   4.850   8.457  2.7746  3.7919 -0.0134
   36POPC  H12Y 4891   5.108   4.755   8.598  2.0566 -1.1235  1.7083
   36POPC  C313 4892   5.296   4.697   8.515  0.8285 -0.0048 -0.5137
   36POPC  H13X 4893   5.243   4.615   8.463 -0.9441 -0.0243  1.1699
   36POPC  H13Y 4894   5.320   4.651   8.613  2.6214 -0.2577 -1.0447
   36POPC  C314 4895   5.410   4.749   8.437 -0.4194  0.5137  0.5017
   36POPC  H14X 4896   5.450   4.845   8.477  0.3852 -0.1353  1.3133
   36POPC  H14Y 4897   5.374   4.788   8.340  0.0446 -0.6304 -0.1509
   36POPC  C315 4898   5.528   4.648   8.414  0.5011 -0.3423 -0.0683
   36POPC  H15X 4899   5.481   4.552   8.383 -2.5755  0.2410  2.2913
   36POPC  H15Y 4900   5.569   4.629   8.516 -0.2508  2.1712  0.7687
   36POPC  C316 4901   5.642   4.691   8.310 -0.1761  0.0415 -1.2105
   36POPC  H16X 4902   5.605   4.774   8.245 -2.3313  1.0167  1.0963
   36POPC  H16Y 4903   5.698   4.613   8.254  1.8318 -1.0388  2.0458
   36POPC  H16Z 4904   5.708   4.747   8.379  0.3297 -1.4649 -0.4269
   37POPC     N 4905   2.292   1.581   5.681 -1.1051 -0.7351  0.5010
   37POPC   C12 4906   2.380   1.587   5.805  0.6776  0.7184 -0.0464
   37POPC  H12A 4907   2.361   1.683   5.850  1.1051 -0.5392  3.0749
   37POPC  H12B 4908   2.487   1.590   5.785  0.8861  3.2336  1.0771
   37POPC   C13 4909   2.369   1.672   5.588  0.4763  0.0807 -0.7472
   37POPC  H13A 4910   2.372   1.775   5.622  2.4655  0.1132 -0.8990
   37POPC  H13B 4911   2.469   1.635   5.571  1.0271  0.4069  1.4650
   37POPC  H13C 4912   2.321   1.668   5.491 -1.5724  1.4728  0.1415
   37POPC   C14 4913   2.284   1.440   5.641 -0.3477  0.0727  1.2586
   37POPC  H14A 4914   2.372   1.404   5.590 -0.4977  1.2815  0.0888
   37POPC  H14B 4915   2.268   1.370   5.722 -1.4278 -0.2727  0.7658
   37POPC  H14C 4916   2.198   1.428   5.577  1.3045 -0.8100 -0.9015
   37POPC   C15 4917   2.159   1.631   5.715  0.2114  0.3157  0.2291
   37POPC  H15A 4918   2.113   1.565   5.788  2.5033  0.6158  2.0758
   37POPC  H15B 4919   2.109   1.639   5.620 -0.0952 -1.2963  0.2258
   37POPC  H15C 4920   2.163   1.733   5.749 -0.8596  0.3591  0.2385
   37POPC   C11 4921   2.357   1.479   5.918  0.4560 -0.3160 -0.7257
   37POPC  H11A 4922   2.418   1.515   6.004 -2.8036  0.2464  1.5487
   37POPC  H11B 4923   2.383   1.374   5.890 -2.8723 -0.8924 -2.1486
   37POPC     P 4924   2.175   1.598   6.053  0.4565 -0.1349  0.6124
   37POPC   O13 4925   2.054   1.648   5.984  0.4083 -0.0611  0.1319
   37POPC   O14 4926   2.284   1.683   6.085  0.1045 -0.1963  0.5852
   37POPC   O12 4927   2.218   1.476   5.967  0.1095  0.2133  0.5205
   37POPC   O11 4928   2.120   1.526   6.185 -0.5796 -0.7093 -0.1078
   37POPC    C1 4929   2.186   1.402   6.220  0.7762  0.1519 -0.1090
   37POPC    HA 4930   2.288   1.392   6.177  0.1377  1.3044 -2.0174
   37POPC    HB 4931   2.125   1.317   6.182  0.0046  0.0712  1.2473
   37POPC    C2 4932   2.209   1.390   6.368 -0.2937  0.4296 -0.3085
   37POPC    HS 4933   2.277   1.302   6.369 -0.8504 -0.0212 -1.0841
   37POPC   O21 4934   2.098   1.362   6.455  0.1174  0.2740 -0.1214
   37POPC   C21 4935   2.034   1.254   6.436 -0.3059  0.3666  0.0584
   37POPC   O22 4936   2.070   1.158   6.370  0.4488  0.3084 -0.5319
   37POPC   C22 4937   1.905   1.274   6.506 -0.1852  0.0713  0.0938
   37POPC   H2R 4938   1.828   1.316   6.438  1.5576 -1.6203 -3.1387
   37POPC   H2S 4939   1.904   1.343   6.593 -1.3965  0.1325  0.0547
   37POPC    C3 4940   2.290   1.511   6.428 -0.1557 -0.6349 -0.7574
   37POPC    HX 4941   2.216   1.593   6.444  1.2606  0.6093 -0.4278
   37POPC    HY 4942   2.362   1.557   6.357  2.0681  0.4775  2.0562
   37POPC   O31 4943   2.350   1.466   6.550 -0.2257  0.0444 -0.2842
   37POPC   C31 4944   2.384   1.571   6.625 -0.1115  0.2323 -0.0416
   37POPC   O32 4945   2.388   1.687   6.585 -0.0558 -0.1901 -0.2908
   37POPC   C32 4946   2.413   1.517   6.766 -0.5974  0.0498  0.3959
   37POPC   H2X 4947   2.515   1.472   6.763  0.0121  1.3500  0.4994
   37POPC   H2Y 4948   2.332   1.444   6.785 -0.5880 -0.1721 -0.3745
   37POPC   C23 4949   1.855   1.142   6.571 -0.3041  0.4525  0.2144
   37POPC   H3R 4950   1.848   1.072   6.486 -0.7937  1.9000 -0.9809
   37POPC   H3S 4951   1.758   1.173   6.617  0.5206  0.6985  1.8722
   37POPC   C24 4952   1.954   1.076   6.673 -0.4496  0.1730  0.7623
   37POPC   H4R 4953   2.042   1.045   6.613 -0.6314  0.7781  0.1598
   37POPC   H4S 4954   1.914   0.990   6.731 -0.0902 -1.6745 -1.5826
   37POPC   C25 4955   1.999   1.177   6.784 -0.8402  1.4851  0.1392
   37POPC   H5R 4956   1.910   1.224   6.831 -0.9429  0.9433  0.4948
   37POPC   H5S 4957   2.048   1.266   6.739  0.5992  0.5727 -0.1657
   37POPC   C26 4958   2.090   1.129   6.896  0.7164  0.8080  0.5591
   37POPC   H6R 4959   2.190   1.107   6.852 -0.2980  2.2130 -2.7423
   37POPC   H6S 4960   2.047   1.034   6.934  2.6960 -0.5719 -0.4422
   37POPC   C27 4961   2.109   1.234   7.005 -0.0476 -0.3683 -0.2243
   37POPC   H7R 4962   2.016   1.254   7.063 -1.4376 -1.1539 -2.0459
   37POPC   H7S 4963   2.133   1.333   6.962  1.7517 -0.8047 -0.3130
   37POPC   C28 4964   2.224   1.216   7.104  0.3007 -0.5086  0.0992
   37POPC   H8R 4965   2.256   1.315   7.143 -2.1278  1.2832 -2.1028
   37POPC   H8S 4966   2.317   1.187   7.049  1.2330  0.7983  0.9182
   37POPC   C29 4967   2.190   1.105   7.202  0.1278  0.0272  0.0037
   37POPC   H91 4968   2.129   1.019   7.173 -0.5112  0.2698  0.6038
   37POPC  C210 4969   2.221   1.112   7.330 -0.5232 -0.6903 -0.0650
   37POPC  H101 4970   2.186   1.022   7.383 -0.5488 -0.3352  0.5314
   37POPC  C211 4971   2.308   1.210   7.415 -0.3298  0.0713  1.0399
   37POPC  H11R 4972   2.287   1.211   7.524  0.8720  1.6056  1.2898
   37POPC  H11S 4973   2.300   1.317   7.384  0.6124  0.0977  0.8643
   37POPC  C212 4974   2.453   1.162   7.409 -1.0234  0.6127  0.3627
   37POPC  H12R 4975   2.489   1.159   7.304 -0.7116  0.2789  0.4770
   37POPC  H12S 4976   2.455   1.057   7.444 -0.5702  0.4560 -0.1324
   37POPC  C213 4977   2.549   1.244   7.496 -0.5055 -0.5784 -0.4031
   37POPC  H13R 4978   2.551   1.344   7.449 -0.6054 -1.1730 -1.7155
   37POPC  H13S 4979   2.646   1.195   7.475 -0.3524  0.4790 -2.3523
   37POPC  C214 4980   2.518   1.262   7.648  1.3174 -0.1194 -0.5061
   37POPC  H14R 4981   2.500   1.159   7.687 -2.4264  0.9639  1.0276
   37POPC  H14S 4982   2.426   1.322   7.663  1.4130  0.2642 -1.3964
   37POPC  C215 4983   2.623   1.331   7.726 -0.2436 -0.2937 -1.0822
   37POPC  H15R 4984   2.653   1.427   7.678 -1.4923 -0.6129 -2.5835
   37POPC  H15S 4985   2.717   1.272   7.722 -0.1967 -0.3396  0.0868
   37POPC  C216 4986   2.599   1.337   7.882  0.7094  0.0581  0.1163
   37POPC  H16R 4987   2.497   1.375   7.904  0.4649 -1.7918  2.5549
   37POPC  H16S 4988   2.669   1.410   7.927 -0.0602  3.0500 -3.0676
   37POPC  C217 4989   2.622   1.201   7.952  0.0627  0.5183  1.2935
   37POPC  H17R 4990   2.731   1.187   7.936 -0.0144  1.3036 -0.0890
   37POPC  H17S 4991   2.556   1.128   7.900  1.3032 -0.7896  1.4885
   37POPC  C218 4992   2.595   1.199   8.097  0.1375  0.4985 -0.4549
   37POPC  H18R 4993   2.492   1.224   8.131  1.0670  1.7935  1.6301
   37POPC  H18S 4994   2.651   1.282   8.146 -1.2972  1.3080 -0.1159
   37POPC  H18T 4995   2.634   1.102   8.134  3.9939  2.3520  0.8943
   37POPC   C33 4996   2.398   1.618   6.886 -0.4817 -0.2246  0.0899
   37POPC   H3X 4997   2.296   1.662   6.883 -1.3563 -2.1640 -0.0551
   37POPC   H3Y 4998   2.471   1.700   6.871 -0.9944  0.1528 -0.3964
   37POPC   C34 4999   2.423   1.557   7.025 -0.9303  0.6899 -0.3870
   37POPC   H4X 5000   2.512   1.492   7.012  0.9888  3.3998 -1.6846
   37POPC   H4Y 5001   2.340   1.488   7.054  1.4925 -3.1256 -1.7444
   37POPC   C35 5002   2.450   1.670   7.137  0.1755  0.0321  0.0056
   37POPC   H5X 5003   2.357   1.731   7.136  0.7584  0.9275 -0.5582
   37POPC   H5Y 5004   2.535   1.736   7.110  0.3944 -0.2624 -0.0248
   37POPC   C36 5005   2.469   1.616   7.279 -0.2847  0.0823  0.2658
   37POPC   H6X 5006   2.566   1.563   7.288  0.4947  1.6094  1.1935
   37POPC   H6Y 5007   2.390   1.540   7.299  0.5192 -0.3691  1.9165
   37POPC   C37 5008   2.458   1.711   7.395 -0.2136 -0.2354 -0.5003
   37POPC   H7X 5009   2.364   1.768   7.387 -0.0385  0.0612 -0.4568
   37POPC   H7Y 5010   2.540   1.786   7.395 -0.4439  0.0834  2.1128
   37POPC   C38 5011   2.469   1.649   7.541  0.5947 -0.3362 -0.4294
   37POPC   H8X 5012   2.567   1.599   7.559 -0.5972 -3.2265 -1.4080
   37POPC   H8Y 5013   2.399   1.563   7.548  1.3687 -1.3978 -3.6833
   37POPC   C39 5014   2.445   1.738   7.669 -0.3886  0.0991  0.4367
   37POPC   H9X 5015   2.340   1.774   7.660 -0.2443  0.3515 -0.3473
   37POPC   H9Y 5016   2.508   1.830   7.664  0.1151 -0.2822 -0.5000
   37POPC  C310 5017   2.468   1.669   7.802  0.5559 -0.0163 -0.3866
   37POPC  H10X 5018   2.571   1.635   7.824  0.6532  0.6372  0.1866
   37POPC  H10Y 5019   2.406   1.576   7.807  2.5776 -1.4827 -1.1091
   37POPC  C311 5020   2.426   1.749   7.926 -0.0875 -0.2617  0.0223
   37POPC  H11X 5021   2.323   1.786   7.906 -0.9050 -1.8639  1.0671
   37POPC  H11Y 5022   2.496   1.831   7.953 -1.5513  0.5953  1.4180
   37POPC  C312 5023   2.423   1.658   8.057  0.6296 -0.1814  0.3383
   37POPC  H12X 5024   2.523   1.615   8.079  0.1619 -0.6282  1.6638
   37POPC  H12Y 5025   2.360   1.570   8.031 -0.5681  0.3890  1.2282
   37POPC  C313 5026   2.362   1.730   8.184  0.1997 -0.0056  0.6012
   37POPC  H13X 5027   2.286   1.659   8.224  0.2433 -1.7648 -2.1767
   37POPC  H13Y 5028   2.310   1.823   8.152  0.1251 -1.3270 -3.6747
   37POPC  C314 5029   2.471   1.776   8.281 -0.0977  0.4073  0.1455
   37POPC  H14X 5030   2.542   1.829   8.214 -0.4378  1.8598  0.8886
   37POPC  H14Y 5031   2.527   1.687   8.316 -2.1187 -1.6278 -1.4473
   37POPC  C315 5032   2.411   1.851   8.397  0.0624  0.3708  0.1651
   37POPC  H15X 5033   2.338   1.783   8.447 -0.2400 -0.3209 -1.1739
   37POPC  H15Y 5034   2.348   1.931   8.352  0.8474  1.5178  1.0384
   37POPC  C316 5035   2.507   1.929   8.488 -0.0737  0.6276  0.4537
   37POPC  H16X 5036   2.561   2.009   8.434  1.5353  0.7229  2.1183
   37POPC  H16Y 5037   2.583   1.856   8.522  0.9293  1.6348  0.4234
   37POPC  H16Z 5038   2.453   1.974   8.574  1.3129  0.5875  1.3760
   38POPC     N 5039   3.775   5.974   6.005  0.2858  0.5344  0.1915
   38POPC   C12 5040   3.822   6.078   6.113  0.2602 -0.9508  0.0824
   38POPC  H12A 5041   3.784   6.176   6.089  1.9574 -0.2608  0.0298
   38POPC  H12B 5042   3.930   6.084   6.102  0.4938  1.6365  2.6516
   38POPC   C13 5043   3.791   6.031   5.865 -0.2338 -0.1241 -0.0397
   38POPC  H13A 5044   3.747   6.130   5.857 -0.4701 -0.2193  0.0721
   38POPC  H13B 5045   3.893   6.059   5.844 -1.5259  2.6827 -3.5333
   38POPC  H13C 5046   3.763   5.963   5.786  0.4285 -0.3095 -0.1220
   38POPC   C14 5047   3.862   5.846   6.013  0.7774  0.0238 -0.6238
   38POPC  H14A 5048   3.857   5.817   6.117 -1.5955  2.3951  0.0607
   38POPC  H14B 5049   3.823   5.766   5.951 -1.0913  1.6566 -1.6798
   38POPC  H14C 5050   3.966   5.862   5.989  0.8477  0.3138 -0.1387
   38POPC   C15 5051   3.639   5.942   6.028  0.6055  0.2390  0.5615
   38POPC  H15A 5052   3.625   5.894   6.124 -2.6190  0.3645  0.2818
   38POPC  H15B 5053   3.595   5.879   5.952 -2.1688  1.6752  0.8331
   38POPC  H15C 5054   3.569   6.024   6.021  2.1837  1.4970 -4.0422
   38POPC   C11 5055   3.814   6.048   6.260 -0.6382  0.4317  0.7542
   38POPC  H11A 5056   3.705   6.032   6.278 -0.7576 -0.1566 -0.4049
   38POPC  H11B 5057   3.856   6.139   6.309  0.0125 -0.2728  1.5258
   38POPC     P 5058   3.877   5.888   6.444 -0.3425 -0.0536  0.2653
   38POPC   O13 5059   3.963   5.762   6.449 -0.2363  0.0814 -0.4511
   38POPC   O14 5060   3.735   5.871   6.469  0.1930  0.3010  0.6481
   38POPC   O12 5061   3.898   5.936   6.293  0.2194 -0.8465  0.3545
   38POPC   O11 5062   3.938   5.990   6.549  0.1279  0.0514 -0.0005
   38POPC    C1 5063   4.063   6.057   6.518 -0.4233  1.3122 -0.3476
   38POPC    HA 5064   4.061   6.160   6.562 -0.5611  0.6643  1.2377
   38POPC    HB 5065   4.087   6.056   6.410  3.0241 -1.3694  0.2568
   38POPC    C2 5066   4.175   5.988   6.592 -0.1568 -0.5047  0.4691
   38POPC    HS 5067   4.189   5.890   6.543  2.2111 -0.7195  1.4423
   38POPC   O21 5068   4.135   5.985   6.728  0.2538 -0.1432 -0.4982
   38POPC   C21 5069   4.173   5.887   6.801  0.9228 -0.2849  1.1232
   38POPC   O22 5070   4.243   5.794   6.767  0.2569  0.0802  0.4019
   38POPC   C22 5071   4.111   5.904   6.939 -0.5034  0.7375  0.0755
   38POPC   H2R 5072   4.046   5.817   6.965  1.4427 -1.1087 -0.9062
   38POPC   H2S 5073   4.071   6.007   6.954  1.7321  1.5300  0.9179
   38POPC    C3 5074   4.306   6.074   6.571 -0.0264  0.3575 -0.3042
   38POPC    HX 5075   4.277   6.180   6.580  1.3711  0.9083 -1.8448
   38POPC    HY 5076   4.337   6.056   6.466 -0.3024 -1.6425 -0.0905
   38POPC   O31 5077   4.413   6.037   6.661  0.3298  0.0643 -0.2861
   38POPC   C31 5078   4.481   5.925   6.631 -0.4459 -0.2620 -0.0632
   38POPC   O32 5079   4.474   5.866   6.528 -0.4711  0.3010 -0.1353
   38POPC   C32 5080   4.575   5.892   6.743  0.5521  0.1504 -0.1790
   38POPC   H2X 5081   4.563   5.964   6.827  2.0118  0.9102 -0.5887
   38POPC   H2Y 5082   4.669   5.911   6.688  0.7768  0.0213  0.1560
   38POPC   C23 5083   4.237   5.901   7.032 -0.5022  0.5329 -0.0892
   38POPC   H3R 5084   4.312   5.975   6.997 -0.7301  1.1394  0.6965
   38POPC   H3S 5085   4.275   5.796   7.031  0.6629  0.9329 -1.1917
   38POPC   C24 5086   4.214   5.941   7.179  0.6873  0.4313 -0.0742
   38POPC   H4R 5087   4.123   5.886   7.211  1.0729  1.1096  2.4007
   38POPC   H4S 5088   4.175   6.044   7.194  0.4129  0.4145 -0.6402
   38POPC   C25 5089   4.328   5.899   7.271  0.3723 -0.6296  0.5185
   38POPC   H5R 5090   4.420   5.958   7.251 -1.1429  0.6105 -3.8332
   38POPC   H5S 5091   4.345   5.794   7.243  0.2176 -0.4208 -0.3807
   38POPC   C26 5092   4.290   5.892   7.414 -0.1213 -0.0325  0.6012
   38POPC   H6R 5093   4.186   5.856   7.431 -1.2386  3.5713  2.3335
   38POPC   H6S 5094   4.273   5.996   7.449 -1.2035 -0.1908  0.5959
   38POPC   C27 5095   4.390   5.814   7.501  0.2153  0.1338  0.2061
   38POPC   H7R 5096   4.493   5.853   7.496  0.7050 -0.9523  1.3375
   38POPC   H7S 5097   4.404   5.718   7.447  3.5827  1.2872 -1.2355
   38POPC   C28 5098   4.340   5.791   7.646 -0.5019 -0.2003 -0.2049
   38POPC   H8R 5099   4.425   5.748   7.704  0.7526  0.4924 -1.4572
   38POPC   H8S 5100   4.265   5.709   7.649  0.3816 -1.0536 -0.7388
   38POPC   C29 5101   4.295   5.916   7.717  1.0149 -0.7107 -0.0851
   38POPC   H91 5102   4.266   5.991   7.643  1.0731 -1.0886 -0.4942
   38POPC  C210 5103   4.306   5.949   7.849  0.3130  0.1635  0.3622
   38POPC  H101 5104   4.267   6.048   7.877  1.8664  0.3836  1.9250
   38POPC  C211 5105   4.371   5.874   7.960 -0.2032  0.5540 -0.1623
   38POPC  H11R 5106   4.477   5.905   7.955  0.5084 -1.8362 -1.5834
   38POPC  H11S 5107   4.367   5.764   7.940 -0.7154  0.3218  1.1055
   38POPC  C212 5108   4.300   5.901   8.093  0.5214  0.6116 -0.0980
   38POPC  H12R 5109   4.195   5.864   8.097  1.2375 -1.4339  2.3984
   38POPC  H12S 5110   4.297   6.009   8.118  0.4888  0.5378  0.2275
   38POPC  C213 5111   4.372   5.825   8.207  0.9350 -0.0081 -0.0413
   38POPC  H13R 5112   4.470   5.874   8.223  1.2939  0.3213 -2.7991
   38POPC  H13S 5113   4.383   5.719   8.176  0.9135 -0.2657  0.8069
   38POPC  C214 5114   4.265   5.821   8.328 -0.2975  0.2224  0.4114
   38POPC  H14R 5115   4.172   5.773   8.292  0.8432 -2.7497  1.1245
   38POPC  H14S 5116   4.246   5.927   8.357 -0.8077  0.2699 -0.0761
   38POPC  C215 5117   4.325   5.741   8.449  0.1631  0.1632 -0.3464
   38POPC  H15R 5118   4.332   5.636   8.414 -0.2155 -0.3312  0.9813
   38POPC  H15S 5119   4.245   5.737   8.526 -1.9351 -0.6776 -2.4424
   38POPC  C216 5120   4.469   5.782   8.496  0.0644 -0.9388  0.0033
   38POPC  H16R 5121   4.467   5.885   8.539 -0.8582 -1.1193  0.4161
   38POPC  H16S 5122   4.545   5.782   8.415  0.2872 -1.3454  0.2133
   38POPC  C217 5123   4.528   5.696   8.609 -0.7827  0.1729 -0.1948
   38POPC  H17R 5124   4.626   5.726   8.652 -1.1574  1.4492 -0.2063
   38POPC  H17S 5125   4.552   5.593   8.575 -0.1026 -0.6296  2.4964
   38POPC  C218 5126   4.432   5.674   8.735 -0.5136 -0.6346 -0.0439
   38POPC  H18R 5127   4.399   5.778   8.757  3.7295  0.9910 -0.3068
   38POPC  H18S 5128   4.479   5.638   8.829 -1.0305 -1.8098 -0.2302
   38POPC  H18T 5129   4.342   5.617   8.707 -0.8834  0.3386 -0.9248
   38POPC   C33 5130   4.583   5.743   6.777 -0.1805 -0.6428 -0.0527
   38POPC   H3X 5131   4.624   5.685   6.691 -0.2105 -0.5409 -0.1366
   38POPC   H3Y 5132   4.477   5.711   6.789 -0.0321 -1.2753 -0.3337
   38POPC   C34 5133   4.659   5.722   6.911 -0.1470  0.1397  0.2404
   38POPC   H4X 5134   4.753   5.780   6.914  0.0418  0.0440 -1.8966
   38POPC   H4Y 5135   4.687   5.615   6.922 -1.2681 -0.0902  0.9937
   38POPC   C35 5136   4.575   5.765   7.028  0.3349 -0.1957 -0.3985
   38POPC   H5X 5137   4.476   5.715   7.014  1.1475 -2.3430  1.0751
   38POPC   H5Y 5138   4.557   5.874   7.017  2.8667  0.1123 -2.5033
   38POPC   C36 5139   4.636   5.735   7.161 -0.3032  1.0128 -0.2706
   38POPC   H6X 5140   4.679   5.633   7.164 -1.2466  0.6286  1.8739
   38POPC   H6Y 5141   4.572   5.744   7.252  1.6669 -0.5581  1.3675
   38POPC   C37 5142   4.750   5.830   7.195  0.0657 -0.3608  0.2894
   38POPC   H7X 5143   4.725   5.938   7.197 -0.9701 -0.5957  1.0386
   38POPC   H7Y 5144   4.844   5.826   7.136 -0.4734  1.8181 -0.8529
   38POPC   C38 5145   4.796   5.806   7.339 -0.1536 -0.8952  0.6999
   38POPC   H8X 5146   4.708   5.802   7.408  0.3840  1.4887  1.6176
   38POPC   H8Y 5147   4.852   5.897   7.367 -1.4007 -0.0043  0.4072
   38POPC   C39 5148   4.865   5.669   7.361  0.4451 -0.1781  0.2794
   38POPC   H9X 5149   4.947   5.648   7.289  0.7879  1.2098  0.2460
   38POPC   H9Y 5150   4.788   5.590   7.347  0.9561 -0.4884 -0.9719
   38POPC  C310 5151   4.933   5.660   7.493 -0.1278 -0.1231 -0.6678
   38POPC  H10X 5152   5.026   5.720   7.493  0.9570 -1.7607 -0.6239
   38POPC  H10Y 5153   4.972   5.560   7.520  0.4888  0.6763  1.6605
   38POPC  C311 5154   4.848   5.717   7.611  0.0747 -0.4153 -0.0373
   38POPC  H11X 5155   4.740   5.699   7.595  0.4024 -0.8316 -1.9746
   38POPC  H11Y 5156   4.844   5.828   7.607  1.6684 -0.2643  1.3463
   38POPC  C312 5157   4.900   5.688   7.752  0.4879 -0.2165 -0.9055
   38POPC  H12X 5158   5.003   5.728   7.757  1.6224 -3.0248  0.2739
   38POPC  H12Y 5159   4.908   5.580   7.775  0.0063 -0.3071 -1.1605
   38POPC  C313 5160   4.806   5.750   7.857 -0.4299  0.1429 -0.0682
   38POPC  H13X 5161   4.715   5.687   7.857 -0.7527  0.5941  0.5957
   38POPC  H13Y 5162   4.789   5.857   7.830  2.4984  1.0368  1.1265
   38POPC  C314 5163   4.860   5.741   7.999 -0.1810 -0.4747 -0.0043
   38POPC  H14X 5164   4.950   5.805   8.003 -0.1400 -0.5631  0.5490
   38POPC  H14Y 5165   4.873   5.634   8.023 -0.7229 -0.6416 -0.4201
   38POPC  C315 5166   4.766   5.812   8.101  0.3689 -0.6293 -0.1281
   38POPC  H15X 5167   4.665   5.767   8.099  0.2459 -0.3691  0.1790
   38POPC  H15Y 5168   4.737   5.912   8.062  0.8675 -1.6434 -3.4174
   38POPC  C316 5169   4.828   5.818   8.243  0.3897 -0.2286 -0.7735
   38POPC  H16X 5170   4.919   5.882   8.236  0.8324 -0.7423  0.1388
   38POPC  H16Y 5171   4.862   5.722   8.287  0.6427  0.1867 -0.0511
   38POPC  H16Z 5172   4.761   5.866   8.318  2.2541 -0.3093  1.0225
   39POPC     N 5173   0.364   1.352   5.736 -0.4520 -0.3463  0.4437
   39POPC   C12 5174   0.403   1.381   5.880  0.2858  0.2246 -0.2348
   39POPC  H12A 5175   0.499   1.431   5.882  1.5362 -2.0352 -0.1814
   39POPC  H12B 5176   0.432   1.289   5.928  0.1250  0.7087  0.8397
   39POPC   C13 5177   0.333   1.487   5.680 -0.2346 -0.5207  0.1552
   39POPC  H13A 5178   0.286   1.467   5.585  0.1940 -0.5300 -0.0593
   39POPC  H13B 5179   0.256   1.542   5.732 -0.8890  0.3349 -1.6376
   39POPC  H13C 5180   0.418   1.553   5.671  1.6410 -2.6200  1.5487
   39POPC   C14 5181   0.468   1.276   5.661 -0.6848 -0.1697  0.2800
   39POPC  H14A 5182   0.547   1.341   5.626 -2.0445  1.0646 -0.5895
   39POPC  H14B 5183   0.507   1.194   5.719 -1.4825  1.3724  3.2009
   39POPC  H14C 5184   0.434   1.225   5.572  0.6821  0.7948 -0.8357
   39POPC   C15 5185   0.237   1.268   5.733 -0.5172  0.0934 -0.1226
   39POPC  H15A 5186   0.181   1.276   5.640 -1.0807  0.7317  0.2610
   39POPC  H15B 5187   0.170   1.316   5.804  0.2281  1.7672 -0.5025
   39POPC  H15C 5188   0.268   1.169   5.760  2.5134  0.6434 -1.2234
   39POPC   C11 5189   0.309   1.453   5.981 -0.0995 -0.0813 -0.1512
   39POPC  H11A 5190   0.286   1.552   5.937  1.8964  0.3533 -0.3040
   39POPC  H11B 5191   0.367   1.469   6.074 -1.7592  0.2525  0.8632
   39POPC     P 5192   0.177   1.254   6.092 -0.3319 -0.1350 -0.0950
   39POPC   O13 5193   0.245   1.135   6.039  0.8551  0.5227 -0.2111
   39POPC   O14 5194   0.032   1.230   6.131  0.5131  0.2335 -0.1623
   39POPC   O12 5195   0.187   1.378   5.998 -0.2342  0.6375  0.0366
   39POPC   O11 5196   0.258   1.303   6.216  0.7074  0.0276 -0.0641
   39POPC    C1 5197   0.197   1.384   6.310  0.0629  0.2314  0.8862
   39POPC    HA 5198   0.130   1.464   6.272 -0.2708  0.1408  1.2714
   39POPC    HB 5199   0.282   1.443   6.350  0.6172  0.9143 -1.1748
   39POPC    C2 5200   0.111   1.315   6.420  0.2609  0.1785  0.7249
   39POPC    HS 5201   0.010   1.313   6.376  0.7240 -1.3047 -0.3588
   39POPC   O21 5202   0.109   1.402   6.535 -0.2295 -0.3840  0.3128
   39POPC   C21 5203   0.028   1.369   6.626 -0.3410 -0.1307 -0.6395
   39POPC   O22 5204  -0.055   1.284   6.625 -0.0925 -0.5514 -0.3676
   39POPC   C22 5205   0.063   1.443   6.751  0.0594  0.1280  0.3342
   39POPC   H2R 5206  -0.001   1.533   6.763  1.6423  1.1731  1.3451
   39POPC   H2S 5207   0.171   1.467   6.752  0.8678 -2.7289  3.6318
   39POPC    C3 5208   0.156   1.175   6.455  0.2311  0.5399  0.4286
   39POPC    HX 5209   0.148   1.121   6.358 -0.3142 -2.2470  1.9188
   39POPC    HY 5210   0.080   1.120   6.514 -0.7373 -1.1972 -2.2126
   39POPC   O31 5211   0.282   1.171   6.507 -0.8860 -0.0786  0.1315
   39POPC   C31 5212   0.299   1.128   6.632 -0.1743 -0.0097 -0.2107
   39POPC   O32 5213   0.208   1.082   6.698  0.2491 -0.3254  0.1081
   39POPC   C32 5214   0.448   1.171   6.675  1.4238  0.5451 -0.3042
   39POPC   H2X 5215   0.517   1.120   6.604  3.5196  2.5841  0.1288
   39POPC   H2Y 5216   0.460   1.281   6.659  1.0254  0.5604 -0.5099
   39POPC   C23 5217   0.058   1.359   6.881  0.1351  0.4309 -0.9872
   39POPC   H3R 5218   0.100   1.259   6.856 -0.4545  0.6523 -3.1157
   39POPC   H3S 5219  -0.048   1.341   6.908  0.1571  2.5868  0.7870
   39POPC   C24 5220   0.127   1.421   7.000  0.0290  0.1105  0.5177
   39POPC   H4R 5221   0.062   1.509   7.023  2.1927  1.7569  0.6409
   39POPC   H4S 5222   0.232   1.449   6.981  0.1728 -1.3293 -1.0885
   39POPC   C25 5223   0.136   1.326   7.128 -0.4527  0.3991  0.1780
   39POPC   H5R 5224   0.203   1.243   7.097  0.3917  1.5623 -1.2067
   39POPC   H5S 5225   0.039   1.277   7.154  0.2669 -0.6026  1.0562
   39POPC   C26 5226   0.199   1.393   7.247 -0.4482 -0.3033 -0.3459
   39POPC   H6R 5227   0.162   1.498   7.250 -2.4567 -1.0039  1.7489
   39POPC   H6S 5228   0.309   1.399   7.239 -0.3317  1.0282  1.6994
   39POPC   C27 5229   0.164   1.335   7.386 -0.2477 -0.3959 -0.3837
   39POPC   H7R 5230   0.055   1.312   7.378  0.2325 -2.9607 -0.2915
   39POPC   H7S 5231   0.180   1.409   7.467 -0.9540 -1.2320  0.5514
   39POPC   C28 5232   0.237   1.199   7.407 -0.1750  0.6428 -0.2677
   39POPC   H8R 5233   0.344   1.227   7.411  0.1402 -0.6793  1.5261
   39POPC   H8S 5234   0.217   1.126   7.326 -1.2945  1.8090 -1.0921
   39POPC   C29 5235   0.187   1.138   7.535  0.3333 -0.2691 -0.7209
   39POPC   H91 5236   0.103   1.069   7.515 -0.1858  0.4902 -1.2145
   39POPC  C210 5237   0.228   1.148   7.658  0.6799 -0.5015 -0.0513
   39POPC  H101 5238   0.177   1.091   7.737 -0.6164  0.6197 -0.0533
   39POPC  C211 5239   0.342   1.225   7.708 -0.4826  0.2943 -0.3413
   39POPC  H11R 5240   0.415   1.258   7.632 -0.1519 -1.1832 -0.6951
   39POPC  H11S 5241   0.393   1.167   7.788 -2.4392  0.6334  1.2285
   39POPC  C212 5242   0.287   1.345   7.796 -0.3073 -0.1220 -0.0828
   39POPC  H12R 5243   0.285   1.318   7.903 -0.7371 -2.9874 -0.7419
   39POPC  H12S 5244   0.188   1.385   7.764  0.7635  0.4947 -2.9472
   39POPC  C213 5245   0.379   1.471   7.790 -0.0203  0.0893 -0.0193
   39POPC  H13R 5246   0.406   1.497   7.686 -0.5424 -1.7607 -0.6407
   39POPC  H13S 5247   0.475   1.443   7.838  0.9188  1.7312 -0.8348
   39POPC  C214 5248   0.337   1.586   7.876 -0.4827 -0.1470 -0.4964
   39POPC  H14R 5249   0.331   1.556   7.983 -0.2306  1.0045 -0.1423
   39POPC  H14S 5250   0.234   1.616   7.848 -0.3526  0.5253 -0.2833
   39POPC  C215 5251   0.433   1.704   7.864  0.1488 -0.0923  0.3335
   39POPC  H15R 5252   0.436   1.740   7.759  0.2779  1.7543  0.9241
   39POPC  H15S 5253   0.535   1.674   7.895 -0.8393 -2.0000  1.9179
   39POPC  C216 5254   0.398   1.822   7.954  0.0065  0.4380 -0.7745
   39POPC  H16R 5255   0.481   1.895   7.948  1.3635 -1.0045 -0.4719
   39POPC  H16S 5256   0.405   1.785   8.058 -0.6580  4.8134  1.0327
   39POPC  C217 5257   0.264   1.892   7.935  0.4443  0.0500  0.6752
   39POPC  H17R 5258   0.240   1.959   8.021 -1.3681  0.9434 -0.4475
   39POPC  H17S 5259   0.191   1.808   7.932  1.1356 -0.5921  1.4607
   39POPC  C218 5260   0.263   1.968   7.805  0.0769 -0.4629  0.6992
   39POPC  H18R 5261   0.171   2.024   7.777  0.0818 -1.0888 -0.6605
   39POPC  H18S 5262   0.281   1.903   7.717  1.8871  2.6993 -1.4866
   39POPC  H18T 5263   0.340   2.049   7.812 -0.5690  0.3548 -1.0318
   39POPC   C33 5264   0.483   1.129   6.817 -0.1927  0.4709 -0.8733
   39POPC   H3X 5265   0.492   1.019   6.827 -0.9280  0.5647  1.4720
   39POPC   H3Y 5266   0.396   1.154   6.882  0.8073  2.5044 -0.2295
   39POPC   C34 5267   0.601   1.209   6.869 -0.4927 -0.3084  0.3370
   39POPC   H4X 5268   0.589   1.319   6.854 -2.8176 -0.7291 -1.5138
   39POPC   H4Y 5269   0.685   1.187   6.799  0.1111  0.5004  0.7884
   39POPC   C35 5270   0.640   1.183   7.014 -0.0249 -0.2309  0.8395
   39POPC   H5X 5271   0.724   1.252   7.037 -1.2988  1.7741 -0.2978
   39POPC   H5Y 5272   0.672   1.076   7.017  1.0049  0.0842  3.0485
   39POPC   C36 5273   0.535   1.221   7.122  0.3659 -0.8522  0.0822
   39POPC   H6X 5274   0.446   1.155   7.114 -0.7719  0.5876  0.4196
   39POPC   H6Y 5275   0.498   1.324   7.102  0.5174 -1.0458 -1.3110
   39POPC   C37 5276   0.601   1.222   7.264 -0.0576 -0.1553 -0.3096
   39POPC   H7X 5277   0.527   1.269   7.332 -1.3730 -1.4951 -0.7748
   39POPC   H7Y 5278   0.697   1.278   7.270 -0.0539 -0.2549  0.7655
   39POPC   C38 5279   0.623   1.079   7.305 -0.2091  0.2482 -0.1739
   39POPC   H8X 5280   0.711   1.044   7.247  2.1322  1.1834  2.5764
   39POPC   H8Y 5281   0.536   1.015   7.282  0.9219 -1.4417  0.0641
   39POPC   C39 5282   0.650   1.058   7.458 -0.1010  0.3728  0.2169
   39POPC   H9X 5283   0.643   0.951   7.487 -0.4283  0.5291  0.7512
   39POPC   H9Y 5284   0.578   1.111   7.525  3.1268 -0.0564  4.4877
   39POPC  C310 5285   0.802   1.085   7.489 -0.7226  0.2103 -0.4361
   39POPC  H10X 5286   0.837   1.180   7.442 -0.9288  1.2670  1.4258
   39POPC  H10Y 5287   0.862   1.008   7.437 -0.4090  0.2886 -0.1929
   39POPC  C311 5288   0.832   1.086   7.639 -0.2416 -0.2880  0.1827
   39POPC  H11X 5289   0.818   0.984   7.679  0.7793 -0.4087  0.2480
   39POPC  H11Y 5290   0.756   1.152   7.686  1.0945  0.3337  1.5373
   39POPC  C312 5291   0.965   1.146   7.678 -0.3492  0.8130 -0.2217
   39POPC  H12X 5292   0.971   1.257   7.670 -1.5334  0.8578 -0.6336
   39POPC  H12Y 5293   1.042   1.119   7.603  0.0839 -2.3740  1.2025
   39POPC  C313 5294   1.015   1.111   7.817  0.1864 -0.7281 -0.3443
   39POPC  H13X 5295   1.123   1.134   7.833 -0.2875  0.2162  1.9711
   39POPC  H13Y 5296   1.003   1.001   7.828 -1.2004 -0.6496 -0.9548
   39POPC  C314 5297   0.938   1.180   7.929 -0.7071  0.3777  0.6746
   39POPC  H14X 5298   0.829   1.164   7.912 -0.4944 -0.3943 -0.0090
   39POPC  H14Y 5299   0.972   1.283   7.908 -1.4599  0.4198 -0.4097
   39POPC  C315 5300   0.964   1.136   8.077 -0.4417  0.5177 -0.0584
   39POPC  H15X 5301   0.899   1.046   8.079 -2.2009  1.6453 -2.2487
   39POPC  H15Y 5302   0.912   1.210   8.142 -1.4840  0.7270 -1.1104
   39POPC  C316 5303   1.117   1.116   8.122 -0.0441 -0.1931 -0.1178
   39POPC  H16X 5304   1.151   1.027   8.065 -2.8606  0.1686 -2.5865
   39POPC  H16Y 5305   1.124   1.113   8.233  1.0263  0.5813 -0.1513
   39POPC  H16Z 5306   1.178   1.198   8.078  1.1323  0.1742  2.0476
   40POPC     N 5307   1.534   6.500   6.068 -0.4403 -0.0571  0.3911
   40POPC   C12 5308   1.523   6.652   6.058  0.3442  0.3058  0.4168
   40POPC  H12A 5309   1.440   6.686   6.119 -0.1385  2.7501 -1.4928
   40POPC  H12B 5310   1.500   6.667   5.954  1.1696 -0.3409  0.1289
   40POPC   C13 5311   1.405   6.432   6.030 -0.1569 -0.7712  0.1186
   40POPC  H13A 5312   1.386   6.435   5.924  2.8638 -0.6594 -0.5171
   40POPC  H13B 5313   1.405   6.326   6.053 -0.9384 -1.0001 -0.8651
   40POPC  H13C 5314   1.322   6.476   6.084 -0.8622  0.0611 -1.5706
   40POPC   C14 5315   1.635   6.460   5.964  0.0164  0.0384 -0.3990
   40POPC  H14A 5316   1.659   6.354   5.972 -0.7400 -0.1987 -1.1406
   40POPC  H14B 5317   1.608   6.489   5.864  0.0797  2.4661  0.2271
   40POPC  H14C 5318   1.719   6.524   5.984 -0.6058  0.8799 -0.4540
   40POPC   C15 5319   1.584   6.451   6.203  0.7939 -0.1806  0.5891
   40POPC  H15A 5320   1.661   6.514   6.246  0.1917  0.5850  0.5678
   40POPC  H15B 5321   1.608   6.346   6.207 -0.1013 -0.3835  4.4167
   40POPC  H15C 5322   1.509   6.465   6.279 -1.3122 -2.0745 -1.0295
   40POPC   C11 5323   1.643   6.745   6.096  0.0334 -0.4386  0.1304
   40POPC  H11A 5324   1.619   6.851   6.073 -0.8396 -0.8224 -0.7843
   40POPC  H11B 5325   1.735   6.723   6.038 -0.4784  2.5273 -2.0317
   40POPC     P 5326   1.576   6.821   6.331 -0.2833 -0.1501 -0.5149
   40POPC   O13 5327   1.439   6.840   6.276  0.5396  0.1247  0.2363
   40POPC   O14 5328   1.655   6.945   6.357  0.6439 -0.4656 -0.5412
   40POPC   O12 5329   1.669   6.736   6.234  0.4240  0.0014 -0.0046
   40POPC   O11 5330   1.568   6.734   6.458 -0.2437 -0.4526 -0.0848
   40POPC    C1 5331   1.691   6.675   6.514  1.0037 -0.2711 -0.6927
   40POPC    HA 5332   1.782   6.724   6.474  0.9830 -2.4158 -3.7634
   40POPC    HB 5333   1.710   6.573   6.474  2.6917 -0.1521 -0.2855
   40POPC    C2 5334   1.681   6.676   6.670 -0.2171 -0.2730  0.0256
   40POPC    HS 5335   1.779   6.647   6.714 -0.3463  1.2676  1.4175
   40POPC   O21 5336   1.566   6.607   6.721 -0.0164  0.0605  0.8536
   40POPC   C21 5337   1.586   6.482   6.755 -0.2239  0.0085  0.8174
   40POPC   O22 5338   1.694   6.427   6.764 -0.0541 -0.1388 -0.5508
   40POPC   C22 5339   1.450   6.414   6.784  0.2376  0.0844 -0.0554
   40POPC   H2R 5340   1.424   6.343   6.703  1.5750  1.1339 -1.4785
   40POPC   H2S 5341   1.369   6.488   6.796  0.2519 -0.1041  1.4535
   40POPC    C3 5342   1.676   6.827   6.712 -0.5710  0.1445  0.3830
   40POPC    HX 5343   1.606   6.885   6.649 -0.9745 -0.3347  0.3878
   40POPC    HY 5344   1.779   6.868   6.704 -0.3942  0.1084  2.1569
   40POPC   O31 5345   1.641   6.842   6.851 -0.4626 -0.0270 -0.3551
   40POPC   C31 5346   1.521   6.872   6.893 -0.6839  0.8443  0.5485
   40POPC   O32 5347   1.424   6.891   6.824 -0.1122 -0.2337  0.0634
   40POPC   C32 5348   1.524   6.846   7.045 -0.0958 -0.1206 -0.0660
   40POPC   H2X 5349   1.612   6.902   7.082  0.9099 -0.6465 -1.6118
   40POPC   H2Y 5350   1.537   6.736   7.052  0.7388  0.0067  0.5432
   40POPC   C23 5351   1.475   6.328   6.914 -0.3504 -0.0621 -0.4148
   40POPC   H3R 5352   1.558   6.255   6.898 -1.3834 -0.8574 -2.6554
   40POPC   H3S 5353   1.378   6.277   6.930 -0.3156  0.3940  1.3982
   40POPC   C24 5354   1.486   6.407   7.046  0.0267 -0.4447  0.4830
   40POPC   H4R 5355   1.385   6.449   7.068 -0.3482 -1.1329  0.0996
   40POPC   H4S 5356   1.565   6.483   7.026  0.4106 -0.7504  0.8317
   40POPC   C25 5357   1.529   6.325   7.165  0.1621  0.1541  0.2946
   40POPC   H5R 5358   1.606   6.258   7.120  1.4853  2.9254 -1.8405
   40POPC   H5S 5359   1.440   6.276   7.209 -0.8392  2.9891  1.6240
   40POPC   C26 5360   1.593   6.413   7.274 -0.7225  0.4459 -0.7993
   40POPC   H6R 5361   1.617   6.342   7.357  3.1693  1.6792 -0.6739
   40POPC   H6S 5362   1.524   6.490   7.314 -0.4596  0.2978 -0.0408
   40POPC   C27 5363   1.739   6.470   7.243  0.0466 -0.4324  0.1457
   40POPC   H7R 5364   1.733   6.533   7.151 -1.2187 -0.5067  0.1558
   40POPC   H7S 5365   1.810   6.392   7.210  1.0174  0.1885  0.7069
   40POPC   C28 5366   1.811   6.542   7.361 -0.5481 -0.0533  0.0150
   40POPC   H8R 5367   1.907   6.578   7.319  0.0066  1.5070  2.4590
   40POPC   H8S 5368   1.824   6.473   7.446 -3.5115  0.0895  0.6956
   40POPC   C29 5369   1.735   6.662   7.397  0.4624  0.8136  0.3478
   40POPC   H91 5370   1.713   6.731   7.314 -0.3052  0.3926  0.1821
   40POPC  C210 5371   1.677   6.688   7.514  0.4094 -0.1658  0.0670
   40POPC  H101 5372   1.626   6.784   7.529  1.5567  0.8999 -2.3404
   40POPC  C211 5373   1.679   6.601   7.635 -0.5447  0.3531  0.8698
   40POPC  H11R 5374   1.719   6.498   7.624  0.0836  0.5085  1.6502
   40POPC  H11S 5375   1.572   6.606   7.665 -0.3576  2.3687  1.3066
   40POPC  C212 5376   1.770   6.661   7.741 -0.4608 -0.7953 -0.1581
   40POPC  H12R 5377   1.752   6.770   7.752 -0.9912 -0.9968  1.1362
   40POPC  H12S 5378   1.877   6.656   7.712  0.1739  0.8892  1.6265
   40POPC  C213 5379   1.737   6.597   7.876  0.1964  0.4146 -0.8268
   40POPC  H13R 5380   1.735   6.487   7.866  0.8823  0.2122  0.8733
   40POPC  H13S 5381   1.631   6.624   7.894  0.8194  1.6896  1.3347
   40POPC  C214 5382   1.816   6.644   7.997 -0.4820 -0.6766 -0.9244
   40POPC  H14R 5383   1.850   6.749   7.986  0.2275 -0.8367 -0.2819
   40POPC  H14S 5384   1.906   6.579   8.007 -0.4270 -0.2660  2.2075
   40POPC  C215 5385   1.727   6.639   8.115 -0.2297  0.4991  0.0732
   40POPC  H15R 5386   1.698   6.533   8.136  2.5186 -0.1263  1.1612
   40POPC  H15S 5387   1.634   6.696   8.096  0.6523  2.2468  0.8099
   40POPC  C216 5388   1.786   6.685   8.247  0.1030  0.5826  0.1531
   40POPC  H16R 5389   1.721   6.653   8.331 -0.7146  1.4156 -0.1440
   40POPC  H16S 5390   1.794   6.795   8.263  1.3068  0.2484  2.1199
   40POPC  C217 5391   1.929   6.645   8.280  0.0544 -0.4537  0.2802
   40POPC  H17R 5392   2.004   6.682   8.208 -0.5021  0.7292  0.2855
   40POPC  H17S 5393   1.932   6.534   8.288  0.3794 -0.4369  0.4164
   40POPC  C218 5394   1.963   6.713   8.413 -0.9472 -0.7448 -0.1473
   40POPC  H18R 5395   1.909   6.652   8.488  0.5984 -0.3564  1.3276
   40POPC  H18S 5396   1.932   6.820   8.410 -0.6141 -0.5741  1.4616
   40POPC  H18T 5397   2.071   6.700   8.434 -0.9466  0.2960  0.5479
   40POPC   C33 5398   1.393   6.879   7.113 -0.4434  0.1105  0.0378
   40POPC   H3X 5399   1.299   6.858   7.058 -0.4186  0.9174 -0.3318
   40POPC   H3Y 5400   1.403   6.988   7.133  0.4756 -0.2626  1.8703
   40POPC   C34 5401   1.385   6.828   7.255 -1.4361 -0.1731  0.5269
   40POPC   H4X 5402   1.319   6.892   7.318 -0.3564 -0.0389  1.5756
   40POPC   H4Y 5403   1.479   6.818   7.314 -1.1771  0.8083  0.2923
   40POPC   C35 5404   1.320   6.691   7.255 -0.2191 -0.3444  0.3200
   40POPC   H5X 5405   1.392   6.630   7.196  0.0960  1.4320 -1.2532
   40POPC   H5Y 5406   1.218   6.712   7.217  0.2629  2.1799  0.2395
   40POPC   C36 5407   1.314   6.641   7.406  0.3375  0.0524  0.7032
   40POPC   H6X 5408   1.257   6.717   7.463 -1.5774 -0.2546 -0.6997
   40POPC   H6Y 5409   1.418   6.622   7.440  1.1669 -1.5581 -2.3510
   40POPC   C37 5410   1.238   6.509   7.425  0.7282 -0.6373 -0.0982
   40POPC   H7X 5411   1.320   6.435   7.430  1.4711  0.1971  0.3059
   40POPC   H7Y 5412   1.170   6.477   7.343 -3.4895  0.3404  2.6848
   40POPC   C38 5413   1.147   6.495   7.548 -0.0920 -0.1360  0.3290
   40POPC   H8X 5414   1.101   6.395   7.530  2.7411 -1.4185 -0.4912
   40POPC   H8Y 5415   1.069   6.573   7.561  0.5658  0.5170  0.4105
   40POPC   C39 5416   1.230   6.483   7.676  0.3341  0.1533  0.0674
   40POPC   H9X 5417   1.285   6.579   7.685  0.9020 -0.1237 -0.3905
   40POPC   H9Y 5418   1.299   6.397   7.664  3.3037  2.5090 -0.8931
   40POPC  C310 5419   1.139   6.446   7.790  0.8385 -0.4948  0.0341
   40POPC  H10X 5420   1.087   6.352   7.760 -0.3188  0.2932 -0.5046
   40POPC  H10Y 5421   1.071   6.525   7.828  0.9376  0.0606 -0.9042
   40POPC  C311 5422   1.223   6.399   7.914  0.5732 -0.4729  0.7854
   40POPC  H11X 5423   1.297   6.323   7.883 -1.9027 -2.7526  0.0842
   40POPC  H11Y 5424   1.152   6.354   7.986 -0.2874  0.0081  0.2592
   40POPC  C312 5425   1.302   6.520   7.972  0.4112  0.2964  0.0848
   40POPC  H12X 5426   1.221   6.592   7.999 -0.5689 -0.6858 -0.1367
   40POPC  H12Y 5427   1.359   6.559   7.886 -1.4832 -0.8568 -1.8025
   40POPC  C313 5428   1.375   6.491   8.112 -0.3076  0.1134 -0.7154
   40POPC  H13X 5429   1.294   6.466   8.185  1.4235 -0.1459  1.2193
   40POPC  H13Y 5430   1.426   6.575   8.163 -1.4537 -0.5847  1.7497
   40POPC  C314 5431   1.471   6.364   8.104  0.5381 -0.0035  0.0269
   40POPC  H14X 5432   1.560   6.390   8.043  1.5061 -0.6976  1.0972
   40POPC  H14Y 5433   1.411   6.286   8.052 -0.5154 -0.0841  1.3200
   40POPC  C315 5434   1.522   6.320   8.241  0.5267 -0.2309 -0.4499
   40POPC  H15X 5435   1.433   6.294   8.301  0.7357  0.1141  0.0185
   40POPC  H15Y 5436   1.552   6.409   8.300 -2.2055  0.7994 -0.4777
   40POPC  C316 5437   1.615   6.200   8.238  0.4210 -0.2959  0.3383
   40POPC  H16X 5438   1.562   6.113   8.194  0.6004  0.9753 -2.6362
   40POPC  H16Y 5439   1.647   6.169   8.340 -1.2386  0.1789  1.0423
   40POPC  H16Z 5440   1.701   6.211   8.168 -1.0220 -0.7700 -1.5901
   41CHL1    C3 5441   0.309   2.263  10.186 -0.6160  0.2456  0.5116
   41CHL1    H3 5442   0.213   2.221  10.149  0.8941 -0.7462 -2.6561
   41CHL1    O3 5443   0.313   2.251  10.333 -0.5662  0.0194  0.3873
   41CHL1   H3' 5444   0.383   2.312  10.355 -2.1102  2.4513 -0.9745
   41CHL1    C4 5445   0.433   2.194  10.117 -0.3981  0.0164 -0.8224
   41CHL1   H4A 5446   0.525   2.233  10.165 -1.4585  1.7721 -0.1026
   41CHL1   H4B 5447   0.450   2.089  10.149  2.6348  0.6776  0.0568
   41CHL1    C5 5448   0.423   2.209   9.967 -0.3436 -0.8333 -0.1392
   41CHL1    C6 5449   0.421   2.112   9.880  0.3741  0.7920  0.2519
   41CHL1    H6 5450   0.420   2.010   9.920 -0.4807  0.9049  0.5237
   41CHL1    C7 5451   0.417   2.122   9.724 -0.6594  0.5489 -0.8927
   41CHL1   H7A 5452   0.471   2.039   9.673 -3.3765 -2.1381  0.2724
   41CHL1   H7B 5453   0.311   2.109   9.694 -1.8352 -0.1215  3.0348
   41CHL1    C8 5454   0.461   2.261   9.674  0.6782  0.2572  0.1169
   41CHL1    H8 5455   0.571   2.273   9.686  0.5758  1.8369 -0.3433
   41CHL1   C14 5456   0.426   2.273   9.527 -0.1663  0.6275  0.3133
   41CHL1   H14 5457   0.316   2.257   9.524 -0.1303 -0.0606  1.8125
   41CHL1   C15 5458   0.479   2.166   9.429  0.2323 -0.1617  0.3644
   41CHL1  H15A 5459   0.589   2.154   9.435  0.3795 -0.3303 -1.9499
   41CHL1  H15B 5460   0.421   2.072   9.440  0.7588 -0.5972 -0.5257
   41CHL1   C16 5461   0.447   2.229   9.295 -0.6068  0.7098  0.2062
   41CHL1  H16A 5462   0.536   2.220   9.229 -1.3898 -1.3904 -0.6560
   41CHL1  H16B 5463   0.366   2.172   9.245  0.3380  0.1301 -0.7264
   41CHL1   C17 5464   0.411   2.380   9.321 -0.3168 -0.7576  0.1717
   41CHL1   H17 5465   0.300   2.383   9.316 -0.3795 -1.7442  0.8044
   41CHL1   C13 5466   0.458   2.405   9.462  0.7487  0.2620  0.1924
   41CHL1   C18 5467   0.606   2.436   9.475 -0.5487  0.0468 -0.0498
   41CHL1  H18A 5468   0.670   2.383   9.402  0.5643  2.5032 -0.9633
   41CHL1  H18B 5469   0.638   2.541   9.464  1.7572 -0.2735  2.4927
   41CHL1  H18C 5470   0.651   2.409   9.573 -1.6157  1.0545  0.7388
   41CHL1   C12 5471   0.376   2.511   9.540 -0.1745 -0.0533 -0.0778
   41CHL1  H12A 5472   0.386   2.611   9.492  1.5114  0.3981  1.1242
   41CHL1  H12B 5473   0.271   2.475   9.528 -0.1816  0.1540 -0.6853
   41CHL1   C11 5474   0.405   2.508   9.691 -0.1956 -0.1217 -0.1596
   41CHL1  H11A 5475   0.502   2.560   9.704 -0.1460 -0.6710  2.1834
   41CHL1  H11B 5476   0.331   2.559   9.755  1.0490 -0.7052  1.8505
   41CHL1    C9 5477   0.388   2.364   9.759  0.0460 -0.3553  0.1280
   41CHL1    H9 5478   0.280   2.337   9.748 -0.9895  3.1979  0.2109
   41CHL1   C10 5479   0.415   2.355   9.920 -0.4314  0.5461  0.2198
   41CHL1   C19 5480   0.541   2.428   9.946 -0.0321 -0.1901  0.0115
   41CHL1  H19A 5481   0.531   2.537   9.924  1.8093 -0.1129 -0.6328
   41CHL1  H19B 5482   0.552   2.437  10.056 -0.2745 -1.4520  0.1541
   41CHL1  H19C 5483   0.632   2.390   9.894  1.2088 -1.5849  2.9749
   41CHL1    C1 5484   0.299   2.426  10.001  0.4637  0.1510  1.0975
   41CHL1   H1A 5485   0.302   2.530   9.962 -1.3246 -0.2121 -0.1279
   41CHL1   H1B 5486   0.205   2.379   9.965  1.6999 -0.5904 -1.3941
   41CHL1    C2 5487   0.306   2.413  10.152 -0.8371  0.1540  0.5750
   41CHL1   H2A 5488   0.224   2.472  10.197 -1.1971 -1.1333  1.6773
   41CHL1   H2B 5489   0.396   2.460  10.197 -2.6037  1.1443  3.3625
   41CHL1   C20 5490   0.461   2.483   9.212 -0.3115  0.6852 -0.1610
   41CHL1   H20 5491   0.572   2.496   9.207 -0.2182 -0.1194 -0.3480
   41CHL1   C21 5492   0.412   2.626   9.229  0.2601  0.1041 -0.6312
   41CHL1  H21A 5493   0.305   2.654   9.225 -0.3199 -2.0892 -1.7702
   41CHL1  H21B 5494   0.468   2.696   9.163  1.5661 -0.1092  0.2104
   41CHL1  H21C 5495   0.451   2.665   9.326  1.6392 -0.9433 -0.7242
   41CHL1   C22 5496   0.439   2.424   9.067 -0.0275 -0.0256  0.1657
   41CHL1  H22A 5497   0.467   2.318   9.049 -0.1425  0.0703 -0.6103
   41CHL1  H22B 5498   0.329   2.437   9.058  0.0040  0.9323  0.9714
   41CHL1   C23 5499   0.515   2.505   8.967  0.2889 -0.1139 -0.2918
   41CHL1  H23A 5500   0.495   2.614   8.981  0.7335 -0.1230  0.4674
   41CHL1  H23B 5501   0.622   2.482   8.982  0.4487 -0.2293 -1.5469
   41CHL1   C24 5502   0.486   2.463   8.819 -0.0274 -0.0803 -0.1885
   41CHL1  H24A 5503   0.518   2.357   8.815 -0.1997 -0.1870  1.0512
   41CHL1  H24B 5504   0.378   2.467   8.796 -0.2462  0.2403  0.8558
   41CHL1   C25 5505   0.579   2.539   8.722  0.3257  0.0585  0.2913
   41CHL1   H25 5506   0.683   2.523   8.760  1.3964  2.4061 -1.3997
   41CHL1   C26 5507   0.559   2.463   8.587  0.0586 -1.2236 -0.0441
   41CHL1  H26A 5508   0.456   2.463   8.546  0.6258  0.6019 -1.6800
   41CHL1  H26B 5509   0.625   2.523   8.519 -2.0364 -0.5297 -1.5601
   41CHL1  H26C 5510   0.593   2.359   8.605  1.5025 -0.9274 -0.8558
   41CHL1   C27 5511   0.547   2.686   8.713  0.0427  0.0345 -0.3499
   41CHL1  H27A 5512   0.451   2.700   8.766  0.6261 -0.4397  0.8895
   41CHL1  H27B 5513   0.628   2.742   8.765 -0.3063  0.7512 -0.5660
   41CHL1  H27C 5514   0.526   2.730   8.613 -0.6953  1.1061  0.2555
   42CHL1    C3 5515   6.652   2.301  10.112  0.0030  0.3197 -0.3045
   42CHL1    H3 5516   6.583   2.217  10.092 -0.0383  0.6064 -1.4127
   42CHL1    O3 5517   6.657   2.316  10.252  0.0143  0.3348 -0.3172
   42CHL1   H3' 5518   6.614   2.401  10.269  2.0109  1.4006 -0.2909
   42CHL1    C4 5519   6.788   2.274  10.052  0.0043 -0.0200  0.2506
   42CHL1   H4A 5520   6.850   2.359  10.085  0.0754  0.2521 -0.5601
   42CHL1   H4B 5521   6.825   2.186  10.110  0.2728 -0.9001 -1.1952
   42CHL1    C5 5522   6.783   2.249   9.905  0.5976 -0.4037 -0.3735
   42CHL1    C6 5523   6.828   2.131   9.862  1.0393  0.6111 -0.0104
   42CHL1    H6 5524   6.868   2.057   9.932 -1.5484 -0.4294  0.4937
   42CHL1    C7 5525   6.822   2.084   9.718  0.6138 -0.6401 -0.6579
   42CHL1   H7A 5526   6.920   2.041   9.688  0.2129  0.0637 -3.2990
   42CHL1   H7B 5527   6.742   2.008   9.712 -1.2453  1.1294  0.4641
   42CHL1    C8 5528   6.795   2.203   9.618  0.0845 -0.2056 -0.1028
   42CHL1    H8 5529   6.884   2.269   9.614 -0.3980  0.4554 -0.1585
   42CHL1   C14 5530   6.754   2.161   9.476  0.3771 -0.0451 -0.6358
   42CHL1   H14 5531   6.666   2.096   9.495  0.9554 -1.0843 -1.3930
   42CHL1   C15 5532   6.850   2.062   9.410 -0.0682 -0.0654  0.1085
   42CHL1  H15A 5533   6.954   2.074   9.446 -0.6023 -1.8509  2.4675
   42CHL1  H15B 5534   6.832   1.959   9.446 -3.7309  0.1932 -0.6099
   42CHL1   C16 5535   6.823   2.076   9.259  0.1895  0.6597 -0.0344
   42CHL1  H16A 5536   6.910   2.104   9.197  0.5788  1.9576  1.0561
   42CHL1  H16B 5537   6.779   1.980   9.224 -2.1697  1.7882 -0.3405
   42CHL1   C17 5538   6.720   2.192   9.244  0.0978 -0.0716  0.3064
   42CHL1   H17 5539   6.623   2.139   9.251 -0.5142  0.7319 -1.6735
   42CHL1   C13 5540   6.726   2.272   9.376  0.3507  0.3553 -0.1861
   42CHL1   C18 5541   6.850   2.369   9.347 -0.1777  0.1649  0.2311
   42CHL1  H18A 5542   6.817   2.454   9.283 -1.4650  0.7516  1.6348
   42CHL1  H18B 5543   6.882   2.411   9.445 -0.8782 -0.6956  0.8435
   42CHL1  H18C 5544   6.932   2.316   9.292 -1.7671 -0.0499 -2.0794
   42CHL1   C12 5545   6.602   2.353   9.432 -0.0430 -0.4151  0.6465
   42CHL1  H12A 5546   6.582   2.439   9.365 -0.1204 -0.4795  0.5862
   42CHL1  H12B 5547   6.518   2.281   9.438  1.4571 -2.3681 -0.3761
   42CHL1   C11 5548   6.627   2.402   9.574 -0.4733  0.6566 -0.2290
   42CHL1  H11A 5549   6.717   2.465   9.562  0.2323 -0.6350 -2.0569
   42CHL1  H11B 5550   6.551   2.471   9.617  1.5725  3.1060 -0.2764
   42CHL1    C9 5551   6.678   2.292   9.674 -0.3184 -0.3292 -0.6460
   42CHL1    H9 5552   6.597   2.217   9.684 -0.9913  0.4265 -0.2882
   42CHL1   C10 5553   6.708   2.350   9.819  0.0588  0.2582  0.2835
   42CHL1   C19 5554   6.797   2.482   9.816 -0.3063 -0.2180  0.5423
   42CHL1  H19A 5555   6.757   2.563   9.752 -0.6672 -1.5650 -0.9931
   42CHL1  H19B 5556   6.814   2.532   9.914 -0.2748  0.4087  0.2221
   42CHL1  H19C 5557   6.901   2.464   9.785  0.0358  0.0397  1.4909
   42CHL1    C1 5558   6.582   2.399   9.894 -0.2931 -0.1558  0.0513
   42CHL1   H1A 5559   6.529   2.488   9.854 -1.0568 -1.2035 -1.3451
   42CHL1   H1B 5560   6.505   2.319   9.890 -2.1318  1.5119  0.2314
   42CHL1    C2 5561   6.589   2.420  10.047 -0.3631  0.3803  0.5212
   42CHL1   H2A 5562   6.489   2.451  10.084 -0.4302  1.2348 -0.3578
   42CHL1   H2B 5563   6.652   2.509  10.070  0.3630 -0.6309  2.7454
   42CHL1   C20 5564   6.726   2.265   9.107  0.7437 -0.8375  0.0931
   42CHL1   H20 5565   6.820   2.323   9.095  0.0194  0.3497 -0.0538
   42CHL1   C21 5566   6.610   2.368   9.101 -0.2585 -0.8007  0.1030
   42CHL1  H21A 5567   6.512   2.334   9.141 -0.3339 -0.1086  0.5301
   42CHL1  H21B 5568   6.595   2.410   9.000  0.1890 -0.6686  0.0887
   42CHL1  H21C 5569   6.650   2.451   9.164 -1.1289 -1.3513  1.4449
   42CHL1   C22 5570   6.713   2.161   8.992 -0.0363  0.9019  0.0152
   42CHL1  H22A 5571   6.777   2.073   9.013 -2.8128 -1.1569  0.3691
   42CHL1  H22B 5572   6.611   2.117   9.001  1.2798 -2.4393  0.1963
   42CHL1   C23 5573   6.764   2.221   8.858 -0.1963 -0.6676 -0.3749
   42CHL1  H23A 5574   6.678   2.281   8.821  0.0396  0.3756  0.6928
   42CHL1  H23B 5575   6.846   2.291   8.886  0.9913 -3.1914  3.1867
   42CHL1   C24 5576   6.786   2.119   8.742  0.3219 -0.4118  0.7652
   42CHL1  H24A 5577   6.883   2.066   8.752  0.4804 -0.8952 -2.3141
   42CHL1  H24B 5578   6.701   2.048   8.757 -1.1644  1.5436  1.9890
   42CHL1   C25 5579   6.785   2.175   8.595 -0.3108  0.3213 -1.0261
   42CHL1   H25 5580   6.862   2.254   8.582 -0.0769  0.1600 -0.6400
   42CHL1   C26 5581   6.808   2.065   8.491 -0.5810 -0.0912  0.4272
   42CHL1  H26A 5582   6.874   1.979   8.514 -0.1252 -0.1736 -1.0681
   42CHL1  H26B 5583   6.708   2.024   8.464 -0.2394 -1.6323  1.4344
   42CHL1  H26C 5584   6.851   2.117   8.402  0.5573 -0.9342  0.4668
   42CHL1   C27 5585   6.648   2.243   8.566 -0.6254 -1.0937 -0.2734
   42CHL1  H27A 5586   6.556   2.182   8.580 -2.4198  1.4419 -0.3884
   42CHL1  H27B 5587   6.625   2.334   8.625  1.3821 -2.7562  3.4430
   42CHL1  H27C 5588   6.631   2.285   8.464  0.1888 -0.3945 -0.1298
   43CHL1    C3 5589   6.300   2.033  10.030  0.0139 -0.2196  0.5751
   43CHL1    H3 5590   6.350   2.132  10.013 -3.9069  1.6944 -1.1235
   43CHL1    O3 5591   6.241   2.029  10.158  0.5376 -0.0446 -0.9304
   43CHL1   H3' 5592   6.152   2.064  10.148  0.9657  2.1392  1.6631
   43CHL1    C4 5593   6.184   2.033   9.929 -0.4780  1.3442  1.0218
   43CHL1   H4A 5594   6.130   1.940   9.955  1.3579 -0.0432  0.0783
   43CHL1   H4B 5595   6.119   2.121   9.951  1.2588  2.5794  1.4631
   43CHL1    C5 5596   6.242   2.034   9.785 -0.7675  0.2331  0.0374
   43CHL1    C6 5597   6.216   2.133   9.702  0.2473 -1.3076 -0.3347
   43CHL1    H6 5598   6.165   2.224   9.736  1.9920  0.0617 -1.1915
   43CHL1    C7 5599   6.271   2.148   9.564  0.2574  0.0991  0.0161
   43CHL1   H7A 5600   6.211   2.210   9.494  3.0053  1.6796 -1.0958
   43CHL1   H7B 5601   6.361   2.211   9.578  1.0220 -0.9727  0.0348
   43CHL1    C8 5602   6.308   2.004   9.510  0.6390 -0.6590  0.5947
   43CHL1    H8 5603   6.214   1.944   9.512  0.7620 -0.9786 -1.6014
   43CHL1   C14 5604   6.368   2.005   9.369  0.4230  0.2089  0.0860
   43CHL1   H14 5605   6.467   2.055   9.378  0.3272  0.1471  1.8826
   43CHL1   C15 5606   6.297   2.088   9.256 -0.0541  0.1710 -0.1933
   43CHL1  H15A 5607   6.191   2.057   9.265  0.5971 -2.0876  0.2571
   43CHL1  H15B 5608   6.313   2.196   9.278  0.8078 -0.0022  0.0721
   43CHL1   C16 5609   6.341   2.024   9.125 -0.2068 -0.3445 -0.1285
   43CHL1  H16A 5610   6.256   1.989   9.063  0.9036  0.4065 -2.1854
   43CHL1  H16B 5611   6.408   2.090   9.066  0.9047 -3.0202 -2.0420
   43CHL1   C17 5612   6.426   1.902   9.156 -0.3055 -0.1080 -0.5523
   43CHL1   H17 5613   6.524   1.953   9.166 -1.1129  1.7062 -1.4973
   43CHL1   C13 5614   6.388   1.863   9.308 -0.4432 -0.0589  0.0566
   43CHL1   C18 5615   6.264   1.776   9.310  0.3944 -0.4574 -0.0532
   43CHL1  H18A 5616   6.270   1.676   9.262  1.8240  0.7434 -2.5896
   43CHL1  H18B 5617   6.230   1.762   9.414  1.7774 -0.5872  0.4068
   43CHL1  H18C 5618   6.185   1.838   9.262 -0.0861  0.6798  2.0702
   43CHL1   C12 5619   6.496   1.794   9.393  0.7425  0.1290 -0.3152
   43CHL1  H12A 5620   6.518   1.689   9.364  1.4410 -0.1046  0.9636
   43CHL1  H12B 5621   6.591   1.852   9.392  0.5453  0.5764  1.8995
   43CHL1   C11 5622   6.452   1.796   9.545 -0.4124 -0.2128  0.0781
   43CHL1  H11A 5623   6.380   1.711   9.550 -0.5836 -0.0835 -0.2018
   43CHL1  H11B 5624   6.539   1.767   9.607 -1.3004 -0.0494  1.4389
   43CHL1    C9 5625   6.401   1.927   9.605 -0.0118 -0.4972  0.5093
   43CHL1    H9 5626   6.483   2.003   9.605 -0.4445  0.0671  2.9571
   43CHL1   C10 5627   6.335   1.912   9.750 -0.1894  0.6658  0.8925
   43CHL1   C19 5628   6.240   1.789   9.750  0.4999  0.3343 -0.0940
   43CHL1  H19A 5629   6.168   1.803   9.667 -1.2362  0.5504  1.3646
   43CHL1  H19B 5630   6.300   1.696   9.741 -0.3516 -0.4085  1.3338
   43CHL1  H19C 5631   6.192   1.776   9.850  1.3807  0.2653  0.3331
   43CHL1    C1 5632   6.441   1.887   9.863  0.2557  0.0214  0.3611
   43CHL1   H1A 5633   6.479   1.782   9.866 -1.2182 -0.5521 -0.3162
   43CHL1   H1B 5634   6.530   1.953   9.854 -0.8395  1.4421 -0.3471
   43CHL1    C2 5635   6.398   1.914  10.007 -0.7478 -0.9042 -0.0704
   43CHL1   H2A 5636   6.495   1.928  10.060 -0.1191 -0.1828 -1.3501
   43CHL1   H2B 5637   6.340   1.828  10.044 -1.1460 -0.3961  0.5128
   43CHL1   C20 5638   6.421   1.796   9.049 -0.6283  0.9437  0.7610
   43CHL1   H20 5639   6.320   1.750   9.049 -0.5878  0.8280  1.8131
   43CHL1   C21 5640   6.528   1.685   9.076 -0.4243 -0.4280  0.3606
   43CHL1  H21A 5641   6.477   1.586   9.085 -1.3149 -0.4626 -3.5179
   43CHL1  H21B 5642   6.595   1.715   9.159  1.2963 -0.0769 -1.0996
   43CHL1  H21C 5643   6.591   1.667   8.986 -0.3238  1.4219  0.0320
   43CHL1   C22 5644   6.452   1.859   8.904  0.0129  0.3350  0.2937
   43CHL1  H22A 5645   6.379   1.940   8.886 -1.5750 -0.9986  0.5229
   43CHL1  H22B 5646   6.557   1.891   8.886 -0.5075  2.0093  0.0489
   43CHL1   C23 5647   6.415   1.754   8.794 -0.3363  0.4329 -0.0140
   43CHL1  H23A 5648   6.501   1.684   8.792  0.8603  1.8745 -0.8865
   43CHL1  H23B 5649   6.331   1.683   8.808  0.6026 -0.5767  0.7151
   43CHL1   C24 5650   6.393   1.820   8.654 -0.1403  0.6403 -0.8244
   43CHL1  H24A 5651   6.290   1.862   8.650 -0.8101 -0.9563 -1.0699
   43CHL1  H24B 5652   6.459   1.908   8.667  0.1587 -0.0069  3.2632
   43CHL1   C25 5653   6.419   1.732   8.532 -0.6161  0.0153 -0.0462
   43CHL1   H25 5654   6.520   1.685   8.534 -0.7906 -0.6049 -2.4715
   43CHL1   C26 5655   6.316   1.622   8.513 -0.1857 -0.8164 -0.3531
   43CHL1  H26A 5656   6.222   1.661   8.469  0.9634  0.0595 -2.1807
   43CHL1  H26B 5657   6.363   1.554   8.439  1.5886 -1.0855  0.9354
   43CHL1  H26C 5658   6.299   1.563   8.605 -2.9971 -1.2602 -1.0832
   43CHL1   C27 5659   6.403   1.807   8.407 -0.0366 -0.5708  0.6717
   43CHL1  H27A 5660   6.299   1.833   8.377  0.0670 -1.2625 -0.3257
   43CHL1  H27B 5661   6.474   1.892   8.420  2.1181 -2.2681  0.5558
   43CHL1  H27C 5662   6.452   1.757   8.321  1.5006  1.3196  0.3778
   44CHL1    C3 5663   0.868   1.165  10.033  0.2730  0.6512  0.1586
   44CHL1    H3 5664   0.952   1.155   9.961 -0.2172 -2.3677 -0.1005
   44CHL1    O3 5665   0.927   1.179  10.159  0.1824 -0.0211  0.5340
   44CHL1   H3' 5666   0.876   1.120  10.215  1.3393 -0.8115  0.7992
   44CHL1    C4 5667   0.785   1.288   9.998 -0.2680  0.0884 -0.6361
   44CHL1   H4A 5668   0.703   1.289  10.073 -0.0345 -2.6069 -0.2446
   44CHL1   H4B 5669   0.849   1.376  10.024  0.3248 -0.4050 -0.4041
   44CHL1    C5 5670   0.742   1.279   9.861  0.2495 -1.6063  0.0968
   44CHL1    C6 5671   0.788   1.374   9.779  0.2385 -0.5620 -0.0258
   44CHL1    H6 5672   0.845   1.462   9.811 -0.5443  1.0241 -2.6752
   44CHL1    C7 5673   0.744   1.364   9.633 -0.5913 -0.7547 -0.2545
   44CHL1   H7A 5674   0.713   1.465   9.598  0.2977 -1.3738 -3.0127
   44CHL1   H7B 5675   0.837   1.341   9.578  0.0797  1.6243 -0.2336
   44CHL1    C8 5676   0.634   1.264   9.604 -0.0396  0.0783 -0.1616
   44CHL1    H8 5677   0.539   1.298   9.652  0.0845 -0.4408  0.4752
   44CHL1   C14 5678   0.620   1.256   9.457  0.0296 -0.2403  0.1145
   44CHL1   H14 5679   0.718   1.216   9.424  0.9444  2.2426 -0.3839
   44CHL1   C15 5680   0.607   1.386   9.372  0.1609  0.5850  0.2566
   44CHL1  H15A 5681   0.541   1.461   9.422 -0.1051 -0.5795  1.7506
   44CHL1  H15B 5682   0.712   1.420   9.358  0.8581 -1.9525 -1.2417
   44CHL1   C16 5683   0.560   1.324   9.235 -1.2539 -0.9616 -0.5856
   44CHL1  H16A 5684   0.469   1.376   9.199  1.1526  2.3511 -2.5176
   44CHL1  H16B 5685   0.636   1.348   9.157  1.0244  0.7383  1.9596
   44CHL1   C17 5686   0.544   1.176   9.255 -0.2622  0.0233 -0.2784
   44CHL1   H17 5687   0.647   1.135   9.241 -0.8289 -1.6512  0.2750
   44CHL1   C13 5688   0.521   1.156   9.403  0.1283 -0.2413 -0.7145
   44CHL1   C18 5689   0.380   1.206   9.441 -0.2327 -0.3236 -0.3569
   44CHL1  H18A 5690   0.371   1.218   9.551  0.6735  0.4586 -0.3588
   44CHL1  H18B 5691   0.356   1.311   9.411 -1.6651 -0.9657 -1.6487
   44CHL1  H18C 5692   0.303   1.135   9.403  0.9159 -0.6168 -2.2848
   44CHL1   C12 5693   0.558   1.017   9.464  0.3514 -0.2683 -0.7547
   44CHL1  H12A 5694   0.496   0.931   9.434 -1.9204  1.3667 -1.0203
   44CHL1  H12B 5695   0.660   0.990   9.428 -0.1722 -2.1760 -0.9057
   44CHL1   C11 5696   0.556   1.026   9.616  0.0377 -0.3060 -0.1589
   44CHL1  H11A 5697   0.456   1.059   9.651  0.3442 -0.3757  0.8198
   44CHL1  H11B 5698   0.589   0.925   9.649  0.5878  0.0542  0.4046
   44CHL1    C9 5699   0.665   1.129   9.665  0.2354  0.8294 -0.0083
   44CHL1    H9 5700   0.758   1.094   9.615 -0.5686 -1.8914  0.2261
   44CHL1   C10 5701   0.669   1.145   9.818 -0.2440 -0.8473  0.6828
   44CHL1   C19 5702   0.520   1.147   9.870  0.3620 -0.2353 -0.0941
   44CHL1  H19A 5703   0.512   1.183   9.975  1.4375  0.9121 -0.3858
   44CHL1  H19B 5704   0.455   1.210   9.806 -0.3820 -0.2541  0.6172
   44CHL1  H19C 5705   0.473   1.047   9.858 -1.6206  0.7842 -1.1332
   44CHL1    C1 5706   0.737   1.026   9.884  0.7036  0.0480 -0.3815
   44CHL1   H1A 5707   0.679   0.931   9.877  2.2260 -1.2192  2.6451
   44CHL1   H1B 5708   0.819   1.003   9.812 -0.2440  0.8697 -1.7799
   44CHL1    C2 5709   0.780   1.041  10.027 -0.0460  0.8134 -0.1009
   44CHL1   H2A 5710   0.819   0.949  10.076  1.3033  0.1066 -2.3706
   44CHL1   H2B 5711   0.691   1.067  10.089 -0.4164 -1.9113  0.6795
   44CHL1   C20 5712   0.453   1.091   9.163 -0.1384 -0.0492 -0.5135
   44CHL1   H20 5713   0.351   1.066   9.200  0.8907 -0.9069  1.9660
   44CHL1   C21 5714   0.519   0.956   9.136 -0.1878  0.3065  0.2792
   44CHL1  H21A 5715   0.597   0.956   9.057  0.9251 -1.6021  1.2791
   44CHL1  H21B 5716   0.443   0.881   9.107  0.7551 -0.0626 -1.3482
   44CHL1  H21C 5717   0.570   0.907   9.222 -0.1303 -1.4171 -0.6873
   44CHL1   C22 5718   0.431   1.160   9.023  0.2306  0.4480  0.3005
   44CHL1  H22A 5719   0.379   1.253   9.055 -0.7029  0.0977 -0.1420
   44CHL1  H22B 5720   0.532   1.179   8.981  1.1184 -3.7314  0.1460
   44CHL1   C23 5721   0.339   1.094   8.920  0.3775  0.1494 -0.2787
   44CHL1  H23A 5722   0.374   0.990   8.901 -0.2946  0.3084 -2.6956
   44CHL1  H23B 5723   0.234   1.093   8.958 -1.1208 -0.9307 -3.9441
   44CHL1   C24 5724   0.347   1.166   8.786  0.7562  0.4735 -0.9549
   44CHL1  H24A 5725   0.284   1.258   8.792  0.5688  0.2595  1.0668
   44CHL1  H24B 5726   0.447   1.198   8.751  1.0443  2.1275  1.1559
   44CHL1   C25 5727   0.285   1.070   8.678  0.1321 -0.3228  0.3545
   44CHL1   H25 5728   0.350   0.981   8.682 -0.8339 -1.1471 -1.2000
   44CHL1   C26 5729   0.147   1.020   8.715  0.0430  0.1318  0.0617
   44CHL1  H26A 5730   0.143   0.976   8.817  1.3419 -0.6493 -0.1992
   44CHL1  H26B 5731   0.076   1.105   8.719  0.5310  0.5583 -0.2050
   44CHL1  H26C 5732   0.102   0.967   8.628  1.2401  0.2337 -0.6400
   44CHL1   C27 5733   0.293   1.125   8.534 -0.2585 -0.1663  0.4972
   44CHL1  H27A 5734   0.285   1.044   8.458  3.3326 -1.2452  1.0644
   44CHL1  H27B 5735   0.223   1.211   8.528 -1.9687 -1.4719  1.0525
   44CHL1  H27C 5736   0.398   1.160   8.527 -1.1133  2.5540  0.2090
   45CHL1    C3 5737   3.879   1.220  10.201 -0.2269 -0.0542 -0.9324
   45CHL1    H3 5738   3.984   1.217  10.236 -0.8945 -1.1899  1.1575
   45CHL1    O3 5739   3.807   1.267  10.310  0.9865 -0.0262 -0.0682
   45CHL1   H3' 5740   3.715   1.243  10.297  0.6012  0.2517  1.7593
   45CHL1    C4 5741   3.869   1.330  10.089  0.1481  0.2473  1.2408
   45CHL1   H4A 5742   3.760   1.338  10.067 -0.1080 -1.1372  1.8661
   45CHL1   H4B 5743   3.904   1.430  10.122  3.0182 -0.6505  1.1663
   45CHL1    C5 5744   3.951   1.287   9.969 -0.5858  0.4037 -0.0464
   45CHL1    C6 5745   4.073   1.341   9.934 -0.4099  0.3179  0.6906
   45CHL1    H6 5746   4.111   1.425   9.994 -0.0311  0.3017  0.4774
   45CHL1    C7 5747   4.164   1.290   9.827  0.1099 -0.4854 -0.3567
   45CHL1   H7A 5748   4.208   1.376   9.772 -2.5976 -0.1986 -2.2861
   45CHL1   H7B 5749   4.244   1.225   9.868  1.1379  0.5586 -0.6607
   45CHL1    C8 5750   4.084   1.207   9.721 -0.2659  0.3948  0.2351
   45CHL1    H8 5751   4.166   1.155   9.666  2.9517  4.2793  0.9011
   45CHL1   C14 5752   4.013   1.280   9.600 -0.9581  0.1394 -0.1285
   45CHL1   H14 5753   3.930   1.339   9.644 -1.2006 -0.0144 -0.3771
   45CHL1   C15 5754   4.103   1.368   9.512 -0.8162 -0.0900 -0.4453
   45CHL1  H15A 5755   4.022   1.430   9.467 -0.3465  2.7003  2.2552
   45CHL1  H15B 5756   4.176   1.435   9.562 -1.5242 -0.4703  1.1668
   45CHL1   C16 5757   4.158   1.268   9.409 -0.2002  0.0418 -0.2228
   45CHL1  H16A 5758   4.172   1.319   9.311  0.8921  0.5074  0.1590
   45CHL1  H16B 5759   4.261   1.237   9.433  0.7456  1.4467 -2.1772
   45CHL1   C17 5760   4.057   1.141   9.405  0.7074  0.0504 -0.2240
   45CHL1   H17 5761   4.123   1.063   9.448 -0.2719 -0.3852  0.5126
   45CHL1   C13 5762   3.947   1.173   9.507  0.4643  0.4029  0.5447
   45CHL1   C18 5763   3.828   1.248   9.430 -0.8102 -0.1032 -0.1374
   45CHL1  H18A 5764   3.771   1.179   9.365 -0.2839 -0.0356 -0.6858
   45CHL1  H18B 5765   3.762   1.291   9.508  0.1230 -0.4278  0.8644
   45CHL1  H18C 5766   3.874   1.330   9.370  0.2346  0.2112  1.0443
   45CHL1   C12 5767   3.878   1.047   9.578  0.5943  0.3847  0.1841
   45CHL1  H12A 5768   3.773   1.058   9.613  0.8084 -0.2922  1.0753
   45CHL1  H12B 5769   3.854   0.975   9.497  0.1102 -0.1828  0.8282
   45CHL1   C11 5770   3.956   0.995   9.696  0.2458 -0.1146  0.2434
   45CHL1  H11A 5771   3.899   0.909   9.738 -0.9867 -0.5836 -2.1623
   45CHL1  H11B 5772   4.047   0.944   9.658  0.6041 -0.9562  2.1532
   45CHL1    C9 5773   4.003   1.107   9.798 -0.7181  0.4891  0.8961
   45CHL1    H9 5774   4.081   1.051   9.855 -0.1032 -0.8927 -1.2132
   45CHL1   C10 5775   3.905   1.156   9.904 -0.0290 -0.1945 -0.5584
   45CHL1   C19 5776   3.763   1.176   9.838 -0.3027  0.3028  0.2829
   45CHL1  H19A 5777   3.776   1.239   9.748  0.6687  0.0631  0.2414
   45CHL1  H19B 5778   3.722   1.075   9.816 -1.9296  1.0486 -0.2549
   45CHL1  H19C 5779   3.688   1.225   9.903 -0.8929 -1.8469  1.3178
   45CHL1    C1 5780   3.895   1.051  10.016 -0.2625 -0.1445  0.2001
   45CHL1   H1A 5781   3.859   0.953   9.977  0.0125  0.6792 -2.3018
   45CHL1   H1B 5782   3.999   1.041  10.054 -0.1114  5.1057  1.9732
   45CHL1    C2 5783   3.824   1.090  10.145  0.3507 -0.0205 -0.0126
   45CHL1   H2A 5784   3.828   1.002  10.213  1.1134  0.0349  0.0278
   45CHL1   H2B 5785   3.715   1.099  10.125  0.3894  3.1296  0.7245
   45CHL1   C20 5786   4.009   1.089   9.262 -0.1250  0.9076  1.0280
   45CHL1   H20 5787   3.904   1.053   9.264  1.1151 -3.1432  1.1232
   45CHL1   C21 5788   4.094   0.963   9.241 -0.0227 -0.1357  0.4334
   45CHL1  H21A 5789   4.051   0.907   9.154 -1.2894  0.3461  0.7234
   45CHL1  H21B 5790   4.077   0.893   9.325  1.5013  1.2526  1.9700
   45CHL1  H21C 5791   4.202   0.982   9.224  0.1846 -0.3203  1.4994
   45CHL1   C22 5792   4.014   1.190   9.143 -0.1854  0.2372 -0.3812
   45CHL1  H22A 5793   3.985   1.296   9.159 -0.4570  0.6770 -3.1270
   45CHL1  H22B 5794   4.123   1.189   9.119  0.1653 -1.0968  1.1014
   45CHL1   C23 5795   3.940   1.136   9.021 -0.2705 -0.0095  0.9716
   45CHL1  H23A 5796   3.991   1.045   8.983  0.5380  0.7847  0.0969
   45CHL1  H23B 5797   3.835   1.116   9.053 -0.9820 -0.2089 -1.2813
   45CHL1   C24 5798   3.935   1.239   8.907 -1.0132  0.1934  0.0407
   45CHL1  H24A 5799   3.866   1.323   8.927 -1.4623 -0.3757  0.9467
   45CHL1  H24B 5800   4.039   1.276   8.894 -1.6337  1.4602 -1.6276
   45CHL1   C25 5801   3.880   1.192   8.771  0.2932  0.8301  0.7481
   45CHL1   H25 5802   3.949   1.108   8.747  0.2116  0.5743  1.3874
   45CHL1   C26 5803   3.737   1.133   8.781  0.0375 -0.0705  1.2270
   45CHL1  H26A 5804   3.708   1.093   8.682 -0.3367  2.9505  0.0136
   45CHL1  H26B 5805   3.736   1.047   8.852 -1.6212 -3.0711 -2.1192
   45CHL1  H26C 5806   3.660   1.213   8.792  1.4237  1.4650  0.2141
   45CHL1   C27 5807   3.903   1.286   8.653 -0.7116  0.0978  0.3728
   45CHL1  H27A 5808   4.010   1.299   8.624 -0.4125 -1.1546  0.8565
   45CHL1  H27B 5809   3.855   1.240   8.564  1.5319 -0.4126 -0.6458
   45CHL1  H27C 5810   3.847   1.378   8.677 -1.4742 -0.2705  0.0277
   46CHL1    C3 5811   1.207   4.100  10.007  0.3640  0.2039 -0.6522
   46CHL1    H3 5812   1.267   4.191  10.029 -1.5189  1.0072  1.6596
   46CHL1    O3 5813   1.118   4.091  10.119  0.1270  0.1071 -0.3447
   46CHL1   H3' 5814   1.142   4.004  10.153 -1.5269 -0.2916 -0.1119
   46CHL1    C4 5815   1.122   4.134   9.878 -0.3692 -0.3464 -0.8055
   46CHL1   H4A 5816   1.034   4.066   9.880  0.4857 -1.7977 -4.4915
   46CHL1   H4B 5817   1.081   4.236   9.897  2.3667  0.5949  0.5991
   46CHL1    C5 5818   1.200   4.113   9.753  0.1500  0.5932 -0.6997
   46CHL1    C6 5819   1.205   4.208   9.664 -0.4038 -0.1849  0.7596
   46CHL1    H6 5820   1.149   4.300   9.684  1.4340  0.5209  3.2218
   46CHL1    C7 5821   1.271   4.197   9.531  0.6253 -0.5206 -0.4748
   46CHL1   H7A 5822   1.201   4.242   9.458  0.5842 -0.7726 -0.5915
   46CHL1   H7B 5823   1.364   4.258   9.531  0.6643 -0.5040  1.6574
   46CHL1    C8 5824   1.307   4.051   9.492 -0.6958  0.4124  0.3822
   46CHL1    H8 5825   1.214   3.993   9.476 -0.0438 -1.6662  3.2884
   46CHL1   C14 5826   1.391   4.060   9.362  0.1113  0.2360  0.4380
   46CHL1   H14 5827   1.475   4.130   9.382  0.8539 -0.1825 -1.0687
   46CHL1   C15 5828   1.321   4.117   9.235  0.4039 -0.4510 -0.0524
   46CHL1  H15A 5829   1.223   4.064   9.227 -0.5600  0.7344  2.7609
   46CHL1  H15B 5830   1.307   4.227   9.232  0.1169 -0.5035 -0.8309
   46CHL1   C16 5831   1.405   4.050   9.116  0.1345  0.1952  0.5654
   46CHL1  H16A 5832   1.330   3.999   9.052  0.4329  0.3571  0.0789
   46CHL1  H16B 5833   1.451   4.135   9.061 -0.0561  0.6418  1.0975
   46CHL1   C17 5834   1.507   3.950   9.181 -0.6560 -0.1224  0.3252
   46CHL1   H17 5835   1.599   4.011   9.195  0.8231 -1.2971 -2.9876
   46CHL1   C13 5836   1.446   3.917   9.319 -0.6956 -0.6789  0.0788
   46CHL1   C18 5837   1.337   3.815   9.293 -0.0587 -0.1486  0.3388
   46CHL1  H18A 5838   1.269   3.852   9.213 -0.9221 -0.1256  1.0761
   46CHL1  H18B 5839   1.385   3.724   9.251  0.9760  1.1036 -1.3295
   46CHL1  H18C 5840   1.271   3.790   9.378 -1.2541  1.5696 -0.0316
   46CHL1   C12 5841   1.527   3.870   9.437 -0.2408  0.1303 -0.0896
   46CHL1  H12A 5842   1.590   3.781   9.413  0.6984  0.8852 -0.4795
   46CHL1  H12B 5843   1.601   3.951   9.455 -1.5936  1.3947 -0.0049
   46CHL1   C11 5844   1.455   3.862   9.576 -0.3365 -0.5608 -0.5552
   46CHL1  H11A 5845   1.385   3.776   9.574 -0.8669 -0.2052  1.2959
   46CHL1  H11B 5846   1.531   3.852   9.656 -0.7115 -0.2771 -0.1558
   46CHL1    C9 5847   1.384   3.992   9.606 -0.4458  0.0088 -0.6486
   46CHL1    H9 5848   1.463   4.063   9.639  0.1045 -1.5943  1.8116
   46CHL1   C10 5849   1.288   3.984   9.732  0.9069  0.2280 -0.6634
   46CHL1   C19 5850   1.194   3.866   9.710 -0.8315  0.3171  0.8875
   46CHL1  H19A 5851   1.246   3.767   9.718  0.8897  0.7978 -2.5330
   46CHL1  H19B 5852   1.107   3.867   9.778 -2.9023 -3.2210 -1.4079
   46CHL1  H19C 5853   1.150   3.854   9.609  0.7003 -2.2054  0.4051
   46CHL1    C1 5854   1.372   3.963   9.862  0.3735 -0.4617  0.0666
   46CHL1   H1A 5855   1.418   3.862   9.861  0.0202 -0.6317  0.5368
   46CHL1   H1B 5856   1.451   4.040   9.867 -1.8251  1.9633 -0.4246
   46CHL1    C2 5857   1.291   3.974   9.997 -0.0445  0.4964 -0.1024
   46CHL1   H2A 5858   1.355   3.959  10.086 -1.3042 -0.3459  0.6922
   46CHL1   H2B 5859   1.228   3.883   9.991  0.8943 -0.1601 -0.2359
   46CHL1   C20 5860   1.550   3.839   9.088  0.1672 -0.6084  0.0435
   46CHL1   H20 5861   1.460   3.781   9.057  1.2770 -1.1824 -2.3656
   46CHL1   C21 5862   1.642   3.733   9.162 -0.3686 -0.6061  0.5647
   46CHL1  H21A 5863   1.672   3.658   9.086  0.7704 -1.4000  1.7454
   46CHL1  H21B 5864   1.587   3.685   9.246 -1.6047 -0.7907 -0.3096
   46CHL1  H21C 5865   1.731   3.787   9.199  0.8951 -1.0513 -1.6414
   46CHL1   C22 5866   1.612   3.884   8.951  0.0799 -0.0688  0.0263
   46CHL1  H22A 5867   1.540   3.947   8.894 -0.6101 -2.3672 -1.7590
   46CHL1  H22B 5868   1.706   3.941   8.969  1.1094 -1.7696  0.1766
   46CHL1   C23 5869   1.648   3.770   8.860  0.2509 -0.4855 -0.0403
   46CHL1  H23A 5870   1.755   3.745   8.874  0.3383 -0.8254 -1.2145
   46CHL1  H23B 5871   1.598   3.675   8.888 -0.3319  0.2007  1.3134
   46CHL1   C24 5872   1.620   3.796   8.710  0.4780 -0.5766  0.3551
   46CHL1  H24A 5873   1.646   3.703   8.654  2.1883  0.2619 -0.2956
   46CHL1  H24B 5874   1.513   3.819   8.693  0.0376 -3.1317 -0.7635
   46CHL1   C25 5875   1.705   3.908   8.647  0.4407  0.1774  0.1071
   46CHL1   H25 5876   1.685   4.005   8.698 -0.6919 -0.8377  1.7158
   46CHL1   C26 5877   1.857   3.865   8.648 -0.2739 -0.2175 -1.0910
   46CHL1  H26A 5878   1.879   3.762   8.681  1.1602 -0.2578 -2.0578
   46CHL1  H26B 5879   1.908   3.885   8.551 -0.4707  1.3026 -0.9138
   46CHL1  H26C 5880   1.906   3.925   8.728 -2.3461  1.1021 -0.7318
   46CHL1   C27 5881   1.659   3.931   8.501  0.2844 -0.5108  0.2740
   46CHL1  H27A 5882   1.741   3.995   8.463 -0.2151 -0.5856 -0.9831
   46CHL1  H27B 5883   1.658   3.836   8.443 -2.6404  0.2224 -1.0355
   46CHL1  H27C 5884   1.559   3.976   8.483 -0.1440 -1.4845  0.1186
   47CHL1    C3 5885   1.603   1.595   9.803 -0.2782  1.0647 -0.1343
   47CHL1    H3 5886   1.515   1.533   9.830 -0.0302  0.5275 -0.5250
   47CHL1    O3 5887   1.657   1.653   9.920  0.1548 -0.0419  0.3539
   47CHL1   H3' 5888   1.639   1.747   9.911  2.2036  0.2456 -1.9228
   47CHL1    C4 5889   1.709   1.498   9.754 -0.6173  0.5415  1.3178
   47CHL1   H4A 5890   1.804   1.550   9.730  0.7689 -1.1462  2.8677
   47CHL1   H4B 5891   1.737   1.420   9.828 -0.9071  0.2097  1.0852
   47CHL1    C5 5892   1.668   1.433   9.618 -0.7878  0.0348 -0.5008
   47CHL1    C6 5893   1.669   1.299   9.611  0.5607 -0.4186 -0.1408
   47CHL1    H6 5894   1.692   1.235   9.697 -0.2167 -0.3544  0.1261
   47CHL1    C7 5895   1.613   1.227   9.490  0.1325  0.7741 -0.6150
   47CHL1   H7A 5896   1.685   1.143   9.473 -0.3804 -0.0876  1.2289
   47CHL1   H7B 5897   1.519   1.176   9.519  0.5733  0.2241 -0.1228
   47CHL1    C8 5898   1.598   1.313   9.372  0.4683  0.1885 -0.1224
   47CHL1    H8 5899   1.700   1.326   9.330  0.5084 -0.4999 -0.2505
   47CHL1   C14 5900   1.519   1.250   9.262  0.5844  0.5395  0.3842
   47CHL1   H14 5901   1.416   1.240   9.303  1.0887  0.1751  1.6029
   47CHL1   C15 5902   1.548   1.112   9.214 -0.1566  0.5298 -0.5877
   47CHL1  H15A 5903   1.654   1.088   9.192 -0.0538  0.5369 -0.1197
   47CHL1  H15B 5904   1.521   1.037   9.291 -0.1600  0.5932 -0.5272
   47CHL1   C16 5905   1.466   1.092   9.088 -0.1490  0.1392 -0.1809
   47CHL1  H16A 5906   1.530   1.063   9.002  0.9320  3.2320 -0.5342
   47CHL1  H16B 5907   1.384   1.017   9.097  2.4208 -2.7803  0.4201
   47CHL1   C17 5908   1.419   1.238   9.047 -0.0638  0.2305  0.3234
   47CHL1   H17 5909   1.316   1.250   9.085 -0.3102  0.7849 -0.4869
   47CHL1   C13 5910   1.496   1.339   9.133  0.1924  0.2428 -0.0035
   47CHL1   C18 5911   1.629   1.376   9.059  1.1486 -0.3964 -0.3382
   47CHL1  H18A 5912   1.622   1.456   8.982 -4.5845  0.0070  0.1739
   47CHL1  H18B 5913   1.705   1.417   9.130  1.9187 -2.9101  0.3927
   47CHL1  H18C 5914   1.684   1.287   9.022  3.1158  0.5124  0.2688
   47CHL1   C12 5915   1.424   1.465   9.165  0.5631  0.0780 -0.5012
   47CHL1  H12A 5916   1.399   1.526   9.076 -1.5319 -1.8328 -1.3232
   47CHL1  H12B 5917   1.326   1.428   9.203  0.8969  1.6482  2.1471
   47CHL1   C11 5918   1.499   1.538   9.280  0.0349  0.1549 -0.6339
   47CHL1  H11A 5919   1.598   1.566   9.238  0.6198 -0.9370 -0.0239
   47CHL1  H11B 5920   1.435   1.628   9.290 -0.4997 -0.3567  0.8320
   47CHL1    C9 5921   1.536   1.458   9.410  0.5785 -0.1867  0.6813
   47CHL1    H9 5922   1.443   1.429   9.463 -0.1584 -0.4906 -0.7226
   47CHL1   C10 5923   1.621   1.533   9.515  0.4068  0.3438  0.3529
   47CHL1   C19 5924   1.737   1.609   9.453  0.4710  0.5121  0.3589
   47CHL1  H19A 5925   1.702   1.681   9.376 -1.2717 -0.7743 -0.0988
   47CHL1  H19B 5926   1.802   1.658   9.529  0.5928  1.6522 -0.4484
   47CHL1  H19C 5927   1.808   1.535   9.412  1.5338  2.2221 -1.0397
   47CHL1    C1 5928   1.518   1.630   9.573  0.5090 -0.0841  0.1377
   47CHL1   H1A 5929   1.487   1.696   9.490  2.0935 -0.6253 -0.9254
   47CHL1   H1B 5930   1.428   1.574   9.609  0.3532 -0.2752 -0.5324
   47CHL1    C2 5931   1.569   1.702   9.701  0.1014 -0.0608 -0.6494
   47CHL1   H2A 5932   1.495   1.777   9.738  2.7213  1.7723  1.1938
   47CHL1   H2B 5933   1.661   1.762   9.688  0.9176 -0.1240  3.5043
   47CHL1   C20 5934   1.416   1.249   8.888 -0.0377 -0.7317 -0.3540
   47CHL1   H20 5935   1.520   1.245   8.850  0.3148  3.4893 -0.2611
   47CHL1   C21 5936   1.348   1.379   8.848  0.2496  0.3610 -0.2911
   47CHL1  H21A 5937   1.428   1.456   8.854  0.9420 -0.3238 -0.5705
   47CHL1  H21B 5938   1.254   1.396   8.905 -0.9342 -3.8281 -0.6313
   47CHL1  H21C 5939   1.314   1.376   8.742  0.9403 -1.2184 -0.4946
   47CHL1   C22 5940   1.348   1.128   8.821 -0.3493 -0.8242 -0.5552
   47CHL1  H22A 5941   1.401   1.033   8.845  0.9639 -0.3891 -1.5734
   47CHL1  H22B 5942   1.243   1.123   8.856 -0.0472 -0.0750  0.5148
   47CHL1   C23 5943   1.341   1.128   8.673 -0.1487 -0.6432 -0.5244
   47CHL1  H23A 5944   1.281   1.041   8.636 -1.6303 -0.0700  0.4578
   47CHL1  H23B 5945   1.290   1.216   8.628 -0.3393 -0.4840  0.0001
   47CHL1   C24 5946   1.483   1.104   8.607 -0.8813  0.3017  0.1354
   47CHL1  H24A 5947   1.562   1.163   8.658 -0.9256 -1.3912  2.3123
   47CHL1  H24B 5948   1.512   0.999   8.631 -0.2865  0.1630 -1.1134
   47CHL1   C25 5949   1.490   1.111   8.454 -0.2125 -0.8148 -0.5378
   47CHL1   H25 5950   1.464   1.214   8.420  1.3892  0.0745  0.7764
   47CHL1   C26 5951   1.632   1.079   8.411 -0.6353  0.1393  0.4043
   47CHL1  H26A 5952   1.668   0.986   8.459 -0.9347 -0.9269 -1.3534
   47CHL1  H26B 5953   1.687   1.165   8.454  0.6476  0.8136 -2.3272
   47CHL1  H26C 5954   1.643   1.078   8.300  0.2463 -0.3968  0.4875
   47CHL1   C27 5955   1.390   1.023   8.389 -0.4085  0.0887  0.5347
   47CHL1  H27A 5956   1.289   1.048   8.426 -0.9798 -1.1470 -0.1421
   47CHL1  H27B 5957   1.389   1.033   8.279 -2.0729 -2.2113  0.2843
   47CHL1  H27C 5958   1.390   0.913   8.408 -2.5334  0.0982  0.7925
   48CHL1    C3 5959   0.983   2.589  10.077 -0.0961  0.6659  0.0531
   48CHL1    H3 5960   0.990   2.697  10.104 -1.0133  0.7764 -0.1026
   48CHL1    O3 5961   0.973   2.511  10.190  0.1848 -0.2878 -0.0841
   48CHL1   H3' 5962   0.961   2.421  10.160 -1.6317 -0.3488  0.7077
   48CHL1    C4 5963   0.863   2.563   9.985  0.6966  0.0175  0.5953
   48CHL1   H4A 5964   0.850   2.452   9.988  0.7287  0.0316  1.3675
   48CHL1   H4B 5965   0.772   2.599  10.038  1.2222 -0.1256  1.6188
   48CHL1    C5 5966   0.861   2.610   9.842 -0.2445 -0.1414  0.4397
   48CHL1    C6 5967   0.762   2.690   9.797  0.8730 -0.3308  0.6093
   48CHL1    H6 5968   0.683   2.712   9.870  0.3557 -1.6516  0.4643
   48CHL1    C7 5969   0.753   2.754   9.664  0.1335  0.6614 -0.0475
   48CHL1   H7A 5970   0.653   2.732   9.622 -0.5372  2.3584  0.6032
   48CHL1   H7B 5971   0.772   2.863   9.668 -0.6596  0.8102  4.4086
   48CHL1    C8 5972   0.859   2.686   9.567  0.0001  0.2037 -0.8522
   48CHL1    H8 5973   0.827   2.581   9.550  0.0479 -0.2295  1.5089
   48CHL1   C14 5974   0.879   2.762   9.433 -0.3876  0.0540 -1.1881
   48CHL1   H14 5975   0.915   2.864   9.456  0.1767 -0.1533 -1.1442
   48CHL1   C15 5976   0.754   2.796   9.350 -0.7702  0.4012 -0.2553
   48CHL1  H15A 5977   0.678   2.716   9.335 -1.6601  0.7696  2.0238
   48CHL1  H15B 5978   0.703   2.878   9.405  0.8292  1.4905 -0.3401
   48CHL1   C16 5979   0.810   2.832   9.212 -0.9137 -0.0372 -0.5637
   48CHL1  H16A 5980   0.770   2.768   9.130 -0.6369 -2.2355  0.9434
   48CHL1  H16B 5981   0.801   2.942   9.198  0.0534  0.2884  1.1672
   48CHL1   C17 5982   0.962   2.795   9.218 -0.1060  0.4790  0.5225
   48CHL1   H17 5983   1.006   2.894   9.241  0.1172  1.0648 -2.1500
   48CHL1   C13 5984   0.970   2.694   9.336 -0.9067  0.3836 -0.5811
   48CHL1   C18 5985   0.921   2.551   9.286  0.2861  0.1943  0.1475
   48CHL1  H18A 5986   0.915   2.469   9.361 -2.2830 -1.3977 -1.6290
   48CHL1  H18B 5987   0.824   2.552   9.230  0.5239  0.0946 -0.2721
   48CHL1  H18C 5988   0.995   2.512   9.213  1.6579  2.4974  0.2209
   48CHL1   C12 5989   1.113   2.689   9.411 -0.6332  0.1472  0.2602
   48CHL1  H12A 5990   1.195   2.654   9.346 -1.3538  0.9338 -1.1112
   48CHL1  H12B 5991   1.135   2.796   9.434 -5.0348  1.9678 -2.5754
   48CHL1   C11 5992   1.114   2.617   9.542 -0.7240  0.6363 -0.0070
   48CHL1  H11A 5993   1.101   2.508   9.528 -0.8079  0.3687  1.8340
   48CHL1  H11B 5994   1.214   2.624   9.589  0.8509  0.1908 -3.0708
   48CHL1    C9 5995   1.002   2.665   9.634  0.4164  0.2800 -0.4014
   48CHL1    H9 5996   1.037   2.765   9.668 -1.1173  0.3757  0.9995
   48CHL1   C10 5997   0.995   2.576   9.769  0.7566  0.0916 -0.2695
   48CHL1   C19 5998   0.984   2.426   9.743  0.3480  0.2114  0.0064
   48CHL1  H19A 5999   0.909   2.414   9.662 -2.2437 -1.3823  2.4565
   48CHL1  H19B 6000   1.082   2.396   9.701 -0.3896  0.1974 -1.7724
   48CHL1  H19C 6001   0.962   2.366   9.834  0.8364 -1.0975 -0.7157
   48CHL1    C1 6002   1.125   2.603   9.858 -0.3908 -0.3204  0.4135
   48CHL1   H1A 6003   1.215   2.568   9.802 -1.0447 -0.9962 -0.2460
   48CHL1   H1B 6004   1.142   2.712   9.846 -2.1443 -0.0029  0.6119
   48CHL1    C2 6005   1.111   2.548  10.000  0.9078 -0.7439 -0.7125
   48CHL1   H2A 6006   1.204   2.571  10.056  0.5274 -1.1038  0.0733
   48CHL1   H2B 6007   1.113   2.438   9.987 -0.3921 -0.6318 -2.1304
   48CHL1   C20 6008   1.017   2.759   9.075  0.5530 -0.1995  0.3616
   48CHL1   H20 6009   0.983   2.661   9.034 -1.8297  1.0175 -0.8124
   48CHL1   C21 6010   1.173   2.749   9.085 -0.2393  0.2417 -0.0869
   48CHL1  H21A 6011   1.205   2.828   9.157 -0.6986  0.8648 -0.5545
   48CHL1  H21B 6012   1.233   2.745   8.992 -0.3157 -0.4783 -0.1143
   48CHL1  H21C 6013   1.199   2.656   9.141 -0.2556  0.3105  0.0352
   48CHL1   C22 6014   0.977   2.856   8.966 -0.6721  0.2779  0.1834
   48CHL1  H22A 6015   0.869   2.840   8.946 -0.7490 -0.1039  0.8581
   48CHL1  H22B 6016   0.992   2.961   8.997  0.8991  0.3165 -0.5789
   48CHL1   C23 6017   1.044   2.824   8.829 -0.5261 -0.7571 -0.3184
   48CHL1  H23A 6018   1.151   2.852   8.838 -0.5783 -0.8060  0.4975
   48CHL1  H23B 6019   1.042   2.714   8.814  0.2758 -0.8179 -0.0554
   48CHL1   C24 6020   0.981   2.899   8.712 -0.2188 -0.2862 -0.2996
   48CHL1  H24A 6021   0.873   2.874   8.699 -0.5647 -2.6105  4.7697
   48CHL1  H24B 6022   0.992   3.007   8.736  1.6705 -0.7875  1.3416
   48CHL1   C25 6023   1.061   2.879   8.583  0.0720  0.1211  0.7821
   48CHL1   H25 6024   1.168   2.899   8.609  0.2688 -0.9453  0.8356
   48CHL1   C26 6025   1.062   2.735   8.532 -0.0199  0.2470 -0.4274
   48CHL1  H26A 6026   0.961   2.695   8.510 -1.0975  1.5452  1.8278
   48CHL1  H26B 6027   1.130   2.727   8.444  0.0956 -1.1379 -0.2324
   48CHL1  H26C 6028   1.108   2.668   8.608  0.4332  0.1750 -0.7574
   48CHL1   C27 6029   1.016   2.977   8.477 -0.5090 -0.0072  0.5410
   48CHL1  H27A 6030   1.037   3.084   8.499 -0.4694  0.0059  0.4415
   48CHL1  H27B 6031   1.064   2.958   8.378  0.7341  2.8451  0.5071
   48CHL1  H27C 6032   0.906   2.967   8.462 -0.9755  2.5946  1.5993
   49CHL1    C3 6033   6.105   4.295  10.070  0.0260 -0.0945 -0.0735
   49CHL1    H3 6034   6.200   4.352  10.070  0.5620 -0.9521  0.5104
   49CHL1    O3 6035   6.047   4.305  10.194  0.1495  0.3066 -0.1155
   49CHL1   H3' 6036   6.035   4.399  10.208  1.3843  0.8148 -2.1560
   49CHL1    C4 6037   6.006   4.368   9.978 -0.1602  0.2656 -0.1540
   49CHL1   H4A 6038   5.904   4.324   9.990  0.6116 -0.8905  3.8866
   49CHL1   H4B 6039   5.988   4.468  10.023 -2.0298  0.3230 -0.9281
   49CHL1    C5 6040   6.037   4.363   9.832 -0.2921 -0.0375  0.4124
   49CHL1    C6 6041   6.061   4.474   9.757 -0.4154  0.2235  0.6629
   49CHL1    H6 6042   6.056   4.572   9.807  0.7590  1.0483 -0.7473
   49CHL1    C7 6043   6.090   4.468   9.602  0.6054  0.2321 -0.3442
   49CHL1   H7A 6044   6.019   4.541   9.557  1.8699  1.0686 -1.0087
   49CHL1   H7B 6045   6.193   4.503   9.584  1.0318 -0.5814  0.4495
   49CHL1    C8 6046   6.065   4.325   9.545 -0.5484  0.0932 -0.2001
   49CHL1    H8 6047   5.955   4.316   9.533 -0.4888 -0.5137 -0.3194
   49CHL1   C14 6048   6.120   4.309   9.409  0.8845  0.0967  1.0669
   49CHL1   H14 6049   6.229   4.324   9.428  0.9567 -0.5915  1.2452
   49CHL1   C15 6050   6.073   4.411   9.309 -0.1166  0.2935  1.4501
   49CHL1  H15A 6051   5.963   4.428   9.311 -0.8543 -2.3496 -3.1308
   49CHL1  H15B 6052   6.124   4.506   9.334 -2.0044  1.4292  1.1494
   49CHL1   C16 6053   6.104   4.352   9.169 -0.1305 -0.2911 -0.2726
   49CHL1  H16A 6054   6.012   4.351   9.106  0.2885 -2.2289 -0.9124
   49CHL1  H16B 6055   6.178   4.412   9.111  0.4651  2.0368  2.6686
   49CHL1   C17 6056   6.150   4.209   9.199  0.2998  0.2474 -0.4193
   49CHL1   H17 6057   6.261   4.209   9.210  0.1779 -1.4113  1.4900
   49CHL1   C13 6058   6.091   4.179   9.338  0.1029  0.3215  0.3047
   49CHL1   C18 6059   5.940   4.148   9.322 -0.3142 -0.2325 -0.4393
   49CHL1  H18A 6060   5.928   4.054   9.263  0.4167  1.1162 -2.8596
   49CHL1  H18B 6061   5.896   4.127   9.422  0.7705  0.8605  0.2964
   49CHL1  H18C 6062   5.885   4.230   9.272  0.1962  0.6627  0.4468
   49CHL1   C12 6063   6.168   4.071   9.421  0.1311  0.1744  0.6441
   49CHL1  H12A 6064   6.151   3.968   9.381  0.0659 -0.9313  3.2763
   49CHL1  H12B 6065   6.274   4.097   9.401 -0.0796  2.0274  1.7642
   49CHL1   C11 6066   6.125   4.080   9.568 -0.0891  0.4411  0.3734
   49CHL1  H11A 6067   6.028   4.026   9.570  0.0923  0.1343  1.4300
   49CHL1  H11B 6068   6.193   4.015   9.627 -0.2368  0.6226  0.7498
   49CHL1    C9 6069   6.129   4.213   9.636  0.1656 -0.3657  0.6758
   49CHL1    H9 6070   6.236   4.236   9.652  0.5205 -1.0414 -0.6113
   49CHL1   C10 6071   6.063   4.222   9.779 -0.7900  0.7575  1.4226
   49CHL1   C19 6072   5.921   4.156   9.774 -0.0099  0.5432  0.7060
   49CHL1  H19A 6073   5.859   4.190   9.688 -1.1802 -0.3749  1.1531
   49CHL1  H19B 6074   5.918   4.045   9.769 -1.8900  0.6109 -1.1226
   49CHL1  H19C 6075   5.867   4.173   9.870 -1.7830  0.2763 -0.1866
   49CHL1    C1 6076   6.156   4.139   9.872 -0.1991 -0.3313 -0.2017
   49CHL1   H1A 6077   6.164   4.033   9.840 -0.9520 -0.8274  1.1566
   49CHL1   H1B 6078   6.257   4.183   9.858  1.3364 -2.8596  1.9237
   49CHL1    C2 6079   6.128   4.144  10.026 -0.7494 -0.6986 -0.6536
   49CHL1   H2A 6080   6.209   4.104  10.090  1.3527 -0.4057 -2.9720
   49CHL1   H2B 6081   6.040   4.081  10.050  0.7687 -2.1781  1.3930
   49CHL1   C20 6082   6.132   4.115   9.074 -0.4363 -0.0530  0.7606
   49CHL1   H20 6083   6.026   4.125   9.043 -0.8174 -2.9670  0.8368
   49CHL1   C21 6084   6.136   3.960   9.115 -0.4371 -0.8268  0.8505
   49CHL1  H21A 6085   6.123   3.884   9.035 -1.2859 -0.4690  0.6366
   49CHL1  H21B 6086   6.057   3.931   9.186 -0.0674 -1.8192  0.8641
   49CHL1  H21C 6087   6.237   3.943   9.159  0.4192  1.6775  0.0905
   49CHL1   C22 6088   6.211   4.150   8.951  0.5590 -0.7245  0.1090
   49CHL1  H22A 6089   6.177   4.246   8.907  0.2795 -0.8559  0.0346
   49CHL1  H22B 6090   6.320   4.153   8.970  0.9754 -1.9356 -1.8235
   49CHL1   C23 6091   6.197   4.046   8.833 -0.0236  0.3032 -0.3647
   49CHL1  H23A 6092   6.251   3.953   8.862  0.0206  0.1074 -1.0567
   49CHL1  H23B 6093   6.093   4.013   8.813  0.0096  0.5081 -0.8666
   49CHL1   C24 6094   6.244   4.109   8.702 -0.0374 -1.0413 -0.9254
   49CHL1  H24A 6095   6.182   4.198   8.676  0.6356 -0.7543 -1.5881
   49CHL1  H24B 6096   6.348   4.144   8.723 -0.8897  0.7843  0.4796
   49CHL1   C25 6097   6.241   4.018   8.580 -0.3256  0.0605 -0.2261
   49CHL1   H25 6098   6.141   3.970   8.577 -1.0808  1.5475  0.3187
   49CHL1   C26 6099   6.269   4.110   8.458  0.0173 -0.3315 -0.0681
   49CHL1  H26A 6100   6.242   4.070   8.358  0.8440  2.9476 -1.7491
   49CHL1  H26B 6101   6.210   4.203   8.475  2.1405  1.1599 -0.5357
   49CHL1  H26C 6102   6.371   4.154   8.466 -0.5282  0.7318  1.6055
   49CHL1   C27 6103   6.351   3.903   8.592 -0.3961  0.4006 -0.1203
   49CHL1  H27A 6104   6.344   3.831   8.677 -3.3849 -0.7631 -1.2015
   49CHL1  H27B 6105   6.345   3.854   8.493  0.2518 -2.0871  0.9858
   49CHL1  H27C 6106   6.444   3.963   8.596 -0.7282  0.9291 -0.1790
   50CHL1    C3 6107   3.585   6.311  10.044 -0.1816 -0.3737  0.1990
   50CHL1    H3 6108   3.537   6.401   9.999  1.8358  0.9752  0.5998
   50CHL1    O3 6109   3.567   6.295  10.180  0.1306  0.4489 -0.0000
   50CHL1   H3' 6110   3.538   6.204  10.194  1.7854 -0.1892 -0.4670
   50CHL1    C4 6111   3.525   6.196   9.970 -0.2764  0.4780 -0.4268
   50CHL1   H4A 6112   3.561   6.094   9.994  0.2556  0.5984 -0.6902
   50CHL1   H4B 6113   3.419   6.201  10.002  0.1999  2.1630  1.0173
   50CHL1    C5 6114   3.545   6.202   9.821  0.0384 -0.3876  0.8037
   50CHL1    C6 6115   3.437   6.186   9.740  0.1985 -0.0491  0.5451
   50CHL1    H6 6116   3.346   6.161   9.797 -2.0532  2.2296 -1.7973
   50CHL1    C7 6117   3.437   6.184   9.588 -0.2592  0.1064  0.1876
   50CHL1   H7A 6118   3.388   6.092   9.548  1.4602 -0.9681  0.4344
   50CHL1   H7B 6119   3.388   6.275   9.549  1.4664  0.1787 -1.9885
   50CHL1    C8 6120   3.582   6.184   9.533 -0.3343 -0.7140  0.0640
   50CHL1    H8 6121   3.620   6.080   9.545  2.7130  0.5118  2.5797
   50CHL1   C14 6122   3.590   6.234   9.397  0.4951  0.1717  0.6023
   50CHL1   H14 6123   3.574   6.343   9.391 -0.6037 -0.0844 -2.6844
   50CHL1   C15 6124   3.480   6.176   9.304  0.1648 -0.0726 -0.3165
   50CHL1  H15A 6125   3.474   6.067   9.323  1.9552 -0.1623 -0.1005
   50CHL1  H15B 6126   3.385   6.229   9.323  0.1790 -0.5099  1.0517
   50CHL1   C16 6127   3.541   6.216   9.166 -0.5513  0.5870 -0.5868
   50CHL1  H16A 6128   3.554   6.121   9.109  1.2947  0.4680 -0.0512
   50CHL1  H16B 6129   3.474   6.278   9.103 -2.7280  1.1305  2.1072
   50CHL1   C17 6130   3.677   6.283   9.184  0.5511 -0.0435  0.1888
   50CHL1   H17 6131   3.664   6.393   9.194  0.0593 -0.0921  0.0986
   50CHL1   C13 6132   3.722   6.223   9.325  0.1081 -0.4671  0.4644
   50CHL1   C18 6133   3.759   6.073   9.317  0.2791 -0.4271 -0.2299
   50CHL1  H18A 6134   3.757   6.019   9.414  0.3267  0.1157  0.0806
   50CHL1  H18B 6135   3.683   6.024   9.254 -0.0941  1.6097 -1.4485
   50CHL1  H18C 6136   3.861   6.069   9.273 -0.0328  1.4596 -1.2153
   50CHL1   C12 6137   3.817   6.312   9.403  0.2693  0.0850 -0.2292
   50CHL1  H12A 6138   3.920   6.302   9.364 -0.2829 -2.3328 -1.3341
   50CHL1  H12B 6139   3.786   6.418   9.399  0.2445  0.0488 -1.6353
   50CHL1   C11 6140   3.827   6.263   9.549 -0.2580  0.1756 -0.5712
   50CHL1  H11A 6141   3.871   6.160   9.556 -0.0370  0.3570  1.4341
   50CHL1  H11B 6142   3.897   6.336   9.595  0.2089 -0.6873  0.1451
   50CHL1    C9 6143   3.685   6.265   9.617  0.2226  0.1505 -0.1074
   50CHL1    H9 6144   3.646   6.369   9.607 -0.1462 -0.1978 -4.0047
   50CHL1   C10 6145   3.684   6.237   9.765 -0.7366 -0.4227  0.3839
   50CHL1   C19 6146   3.760   6.105   9.787 -0.6044 -0.1220 -1.0483
   50CHL1  H19A 6147   3.866   6.116   9.755  0.0992 -0.3200  1.0830
   50CHL1  H19B 6148   3.772   6.086   9.895 -1.1721  1.6584 -0.6421
   50CHL1  H19C 6149   3.716   6.018   9.733 -0.4543  0.4116 -2.0742
   50CHL1    C1 6150   3.753   6.346   9.854  0.6207 -0.0827 -0.1383
   50CHL1   H1A 6151   3.862   6.333   9.836  0.2400 -0.7470 -2.3475
   50CHL1   H1B 6152   3.710   6.446   9.833  0.3028  0.1896  1.6187
   50CHL1    C2 6153   3.737   6.331  10.007  0.6044  0.2911 -0.3717
   50CHL1   H2A 6154   3.769   6.412  10.076  1.6570 -1.1323  0.8764
   50CHL1   H2B 6155   3.791   6.242  10.044  0.0348  0.5638  1.2021
   50CHL1   C20 6156   3.770   6.245   9.061  0.8321 -0.2323  0.3785
   50CHL1   H20 6157   3.780   6.135   9.064  0.3558 -0.2535  1.8823
   50CHL1   C21 6158   3.914   6.297   9.086 -0.1414 -1.3095  0.0568
   50CHL1  H21A 6159   3.957   6.283   8.985  0.1307  2.0942 -0.4055
   50CHL1  H21B 6160   3.969   6.227   9.152 -0.1370 -2.4359 -1.1093
   50CHL1  H21C 6161   3.912   6.407   9.099  0.1538 -1.3389  0.3649
   50CHL1   C22 6162   3.721   6.295   8.926 -0.3995 -0.3998  0.8752
   50CHL1  H22A 6163   3.611   6.280   8.923 -0.5296  0.4507  1.0697
   50CHL1  H22B 6164   3.743   6.403   8.908 -0.6967 -0.4929 -0.0951
   50CHL1   C23 6165   3.775   6.221   8.805 -0.1518  0.9917  0.2678
   50CHL1  H23A 6166   3.884   6.226   8.784 -0.4203 -0.0970 -1.6522
   50CHL1  H23B 6167   3.753   6.114   8.822 -0.2303  0.8697 -0.5499
   50CHL1   C24 6168   3.695   6.275   8.679 -0.0110  0.3283 -0.0450
   50CHL1  H24A 6169   3.587   6.259   8.697  0.0557 -1.2655 -0.8349
   50CHL1  H24B 6170   3.715   6.383   8.660 -2.8003  1.3642  2.2563
   50CHL1   C25 6171   3.736   6.202   8.548  0.2230 -0.1549  0.3601
   50CHL1   H25 6172   3.845   6.210   8.532 -0.0682  1.1711 -1.3530
   50CHL1   C26 6173   3.695   6.056   8.534  0.1460  0.8791 -0.6741
   50CHL1  H26A 6174   3.724   6.002   8.627 -1.4094  0.2577 -0.5246
   50CHL1  H26B 6175   3.586   6.043   8.517 -0.0026  0.0357  0.6880
   50CHL1  H26C 6176   3.747   6.006   8.450  0.2877  0.1644 -0.1711
   50CHL1   C27 6177   3.674   6.275   8.422  0.0825 -0.3455  0.0155
   50CHL1  H27A 6178   3.568   6.306   8.432  0.3426  0.5407  0.1636
   50CHL1  H27B 6179   3.724   6.375   8.421 -2.0933  0.8323  1.3149
   50CHL1  H27C 6180   3.695   6.226   8.324  0.0872  0.4943 -0.4113
   51CHL1    C3 6181   6.733   2.959  10.199 -0.3589  0.5042  0.3078
   51CHL1    H3 6182   6.842   2.958  10.182 -0.5684  0.6024 -1.2071
   51CHL1    O3 6183   6.714   2.973  10.336  0.2278 -0.5288 -0.2934
   51CHL1   H3' 6184   6.723   3.064  10.366 -3.1464 -0.6848  1.8012
   51CHL1    C4 6185   6.670   3.071  10.125  0.4337 -0.4058  0.1106
   51CHL1   H4A 6186   6.565   3.072  10.162  0.2289  0.9651 -0.4327
   51CHL1   H4B 6187   6.726   3.159  10.162 -0.7283  0.0750  0.7659
   51CHL1    C5 6188   6.670   3.050   9.975  0.3271  0.3479 -0.3211
   51CHL1    C6 6189   6.735   3.136   9.903  0.8296 -0.0773  0.3629
   51CHL1    H6 6190   6.791   3.216   9.953  1.0610 -0.2108  0.3183
   51CHL1    C7 6191   6.753   3.130   9.756 -0.0147 -0.2265 -0.2202
   51CHL1   H7A 6192   6.741   3.230   9.708 -0.0927 -0.3409 -0.4403
   51CHL1   H7B 6193   6.858   3.096   9.745  0.6177  0.6172  2.3879
   51CHL1    C8 6194   6.655   3.035   9.689 -0.1454  0.0480  0.3747
   51CHL1    H8 6195   6.558   3.088   9.679 -2.0492 -2.9033  1.7338
   51CHL1   C14 6196   6.696   3.010   9.540  0.0903 -0.2654  0.2512
   51CHL1   H14 6197   6.798   2.966   9.542 -0.1854 -0.9045  1.7259
   51CHL1   C15 6198   6.717   3.141   9.447  0.6085 -0.8428 -0.3189
   51CHL1  H15A 6199   6.636   3.216   9.454  2.1610  1.1044 -1.7871
   51CHL1  H15B 6200   6.807   3.195   9.484  0.0036 -0.1875  0.2074
   51CHL1   C16 6201   6.717   3.079   9.301  0.4606  0.2215  0.4265
   51CHL1  H16A 6202   6.647   3.130   9.232 -0.9114 -1.0787  0.7977
   51CHL1  H16B 6203   6.821   3.079   9.262 -0.0815  2.1276 -1.1268
   51CHL1   C17 6204   6.664   2.930   9.317  0.1787 -0.0849  0.3761
   51CHL1   H17 6205   6.752   2.864   9.332 -0.1829 -0.3221  1.5021
   51CHL1   C13 6206   6.603   2.914   9.463 -0.3306 -0.1782  0.1263
   51CHL1   C18 6207   6.453   2.963   9.455  0.7322 -0.7421 -0.2902
   51CHL1  H18A 6208   6.390   2.897   9.392  0.6222 -0.0466 -0.9298
   51CHL1  H18B 6209   6.413   2.986   9.556 -0.1924 -0.4510 -0.7127
   51CHL1  H18C 6210   6.446   3.065   9.411 -0.2723  0.1680  1.8209
   51CHL1   C12 6211   6.605   2.782   9.544 -0.2867 -0.2183  0.6847
   51CHL1  H12A 6212   6.532   2.704   9.512 -0.0809 -0.3478  0.5280
   51CHL1  H12B 6213   6.706   2.735   9.538 -1.0435 -1.6855 -1.9516
   51CHL1   C11 6214   6.564   2.797   9.692 -1.0105 -0.2372 -0.5558
   51CHL1  H11A 6215   6.466   2.846   9.677 -0.7601  0.6005  0.4603
   51CHL1  H11B 6216   6.569   2.698   9.742  1.2124 -0.2538 -0.7032
   51CHL1    C9 6217   6.649   2.903   9.771 -0.1588  0.0688 -0.0927
   51CHL1    H9 6218   6.754   2.869   9.778 -0.2871 -0.2113  0.6386
   51CHL1   C10 6219   6.602   2.920   9.923 -0.5377 -0.1652 -0.1019
   51CHL1   C19 6220   6.449   2.933   9.945 -0.2871  0.6351  0.0977
   51CHL1  H19A 6221   6.420   2.944  10.051  2.0830 -0.1760  0.8874
   51CHL1  H19B 6222   6.404   3.006   9.874 -2.9898 -2.5175 -1.7452
   51CHL1  H19C 6223   6.407   2.834   9.915  1.9790 -1.1769  2.4997
   51CHL1    C1 6224   6.670   2.808  10.003  0.0893 -0.3457  0.0107
   51CHL1   H1A 6225   6.606   2.721   9.976 -2.9256  1.4194  0.9849
   51CHL1   H1B 6226   6.778   2.789   9.984  0.8137 -0.9088  3.9102
   51CHL1    C2 6227   6.671   2.824  10.158  0.1863 -0.6631  0.4885
   51CHL1   H2A 6228   6.735   2.738  10.188  1.0982 -0.6647 -1.3449
   51CHL1   H2B 6229   6.569   2.809  10.200 -0.9087  0.2832 -1.6970
   51CHL1   C20 6230   6.574   2.882   9.204  0.2313  1.0863 -0.5994
   51CHL1   H20 6231   6.484   2.943   9.183 -0.8280 -0.5962 -1.1602
   51CHL1   C21 6232   6.538   2.736   9.222 -0.4141 -0.0346 -0.6464
   51CHL1  H21A 6233   6.629   2.683   9.258 -1.0384  0.3668  1.6824
   51CHL1  H21B 6234   6.506   2.682   9.131 -5.3409 -1.1148  1.4139
   51CHL1  H21C 6235   6.466   2.709   9.301  0.7882 -2.5085 -0.2986
   51CHL1   C22 6236   6.641   2.883   9.059 -0.4471 -1.2397  0.1263
   51CHL1  H22A 6237   6.563   2.889   8.981 -0.3610  1.1869  0.1564
   51CHL1  H22B 6238   6.683   2.986   9.055 -1.3219 -0.7081  2.6329
   51CHL1   C23 6239   6.753   2.794   9.019  0.3562 -0.4524  0.4509
   51CHL1  H23A 6240   6.840   2.796   9.089 -1.4569 -0.5216  2.8641
   51CHL1  H23B 6241   6.714   2.691   9.033  0.3509 -0.3080  1.6330
   51CHL1   C24 6242   6.806   2.811   8.877 -0.3635 -0.6441  0.8164
   51CHL1  H24A 6243   6.729   2.781   8.802  0.3048  0.2633 -0.2683
   51CHL1  H24B 6244   6.832   2.918   8.862 -1.4022 -0.3336  1.1203
   51CHL1   C25 6245   6.927   2.717   8.839 -0.5620  0.0368  0.7970
   51CHL1   H25 6246   7.019   2.749   8.894  0.2794  0.3693 -0.7332
   51CHL1   C26 6247   6.911   2.567   8.866 -0.5036 -0.0730 -0.2386
   51CHL1  H26A 6248   6.982   2.496   8.818  0.2603  0.9629 -0.6835
   51CHL1  H26B 6249   6.907   2.539   8.973 -0.6615  1.0240  0.0545
   51CHL1  H26C 6250   6.815   2.533   8.821 -1.1610  0.0820  1.0224
   51CHL1   C27 6251   6.958   2.738   8.684 -0.0701  0.4000 -0.1462
   51CHL1  H27A 6252   7.046   2.683   8.646  1.6410  3.3815 -0.8471
   51CHL1  H27B 6253   6.866   2.728   8.622 -1.6515  0.8378  2.0047
   51CHL1  H27C 6254   6.975   2.847   8.672  0.2235  0.2982 -0.7046
   52CHL1    C3 6255   0.584   0.446  10.025 -0.3628 -0.3044  0.1059
   52CHL1    H3 6256   0.478   0.477  10.007 -0.1665 -0.0566 -0.6774
   52CHL1    O3 6257   0.607   0.409  10.159 -0.2122 -0.1051  0.3411
   52CHL1   H3' 6258   0.701   0.390  10.160 -0.4077 -1.1882 -0.1454
   52CHL1    C4 6259   0.637   0.332   9.927 -0.0727  0.4024  0.4145
   52CHL1   H4A 6260   0.736   0.299   9.964  0.2987  0.4641 -0.4979
   52CHL1   H4B 6261   0.576   0.238   9.930  0.0424  0.3530  2.0787
   52CHL1    C5 6262   0.652   0.365   9.774  0.2163 -0.8559  0.6263
   52CHL1    C6 6263   0.588   0.297   9.674  0.4180 -0.5235 -0.5535
   52CHL1    H6 6264   0.528   0.208   9.698  0.6884 -0.5861 -0.0950
   52CHL1    C7 6265   0.589   0.343   9.533 -0.5684 -0.6357 -0.2491
   52CHL1   H7A 6266   0.583   0.255   9.465 -1.9196 -1.3395  0.7338
   52CHL1   H7B 6267   0.493   0.394   9.507 -1.3292 -1.8500  0.0888
   52CHL1    C8 6268   0.714   0.431   9.499  0.0455 -0.2989  0.3750
   52CHL1    H8 6269   0.800   0.362   9.506 -0.4797 -1.1290 -0.9955
   52CHL1   C14 6270   0.693   0.495   9.365 -0.1450  0.8887  0.1821
   52CHL1   H14 6271   0.605   0.563   9.377 -1.4522 -0.5312 -0.9170
   52CHL1   C15 6272   0.653   0.395   9.255 -0.1325  0.3794 -0.0281
   52CHL1  H15A 6273   0.699   0.294   9.258 -0.6857  0.1046 -0.5414
   52CHL1  H15B 6274   0.541   0.397   9.258 -0.3121  1.8277 -3.3043
   52CHL1   C16 6275   0.691   0.472   9.124  0.2006  0.1450  1.0325
   52CHL1  H16A 6276   0.760   0.410   9.064 -1.7296  0.6258 -1.8763
   52CHL1  H16B 6277   0.611   0.489   9.050 -1.9183  0.1776  3.2065
   52CHL1   C17 6278   0.763   0.605   9.176  0.5458  0.0525 -0.1982
   52CHL1   H17 6279   0.670   0.666   9.180  0.6940  0.2235  0.7856
   52CHL1   C13 6280   0.811   0.580   9.323  0.6557  0.3305  0.8572
   52CHL1   C18 6281   0.934   0.496   9.324  0.1356 -0.1889  0.3168
   52CHL1  H18A 6282   0.913   0.406   9.261  3.5123 -0.1317 -1.1188
   52CHL1  H18B 6283   1.023   0.550   9.283 -0.5926  1.1501  0.4463
   52CHL1  H18C 6284   0.957   0.471   9.429  0.6174 -2.7897 -0.3315
   52CHL1   C12 6285   0.814   0.698   9.411 -0.3843  0.2356 -0.2223
   52CHL1  H12A 6286   0.903   0.761   9.390  0.2659  0.0563  1.7314
   52CHL1  H12B 6287   0.736   0.776   9.402 -0.3442  0.2692 -0.2816
   52CHL1   C11 6288   0.831   0.654   9.559 -0.4748  0.5598 -0.3929
   52CHL1  H11A 6289   0.934   0.616   9.575 -0.3308  0.9505 -0.3652
   52CHL1  H11B 6290   0.814   0.748   9.618  1.7840  1.5998 -1.2650
   52CHL1    C9 6291   0.726   0.545   9.603 -0.9252  0.2246 -0.0149
   52CHL1    H9 6292   0.628   0.598   9.601 -0.2212  1.5776 -0.2520
   52CHL1   C10 6293   0.735   0.493   9.748  0.0802 -0.4050  0.5025
   52CHL1   C19 6294   0.880   0.464   9.779 -0.0597  0.8711  0.5918
   52CHL1  H19A 6295   0.919   0.400   9.697 -2.9637 -2.4174  1.5377
   52CHL1  H19B 6296   0.929   0.564   9.786  0.1413  0.7426  1.0004
   52CHL1  H19C 6297   0.889   0.403   9.871  0.4866 -1.0043 -0.6371
   52CHL1    C1 6298   0.686   0.604   9.844  1.1151 -0.8209 -0.2396
   52CHL1   H1A 6299   0.744   0.696   9.824 -0.1263 -0.3517 -1.8717
   52CHL1   H1B 6300   0.580   0.620   9.813  0.8744 -3.5016 -1.0596
   52CHL1    C2 6301   0.675   0.567   9.993  0.3063 -0.8609 -0.2831
   52CHL1   H2A 6302   0.638   0.661  10.041  0.8907 -0.9258  0.3030
   52CHL1   H2B 6303   0.770   0.543  10.044  0.5169  0.7590  0.1351
   52CHL1   C20 6304   0.864   0.658   9.074 -0.6745  0.4436  0.0481
   52CHL1   H20 6305   0.947   0.584   9.071 -1.8006 -0.8638  0.0324
   52CHL1   C21 6306   0.926   0.791   9.125  0.0121  0.9852 -0.4968
   52CHL1  H21A 6307   0.986   0.777   9.217 -0.2743  0.0456 -0.4432
   52CHL1  H21B 6308   0.853   0.871   9.148 -1.9252 -1.1056  1.1251
   52CHL1  H21C 6309   0.992   0.832   9.045  1.0478 -1.1250 -0.7916
   52CHL1   C22 6310   0.802   0.672   8.933  0.3759  0.0977  0.3542
   52CHL1  H22A 6311   0.784   0.573   8.886  2.4167 -0.6644  1.0753
   52CHL1  H22B 6312   0.707   0.729   8.944  0.8672  0.7938  1.1614
   52CHL1   C23 6313   0.900   0.744   8.836  0.7390 -0.2015 -0.3150
   52CHL1  H23A 6314   0.899   0.851   8.866 -0.3011 -0.8486  2.1503
   52CHL1  H23B 6315   1.004   0.703   8.836  1.2620  1.0802 -0.3614
   52CHL1   C24 6316   0.854   0.730   8.689  0.6307  0.6495  0.6956
   52CHL1  H24A 6317   0.821   0.629   8.658  0.4591  0.5010  1.3454
   52CHL1  H24B 6318   0.768   0.800   8.680 -0.1910 -0.1357  2.0661
   52CHL1   C25 6319   0.964   0.766   8.586  0.3048 -0.0628  0.6719
   52CHL1   H25 6320   1.053   0.705   8.614 -0.4246 -1.2521  0.4622
   52CHL1   C26 6321   0.923   0.715   8.447  0.0940  0.7125 -1.0415
   52CHL1  H26A 6322   0.818   0.749   8.437 -0.2247 -0.2185 -0.9300
   52CHL1  H26B 6323   0.996   0.752   8.372  1.5251 -2.5032 -1.4015
   52CHL1  H26C 6324   0.938   0.605   8.449 -1.6614  0.4523  0.1733
   52CHL1   C27 6325   1.004   0.919   8.592  1.2298  0.2147  0.8970
   52CHL1  H27A 6326   1.078   0.950   8.515  0.8863 -0.1595  0.4109
   52CHL1  H27B 6327   0.920   0.978   8.550  1.8305  0.3457 -0.1599
   52CHL1  H27C 6328   1.044   0.948   8.692  0.3190  0.3000  1.2450
   53CHL1    C3 6329   3.262   6.538   9.988 -0.3985  0.4888  0.1679
   53CHL1    H3 6330   3.326   6.446   9.983 -0.3401  0.5625 -0.4976
   53CHL1    O3 6331   3.271   6.563  10.126 -0.4420  0.4777  0.1287
   53CHL1   H3' 6332   3.231   6.648  10.147 -2.1324  0.0371 -1.0567
   53CHL1    C4 6333   3.322   6.647   9.904  0.2887 -0.3286  0.1167
   53CHL1   H4A 6334   3.251   6.731   9.923  0.8345  0.5906 -1.7490
   53CHL1   H4B 6335   3.421   6.681   9.941 -1.5294  2.6358  2.8294
   53CHL1    C5 6336   3.310   6.635   9.750  0.4853 -0.1147  0.2839
   53CHL1    C6 6337   3.421   6.643   9.681 -0.6981  0.1756  0.0787
   53CHL1    H6 6338   3.516   6.658   9.734 -1.5462  1.5356  1.2712
   53CHL1    C7 6339   3.426   6.621   9.529  0.3831 -0.4842  0.1318
   53CHL1   H7A 6340   3.483   6.698   9.473 -2.1168  1.3054 -0.0878
   53CHL1   H7B 6341   3.468   6.518   9.519  0.0691 -0.4035 -2.9057
   53CHL1    C8 6342   3.288   6.611   9.464  0.0733  0.0794  0.0197
   53CHL1    H8 6343   3.247   6.713   9.451  0.6086  0.1748 -1.0813
   53CHL1   C14 6344   3.301   6.554   9.329 -0.3790  0.2303 -0.1994
   53CHL1   H14 6345   3.323   6.447   9.348 -1.2074 -0.2325 -1.6678
   53CHL1   C15 6346   3.415   6.601   9.236 -0.5728 -0.3175 -0.2274
   53CHL1  H15A 6347   3.431   6.711   9.244  2.9651 -0.5871 -1.7331
   53CHL1  H15B 6348   3.511   6.559   9.273 -0.9125  0.3587  1.5221
   53CHL1   C16 6349   3.361   6.556   9.097 -0.4791 -0.9160 -0.2957
   53CHL1  H16A 6350   3.356   6.641   9.026  0.1115  0.2241  0.9826
   53CHL1  H16B 6351   3.441   6.488   9.058  1.5394  1.3822 -0.4191
   53CHL1   C17 6352   3.221   6.490   9.117  0.0623 -0.6469  0.3410
   53CHL1   H17 6353   3.243   6.383   9.133  1.0159 -0.6599 -0.8694
   53CHL1   C13 6354   3.173   6.543   9.247  0.6047  0.2380 -1.1606
   53CHL1   C18 6355   3.111   6.687   9.231  0.1942 -0.0267 -0.9020
   53CHL1  H18A 6356   3.185   6.759   9.191 -1.8539  3.6885  1.3901
   53CHL1  H18B 6357   3.017   6.681   9.172  1.0125 -0.7815 -2.1644
   53CHL1  H18C 6358   3.088   6.734   9.329  0.7003 -1.8786  0.1559
   53CHL1   C12 6359   3.071   6.460   9.326 -0.4852 -0.1033 -0.5015
   53CHL1  H12A 6360   2.970   6.478   9.282 -1.0566  1.5526  1.3395
   53CHL1  H12B 6361   3.098   6.352   9.325  0.5142  0.1274 -2.3122
   53CHL1   C11 6362   3.046   6.502   9.472 -0.7189  0.5550  0.1213
   53CHL1  H11A 6363   2.993   6.600   9.464 -1.4955  0.0650 -1.0463
   53CHL1  H11B 6364   2.989   6.431   9.535 -1.4428  1.0613  0.0483
   53CHL1    C9 6365   3.182   6.535   9.549  0.6347  0.0113  1.1071
   53CHL1    H9 6366   3.233   6.437   9.551  0.3732 -0.1811 -0.5939
   53CHL1   C10 6367   3.172   6.589   9.696 -0.1280 -0.3953  0.4882
   53CHL1   C19 6368   3.085   6.715   9.690 -0.1156 -0.0454  0.5601
   53CHL1  H19A 6369   3.099   6.774   9.597 -1.8565 -3.3337 -2.0438
   53CHL1  H19B 6370   2.980   6.680   9.692  0.0625 -0.5685  0.9573
   53CHL1  H19C 6371   3.101   6.782   9.776 -0.4808 -0.5510  1.0297
   53CHL1    C1 6372   3.102   6.482   9.792 -0.5786 -0.2295 -0.0082
   53CHL1   H1A 6373   2.999   6.465   9.753 -0.7438  0.6496  0.0193
   53CHL1   H1B 6374   3.155   6.385   9.777 -1.1287 -0.5827  0.3193
   53CHL1    C2 6375   3.119   6.501   9.943 -0.1477 -0.2440 -0.1083
   53CHL1   H2A 6376   3.082   6.413   9.999  0.2980  0.0498  0.6623
   53CHL1   H2B 6377   3.060   6.588   9.981  1.4873  0.5327  0.7777
   53CHL1   C20 6378   3.124   6.504   8.993  0.4674  0.1715  0.5681
   53CHL1   H20 6379   3.112   6.613   8.977 -2.7563 -0.2785 -1.0537
   53CHL1   C21 6380   2.987   6.438   9.017  0.0734  0.0285 -0.6378
   53CHL1  H21A 6381   2.916   6.428   8.932 -1.3295  2.5847  0.1220
   53CHL1  H21B 6382   2.938   6.498   9.097 -0.1329 -1.8712  0.7274
   53CHL1  H21C 6383   3.004   6.334   9.053 -1.1565 -0.0329 -0.1810
   53CHL1   C22 6384   3.190   6.442   8.864 -0.0380  0.2779 -0.3649
   53CHL1  H22A 6385   3.301   6.448   8.865  0.0051 -0.3857  0.7502
   53CHL1  H22B 6386   3.150   6.339   8.854  1.7940 -0.5735  0.6918
   53CHL1   C23 6387   3.133   6.508   8.735 -0.1070 -0.5643 -0.6530
   53CHL1  H23A 6388   3.022   6.506   8.744 -0.5849  0.9004 -4.4559
   53CHL1  H23B 6389   3.160   6.616   8.730  1.0379 -0.8088 -0.0627
   53CHL1   C24 6390   3.164   6.433   8.605  0.3253  0.1608 -0.7486
   53CHL1  H24A 6391   3.275   6.433   8.610  0.3221  0.4166 -0.6615
   53CHL1  H24B 6392   3.129   6.328   8.614 -0.4379  0.4615  0.0768
   53CHL1   C25 6393   3.110   6.490   8.479  0.3048  0.2538  0.5832
   53CHL1   H25 6394   3.001   6.499   8.495 -0.0715  0.0619 -1.6056
   53CHL1   C26 6395   3.152   6.638   8.452  0.5099 -0.2771 -1.0130
   53CHL1  H26A 6396   3.105   6.691   8.366 -0.4099  0.4027 -0.1031
   53CHL1  H26B 6397   3.131   6.684   8.550  2.7846 -1.4828  0.1197
   53CHL1  H26C 6398   3.262   6.634   8.437  0.7658 -0.6769  0.7687
   53CHL1   C27 6399   3.124   6.395   8.358  0.5124 -0.6861  0.2078
   53CHL1  H27A 6400   3.100   6.294   8.399 -0.0857 -1.3115 -1.5567
   53CHL1  H27B 6401   3.054   6.412   8.273 -0.1804 -1.2832  0.6432
   53CHL1  H27C 6402   3.223   6.410   8.311 -0.1232 -0.3431 -1.0915
   54CHL1    C3 6403   1.283   2.123  10.023  0.2998 -0.1805  0.0510
   54CHL1    H3 6404   1.344   2.033  10.046  1.2502  0.7341  1.2486
   54CHL1    O3 6405   1.182   2.146  10.124 -0.0753  0.6468  0.1569
   54CHL1   H3' 6406   1.205   2.097  10.204  0.4950  1.2567  0.3676
   54CHL1    C4 6407   1.378   2.240  10.021 -0.2169  0.0619  0.5983
   54CHL1   H4A 6408   1.333   2.341  10.011 -1.0554 -0.5001 -1.8625
   54CHL1   H4B 6409   1.430   2.233  10.119  0.9147 -3.1747 -0.1246
   54CHL1    C5 6410   1.475   2.223   9.904 -0.8475 -0.4574 -0.0438
   54CHL1    C6 6411   1.609   2.237   9.931  0.1057 -0.3231  0.0126
   54CHL1    H6 6412   1.649   2.247  10.033 -1.3614  1.9220  0.4296
   54CHL1    C7 6413   1.712   2.205   9.823 -0.2402 -0.5006 -0.2631
   54CHL1   H7A 6414   1.790   2.280   9.847 -0.9931 -0.2954  1.7795
   54CHL1   H7B 6415   1.746   2.102   9.843 -0.1146 -0.3746  0.1886
   54CHL1    C8 6416   1.657   2.202   9.681  0.2134  0.7693  0.0644
   54CHL1    H8 6417   1.629   2.306   9.655 -0.1967  1.3451  2.5656
   54CHL1   C14 6418   1.756   2.135   9.595 -0.6727  0.2138 -0.3708
   54CHL1   H14 6419   1.767   2.030   9.629 -0.4123 -0.2341 -1.7550
   54CHL1   C15 6420   1.899   2.199   9.605  0.3501  0.4633  0.2308
   54CHL1  H15A 6421   1.902   2.310   9.601  0.1616  0.4474 -0.4413
   54CHL1  H15B 6422   1.965   2.166   9.688 -0.8223 -0.8241  0.6959
   54CHL1   C16 6423   1.962   2.144   9.476 -0.4127  0.1111  0.6667
   54CHL1  H16A 6424   2.014   2.218   9.411 -0.5150  0.6635  1.2012
   54CHL1  H16B 6425   2.042   2.070   9.498 -0.5243  0.5082  2.6101
   54CHL1   C17 6426   1.852   2.066   9.386 -0.0989 -0.1519  0.3665
   54CHL1   H17 6427   1.862   1.958   9.412 -0.3902 -0.6004 -1.2394
   54CHL1   C13 6428   1.720   2.119   9.444  0.6537  0.0557  0.3457
   54CHL1   C18 6429   1.695   2.267   9.380 -0.3497  0.1438 -0.4257
   54CHL1  H18A 6430   1.656   2.273   9.276 -3.5153  0.6720  0.6871
   54CHL1  H18B 6431   1.615   2.305   9.447  0.3663 -1.1191  1.2373
   54CHL1  H18C 6432   1.784   2.327   9.407 -1.1744  0.1946  2.5164
   54CHL1   C12 6433   1.600   2.026   9.445 -0.2235  0.1831 -0.5702
   54CHL1  H12A 6434   1.563   2.007   9.342 -1.9542 -0.3796  0.1245
   54CHL1  H12B 6435   1.640   1.933   9.490  1.1255  0.9648 -0.0675
   54CHL1   C11 6436   1.483   2.074   9.533  0.0586 -0.0990  0.7472
   54CHL1  H11A 6437   1.421   2.151   9.483 -0.1340 -1.6327 -1.5266
   54CHL1  H11B 6438   1.406   1.994   9.539 -2.0165  1.8266  0.9857
   54CHL1    C9 6439   1.528   2.122   9.676 -0.4837 -0.0138 -0.1424
   54CHL1    H9 6440   1.569   2.027   9.714  3.8168 -0.0128 -3.9880
   54CHL1   C10 6441   1.415   2.176   9.766  0.3414  0.0484 -0.0444
   54CHL1   C19 6442   1.348   2.304   9.703  0.5128  0.6064 -0.4974
   54CHL1  H19A 6443   1.427   2.381   9.690 -0.3056  1.7674  0.9926
   54CHL1  H19B 6444   1.304   2.277   9.605 -1.1246 -0.8701  0.5784
   54CHL1  H19C 6445   1.269   2.332   9.776 -0.6365 -0.9241 -1.1000
   54CHL1    C1 6446   1.314   2.061   9.784  0.0004 -0.2706  0.9646
   54CHL1   H1A 6447   1.256   2.046   9.690 -1.2937 -0.1443  1.7147
   54CHL1   H1B 6448   1.360   1.963   9.808  0.5279  0.3686  2.7370
   54CHL1    C2 6449   1.212   2.097   9.889 -0.1976 -0.2685 -0.0611
   54CHL1   H2A 6450   1.138   2.015   9.903 -0.8926  0.3163 -0.2741
   54CHL1   H2B 6451   1.146   2.176   9.848 -1.1688 -1.3438 -0.6189
   54CHL1   C20 6452   1.875   2.082   9.237 -0.0336  0.0204  0.2997
   54CHL1   H20 6453   1.873   2.190   9.209 -0.2374 -0.1836 -0.4938
   54CHL1   C21 6454   1.765   2.001   9.163 -0.7655  0.1312 -0.3875
   54CHL1  H21A 6455   1.779   2.031   9.057  1.2126  1.3531  0.1616
   54CHL1  H21B 6456   1.665   2.045   9.184 -0.3198  1.4919 -1.0082
   54CHL1  H21C 6457   1.766   1.892   9.183 -0.6484 -0.1405 -1.8233
   54CHL1   C22 6458   2.015   2.037   9.185  0.6009 -0.2006  0.5851
   54CHL1  H22A 6459   2.101   2.093   9.228 -1.6962  3.3729  0.9407
   54CHL1  H22B 6460   2.020   1.930   9.214 -0.2033  0.3235  2.8179
   54CHL1   C23 6461   2.021   2.038   9.033  0.0174  0.5980  0.6532
   54CHL1  H23A 6462   1.993   1.937   8.996  2.3032  0.6104 -1.3712
   54CHL1  H23B 6463   1.957   2.118   8.990  1.2159  0.9045 -0.6279
   54CHL1   C24 6464   2.171   2.063   8.988 -0.0562 -0.2168 -0.3748
   54CHL1  H24A 6465   2.209   2.161   9.022 -0.1120 -0.5344  0.6348
   54CHL1  H24B 6466   2.232   1.981   9.031 -1.5926 -0.8985  0.6104
   54CHL1   C25 6467   2.188   2.052   8.842 -0.4570 -0.0191 -0.0759
   54CHL1   H25 6468   2.106   2.099   8.784  0.1173  0.0282 -0.8729
   54CHL1   C26 6469   2.320   2.119   8.789  0.3014 -0.2547  0.6514
   54CHL1  H26A 6470   2.323   2.104   8.679  0.4320 -0.9673  0.7446
   54CHL1  H26B 6471   2.324   2.225   8.821  4.5876 -1.4684  5.3949
   54CHL1  H26C 6472   2.402   2.056   8.831  2.0509  1.3766 -0.1336
   54CHL1   C27 6473   2.175   1.907   8.792 -0.1140  0.6465  0.7672
   54CHL1  H27A 6474   2.080   1.858   8.822 -0.5429  1.8986  1.4992
   54CHL1  H27B 6475   2.167   1.890   8.682 -0.6472  2.1971  0.5461
   54CHL1  H27C 6476   2.258   1.852   8.841  0.2403  0.8861  0.4448
   55CHL1    C3 6477   2.919   5.554  10.132 -0.4447 -0.2720  0.0816
   55CHL1    H3 6478   2.890   5.661  10.124  0.8967  0.4458  3.1729
   55CHL1    O3 6479   2.925   5.519  10.270 -0.0693 -0.0732 -0.0404
   55CHL1   H3' 6480   2.976   5.438  10.280 -1.9759 -1.2084  1.1997
   55CHL1    C4 6481   2.820   5.468  10.062 -0.4087  0.6143 -0.4800
   55CHL1   H4A 6482   2.851   5.362  10.076 -0.6148  0.6760  0.5525
   55CHL1   H4B 6483   2.723   5.472  10.117 -0.2709 -1.0400 -0.0527
   55CHL1    C5 6484   2.818   5.506   9.917 -0.4437 -0.3477  0.1246
   55CHL1    C6 6485   2.702   5.548   9.865  0.6934  0.0662  0.5332
   55CHL1    H6 6486   2.612   5.561   9.926 -0.4276 -0.4659 -0.9273
   55CHL1    C7 6487   2.681   5.564   9.715 -0.4029 -0.4096 -0.2147
   55CHL1   H7A 6488   2.589   5.510   9.683  0.8353 -0.9305 -3.2914
   55CHL1   H7B 6489   2.663   5.670   9.686  0.2597 -0.2111  0.0971
   55CHL1    C8 6490   2.799   5.504   9.638  0.7539  0.0649  0.2451
   55CHL1    H8 6491   2.794   5.394   9.653 -0.3924  0.1979  0.9751
   55CHL1   C14 6492   2.792   5.547   9.494  0.9045 -0.0828  0.0960
   55CHL1   H14 6493   2.815   5.656   9.491 -0.2268  0.2696  2.0511
   55CHL1   C15 6494   2.649   5.521   9.428  0.2047 -0.0911 -0.2726
   55CHL1  H15A 6495   2.610   5.423   9.461 -0.9761  0.2734 -0.5515
   55CHL1  H15B 6496   2.580   5.599   9.466  0.1531 -0.6570  0.8428
   55CHL1   C16 6497   2.691   5.534   9.282 -0.5586  0.1022  0.0265
   55CHL1  H16A 6498   2.656   5.438   9.238 -0.3492 -0.3894  0.9101
   55CHL1  H16B 6499   2.629   5.610   9.229 -1.5501 -1.1924 -0.7438
   55CHL1   C17 6500   2.843   5.552   9.263  0.1547  0.1141 -0.5103
   55CHL1   H17 6501   2.862   5.661   9.271 -0.6079  0.1908  0.5530
   55CHL1   C13 6502   2.893   5.481   9.397 -0.3551 -0.1053 -0.1012
   55CHL1   C18 6503   2.883   5.328   9.392 -0.1538  0.1832  1.1254
   55CHL1  H18A 6504   2.979   5.290   9.353  0.4219 -0.4625  3.0604
   55CHL1  H18B 6505   2.862   5.284   9.492 -0.1137  1.5463  1.7605
   55CHL1  H18C 6506   2.802   5.290   9.327 -0.2388 -3.5378  3.1170
   55CHL1   C12 6507   3.026   5.536   9.449  0.7615  0.4279 -0.1846
   55CHL1  H12A 6508   3.116   5.504   9.391  1.6398  2.6470 -0.1458
   55CHL1  H12B 6509   3.039   5.646   9.453 -0.7055  0.5880  1.5953
   55CHL1   C11 6510   3.053   5.490   9.598  0.1491 -0.2309 -0.7254
   55CHL1  H11A 6511   3.069   5.380   9.595 -1.8698 -0.5463 -2.1335
   55CHL1  H11B 6512   3.147   5.539   9.632 -0.8828  1.8890 -0.7032
   55CHL1    C9 6513   2.935   5.545   9.692 -0.0204  0.1147  0.3168
   55CHL1    H9 6514   2.952   5.653   9.676  0.3972 -0.0211 -0.2045
   55CHL1   C10 6515   2.948   5.500   9.844  0.7137 -0.3320 -0.2490
   55CHL1   C19 6516   2.996   5.352   9.847  0.2669  0.7730 -0.0914
   55CHL1  H19A 6517   2.930   5.290   9.783 -0.1383  0.9811  0.1186
   55CHL1  H19B 6518   3.097   5.335   9.804 -0.2781 -4.0242 -0.0240
   55CHL1  H19C 6519   2.998   5.303   9.947 -0.6446  0.9043 -0.0046
   55CHL1    C1 6520   3.051   5.582   9.916 -0.1996 -0.4487 -0.6446
   55CHL1   H1A 6521   3.151   5.571   9.869 -0.4986 -0.9103 -1.1770
   55CHL1   H1B 6522   3.030   5.691   9.913 -1.0741 -0.5440  0.8162
   55CHL1    C2 6523   3.063   5.540  10.067  0.4598 -0.1830 -0.2176
   55CHL1   H2A 6524   3.134   5.608  10.118  2.1037 -1.6674 -0.4523
   55CHL1   H2B 6525   3.092   5.434  10.078  1.3653  0.1591  0.8267
   55CHL1   C20 6526   2.900   5.501   9.133 -0.2451 -0.2563  0.6448
   55CHL1   H20 6527   2.875   5.393   9.125  1.8070 -0.6479 -1.6902
   55CHL1   C21 6528   3.057   5.509   9.127 -0.2447 -0.2577  0.2999
   55CHL1  H21A 6529   3.108   5.442   9.199  0.1818 -0.1301  0.1194
   55CHL1  H21B 6530   3.076   5.614   9.158 -2.7408 -0.6616  3.7026
   55CHL1  H21C 6531   3.111   5.479   9.035 -0.5100 -0.3280  0.1646
   55CHL1   C22 6532   2.839   5.571   9.012 -0.3695  0.6304  0.6486
   55CHL1  H22A 6533   2.729   5.562   9.014 -0.3184 -0.2695  0.0069
   55CHL1  H22B 6534   2.857   5.681   9.017 -3.6891  1.4347 -1.6233
   55CHL1   C23 6535   2.892   5.534   8.867 -0.4368  0.0956  0.0866
   55CHL1  H23A 6536   2.992   5.576   8.845 -0.5869 -0.9048 -2.9023
   55CHL1  H23B 6537   2.901   5.428   8.835 -0.4815  0.1680 -0.1621
   55CHL1   C24 6538   2.803   5.611   8.761 -0.0103  0.4351 -0.2674
   55CHL1  H24A 6539   2.699   5.572   8.769 -0.4583  1.0509 -2.5777
   55CHL1  H24B 6540   2.785   5.719   8.776 -1.9530  0.0624  0.4246
   55CHL1   C25 6541   2.860   5.590   8.615  0.3335 -0.4707  0.2553
   55CHL1   H25 6542   2.862   5.480   8.599  0.1076 -0.0953 -3.2184
   55CHL1   C26 6543   2.766   5.645   8.511  0.1426 -0.7945  0.1635
   55CHL1  H26A 6544   2.799   5.626   8.406 -3.2247 -0.0846 -1.1418
   55CHL1  H26B 6545   2.663   5.608   8.526  0.0446 -0.9597 -0.8437
   55CHL1  H26C 6546   2.759   5.755   8.521  1.6212 -0.7995  1.7311
   55CHL1   C27 6547   2.999   5.641   8.599  0.1139  0.0026  0.2102
   55CHL1  H27A 6548   3.072   5.572   8.647 -0.7057  0.4493  2.2082
   55CHL1  H27B 6549   3.029   5.645   8.492 -0.5421  0.0400  0.0201
   55CHL1  H27C 6550   3.002   5.746   8.636  1.4776 -0.2768  0.9334
   56CHL1    C3 6551   1.276   5.483   9.906 -0.2582 -0.6350 -0.1627
   56CHL1    H3 6552   1.265   5.373   9.904 -0.9407 -0.5671 -0.7468
   56CHL1    O3 6553   1.264   5.529  10.042  0.0099 -0.1811 -0.1183
   56CHL1   H3' 6554   1.316   5.465  10.091 -1.0783 -0.8072  0.2438
   56CHL1    C4 6555   1.417   5.528   9.851 -0.5482  0.8021  0.1285
   56CHL1   H4A 6556   1.434   5.637   9.855 -0.4425  1.0071 -3.2041
   56CHL1   H4B 6557   1.497   5.478   9.909  0.3462 -0.6225 -2.1940
   56CHL1    C5 6558   1.429   5.504   9.705  0.0108  0.0152  0.6701
   56CHL1    C6 6559   1.527   5.427   9.665 -0.3750  0.2110 -0.1925
   56CHL1    H6 6560   1.608   5.388   9.727  0.0696  1.4906  0.0575
   56CHL1    C7 6561   1.548   5.410   9.517  0.7942 -0.3955 -0.2780
   56CHL1   H7A 6562   1.657   5.425   9.501  0.9244  1.0048  1.5214
   56CHL1   H7B 6563   1.526   5.307   9.481 -0.4167 -0.4153  0.4867
   56CHL1    C8 6564   1.472   5.514   9.420 -0.0001  1.2677 -0.8323
   56CHL1    H8 6565   1.521   5.613   9.420 -3.1457  2.9913 -2.9253
   56CHL1   C14 6566   1.478   5.458   9.273 -0.5879  0.0254 -0.1358
   56CHL1   H14 6567   1.419   5.364   9.279  0.9439 -0.9883 -0.3966
   56CHL1   C15 6568   1.605   5.413   9.208  0.4213  0.1018  0.3362
   56CHL1  H15A 6569   1.694   5.480   9.206  0.7190 -0.1852  2.1198
   56CHL1  H15B 6570   1.648   5.320   9.252  1.2539  0.5494  0.4928
   56CHL1   C16 6571   1.560   5.390   9.061 -0.2785 -0.9794 -0.1896
   56CHL1  H16A 6572   1.625   5.447   8.991  0.6759 -1.5745  0.1948
   56CHL1  H16B 6573   1.555   5.280   9.042  1.0876 -1.2488  0.8927
   56CHL1   C17 6574   1.408   5.453   9.048 -0.6265 -0.0896 -0.6279
   56CHL1   H17 6575   1.345   5.363   9.064  1.2159 -0.9825  2.4846
   56CHL1   C13 6576   1.392   5.539   9.176 -0.0022 -0.1785 -1.0465
   56CHL1   C18 6577   1.456   5.676   9.157 -0.4327 -0.2116 -0.5201
   56CHL1  H18A 6578   1.550   5.658   9.101 -0.0096  0.7734 -0.1413
   56CHL1  H18B 6579   1.388   5.739   9.095  1.5711  2.5278 -0.1089
   56CHL1  H18C 6580   1.477   5.720   9.257  0.4951 -0.6604 -0.5046
   56CHL1   C12 6581   1.246   5.544   9.230  0.1659  0.5419 -0.0908
   56CHL1  H12A 6582   1.176   5.600   9.165  0.3151 -0.6088 -1.3002
   56CHL1  H12B 6583   1.218   5.437   9.234  0.7825  0.3216 -1.1212
   56CHL1   C11 6584   1.235   5.597   9.375  0.5411 -0.1003  0.4098
   56CHL1  H11A 6585   1.270   5.702   9.366  0.2422 -0.1929 -2.7693
   56CHL1  H11B 6586   1.127   5.594   9.400 -0.0155  2.8511 -1.1048
   56CHL1    C9 6587   1.331   5.521   9.468 -0.1209  0.9408  0.0861
   56CHL1    H9 6588   1.291   5.417   9.463  2.0196  0.0971 -0.3194
   56CHL1   C10 6589   1.317   5.566   9.616  0.4579  0.4284  0.6925
   56CHL1   C19 6590   1.316   5.722   9.617  1.0674 -0.4829  0.3257
   56CHL1  H19A 6591   1.335   5.763   9.719 -1.6375  0.2083  0.6212
   56CHL1  H19B 6592   1.401   5.754   9.553  1.0723 -0.0063  0.5664
   56CHL1  H19C 6593   1.223   5.761   9.571  0.9601 -2.9246 -1.7019
   56CHL1    C1 6594   1.177   5.519   9.677  0.4289 -0.4036  0.5314
   56CHL1   H1A 6595   1.089   5.564   9.627  1.8105 -0.0341 -1.6998
   56CHL1   H1B 6596   1.178   5.408   9.664 -1.5250 -0.4169  0.1495
   56CHL1    C2 6597   1.170   5.551   9.826  0.2139 -1.0037 -0.1794
   56CHL1   H2A 6598   1.069   5.517   9.857 -0.5292  2.4040  1.5747
   56CHL1   H2B 6599   1.169   5.661   9.840  0.8693 -0.8810 -1.0556
   56CHL1   C20 6600   1.386   5.506   8.906  0.8510  0.7796  0.2345
   56CHL1   H20 6601   1.457   5.588   8.881  1.9797 -0.3794 -0.4574
   56CHL1   C21 6602   1.246   5.576   8.892 -0.4099 -0.2112 -0.3377
   56CHL1  H21A 6603   1.239   5.659   8.966  0.5642  0.3275 -0.8295
   56CHL1  H21B 6604   1.167   5.501   8.911  0.4510 -0.8967  0.6339
   56CHL1  H21C 6605   1.231   5.614   8.789 -0.2048 -0.5980 -0.5121
   56CHL1   C22 6606   1.409   5.398   8.795 -0.2947  0.4215 -0.3181
   56CHL1  H22A 6607   1.508   5.351   8.813 -0.3984 -0.2430 -1.3913
   56CHL1  H22B 6608   1.347   5.308   8.814  1.2627 -0.6801 -0.2788
   56CHL1   C23 6609   1.404   5.456   8.656 -0.4946  0.1004  0.6268
   56CHL1  H23A 6610   1.299   5.482   8.629 -0.2697 -0.5416 -0.9727
   56CHL1  H23B 6611   1.466   5.546   8.637  1.7356 -1.7083 -1.2541
   56CHL1   C24 6612   1.469   5.359   8.553  0.5721 -0.1257  0.3594
   56CHL1  H24A 6613   1.565   5.320   8.593 -0.4876 -1.2745  1.9235
   56CHL1  H24B 6614   1.408   5.270   8.529  1.6050 -0.0773 -2.9478
   56CHL1   C25 6615   1.505   5.416   8.418 -0.4493  0.9029  0.0581
   56CHL1   H25 6616   1.591   5.484   8.436  1.2473 -0.5649 -1.8738
   56CHL1   C26 6617   1.552   5.301   8.323  0.2723 -0.1123 -0.3467
   56CHL1  H26A 6618   1.479   5.217   8.321 -0.5003  0.5404 -0.3005
   56CHL1  H26B 6619   1.572   5.338   8.220 -0.3496 -0.6106 -0.6600
   56CHL1  H26C 6620   1.638   5.249   8.370  0.7266  3.3424  3.2070
   56CHL1   C27 6621   1.387   5.493   8.358  0.1724 -0.3067 -0.5080
   56CHL1  H27A 6622   1.360   5.575   8.428 -4.2322 -2.8974  1.2226
   56CHL1  H27B 6623   1.425   5.538   8.263  0.8354 -2.2445 -1.2128
   56CHL1  H27C 6624   1.299   5.431   8.331 -0.7668  0.4034  0.8175
   57CHL1    C3 6625   3.637   0.085  10.075  0.4354 -0.2555 -0.6932
   57CHL1    H3 6626   3.565   0.000  10.079  0.2127 -0.1794 -2.1880
   57CHL1    O3 6627   3.650   0.136  10.203  0.6966  0.4875 -0.3411
   57CHL1   H3' 6628   3.704   0.214  10.187  0.7716  1.1289  2.4464
   57CHL1    C4 6629   3.776   0.027  10.028  0.2242 -0.0181  0.6668
   57CHL1   H4A 6630   3.862   0.086  10.065 -0.1434 -0.2985  2.0497
   57CHL1   H4B 6631   3.791  -0.069  10.082 -1.6963 -1.5750 -1.3754
   57CHL1    C5 6632   3.787  -0.004   9.879  0.4946 -0.4872  0.1749
   57CHL1    C6 6633   3.836  -0.112   9.819 -0.1279 -0.5530  1.2458
   57CHL1    H6 6634   3.873  -0.195   9.881 -0.5434 -2.3314 -0.7548
   57CHL1    C7 6635   3.863  -0.126   9.669  0.9880  0.2746  0.8755
   57CHL1   H7A 6636   3.969  -0.158   9.660 -0.4419 -5.0720 -0.4293
   57CHL1   H7B 6637   3.808  -0.216   9.632  0.8165  1.3539 -1.6321
   57CHL1    C8 6638   3.830   0.001   9.577 -0.2577  0.3620 -0.6323
   57CHL1    H8 6639   3.927   0.055   9.586  0.3319 -0.7020 -0.4440
   57CHL1   C14 6640   3.804  -0.044   9.433  0.3850  0.5032  0.2814
   57CHL1   H14 6641   3.704  -0.093   9.430 -0.1614  1.6271 -0.7607
   57CHL1   C15 6642   3.913  -0.141   9.381 -0.6219  0.1001  0.1599
   57CHL1  H15A 6643   4.013  -0.097   9.404 -0.1463 -1.2660  0.8454
   57CHL1  H15B 6644   3.916  -0.241   9.431 -0.6645 -0.4844 -0.9849
   57CHL1   C16 6645   3.886  -0.139   9.232  0.6779  0.0808  0.5683
   57CHL1  H16A 6646   3.977  -0.108   9.175 -0.1421  0.8042 -0.3914
   57CHL1  H16B 6647   3.841  -0.231   9.188 -0.7476  1.2131 -0.4323
   57CHL1   C17 6648   3.788  -0.011   9.210 -0.3866 -0.2811 -0.0811
   57CHL1   H17 6649   3.687  -0.057   9.209 -1.4477  1.8744  1.0330
   57CHL1   C13 6650   3.794   0.077   9.335  0.8497 -0.0623 -0.5179
   57CHL1   C18 6651   3.913   0.168   9.333 -0.1479 -0.1576  0.1537
   57CHL1  H18A 6652   3.992   0.124   9.267 -1.2961  2.3682 -3.1866
   57CHL1  H18B 6653   3.891   0.260   9.275  1.4657 -0.2341 -0.6556
   57CHL1  H18C 6654   3.970   0.189   9.426  1.6026  2.0028 -1.2947
   57CHL1   C12 6655   3.669   0.154   9.393 -0.0518  0.4618 -0.1789
   57CHL1  H12A 6656   3.647   0.233   9.318 -1.5475  0.1901 -0.0563
   57CHL1  H12B 6657   3.579   0.090   9.383 -1.3538  1.3806  3.8578
   57CHL1   C11 6658   3.686   0.202   9.537 -0.3882 -0.8631 -0.3824
   57CHL1  H11A 6659   3.761   0.283   9.539  1.4504 -2.5147  1.7850
   57CHL1  H11B 6660   3.583   0.242   9.553 -0.8007 -0.2245 -3.7569
   57CHL1    C9 6661   3.720   0.089   9.634  0.0892  0.6790 -0.4217
   57CHL1    H9 6662   3.634   0.019   9.628 -0.7028  1.7693 -3.3129
   57CHL1   C10 6663   3.726   0.117   9.786  0.1249  0.1863  0.0712
   57CHL1   C19 6664   3.817   0.241   9.794  0.6540  0.0306 -0.1019
   57CHL1  H19A 6665   3.914   0.235   9.740 -0.0770  2.9452 -1.9991
   57CHL1  H19B 6666   3.769   0.334   9.757 -2.5103 -0.4997  2.2340
   57CHL1  H19C 6667   3.840   0.252   9.902  2.9366  1.6478 -0.6804
   57CHL1    C1 6668   3.586   0.155   9.834 -0.5970 -0.2614  0.2516
   57CHL1   H1A 6669   3.565   0.245   9.772  1.4548  0.9187  1.1741
   57CHL1   H1B 6670   3.517   0.072   9.806 -0.5860  0.4550 -2.1447
   57CHL1    C2 6671   3.582   0.200   9.984 -0.3939  0.0417  0.2844
   57CHL1   H2A 6672   3.476   0.213  10.017 -1.6305 -2.6067 -2.2278
   57CHL1   H2B 6673   3.651   0.285  10.002  0.1939 -0.0483 -1.3724
   57CHL1   C20 6674   3.811   0.054   9.073  0.7403  0.3400 -0.2708
   57CHL1   H20 6675   3.911   0.101   9.072  0.1276  1.6632 -0.7316
   57CHL1   C21 6676   3.706   0.161   9.040 -0.5510 -0.9512  0.0952
   57CHL1  H21A 6677   3.716   0.253   9.101 -1.7740 -0.7351  0.0139
   57CHL1  H21B 6678   3.606   0.113   9.040 -0.7469 -0.5990  1.8452
   57CHL1  H21C 6679   3.714   0.184   8.931  0.6047 -0.6363  0.2365
   57CHL1   C22 6680   3.816  -0.040   8.945  0.0219 -0.0237 -0.4724
   57CHL1  H22A 6681   3.826   0.028   8.857  0.2172  0.0762 -0.3723
   57CHL1  H22B 6682   3.911  -0.096   8.953  0.4294  0.7832  0.5766
   57CHL1   C23 6683   3.693  -0.130   8.923 -0.3694 -0.2968 -0.3568
   57CHL1  H23A 6684   3.692  -0.214   8.995 -1.1180  0.9568  1.1665
   57CHL1  H23B 6685   3.595  -0.079   8.936 -1.1188 -1.6719 -0.4727
   57CHL1   C24 6686   3.682  -0.185   8.785 -0.1327  0.1326  0.1166
   57CHL1  H24A 6687   3.781  -0.221   8.751  0.8724  0.5517  2.4579
   57CHL1  H24B 6688   3.611  -0.271   8.782 -0.6916  0.5395  1.1151
   57CHL1   C25 6689   3.636  -0.087   8.678 -0.4217 -0.6423 -0.1653
   57CHL1   H25 6690   3.699   0.004   8.682 -0.5902 -0.4555 -1.3360
   57CHL1   C26 6691   3.663  -0.149   8.541  0.4018 -0.5085  0.8925
   57CHL1  H26A 6692   3.610  -0.246   8.547  1.2459 -0.8982  3.3301
   57CHL1  H26B 6693   3.628  -0.092   8.453  3.3358 -1.3412 -0.9846
   57CHL1  H26C 6694   3.771  -0.166   8.520  0.0211 -0.8786 -0.9669
   57CHL1   C27 6695   3.492  -0.047   8.694 -0.0283  0.0311  0.2200
   57CHL1  H27A 6696   3.457   0.024   8.615 -3.5334 -0.5739  1.0578
   57CHL1  H27B 6697   3.427  -0.137   8.691 -1.0585  0.7738 -2.5915
   57CHL1  H27C 6698   3.474   0.005   8.791 -0.3273  0.7641 -0.2215
   58CHL1    C3 6699   5.943   5.624  10.044 -0.0711  0.5323  0.0275
   58CHL1    H3 6700   5.944   5.521  10.086  4.5996  0.4632  0.2606
   58CHL1    O3 6701   5.977   5.696  10.157  0.0439 -1.0251  0.3730
   58CHL1   H3' 6702   5.896   5.698  10.207 -0.1458 -0.0614  0.0559
   58CHL1    C4 6703   6.056   5.639   9.948  0.4407 -0.3567  0.4729
   58CHL1   H4A 6704   6.063   5.749   9.938  0.0155 -0.2475  1.2109
   58CHL1   H4B 6705   6.148   5.596   9.994 -0.1904 -1.6677  0.5694
   58CHL1    C5 6706   6.031   5.572   9.812  0.2420 -0.1801 -0.2310
   58CHL1    C6 6707   6.112   5.476   9.768 -0.2072 -0.4871 -0.0600
   58CHL1    H6 6708   6.204   5.458   9.826  0.9748  0.8540 -1.4117
   58CHL1    C7 6709   6.102   5.411   9.634 -0.2342  0.0746 -0.1503
   58CHL1   H7A 6710   6.196   5.406   9.575  0.1607  0.4826  0.4381
   58CHL1   H7B 6711   6.071   5.305   9.649 -2.1989  0.5772 -0.3225
   58CHL1    C8 6712   5.999   5.484   9.534 -0.1401  0.5594 -0.1835
   58CHL1    H8 6713   6.041   5.585   9.513  4.3074 -1.0504 -0.1178
   58CHL1   C14 6714   5.967   5.395   9.414 -0.2688 -0.8752  0.7231
   58CHL1   H14 6715   5.937   5.294   9.449  1.1874 -1.1686  1.2132
   58CHL1   C15 6716   6.088   5.363   9.319  0.2032 -0.8772  0.0751
   58CHL1  H15A 6717   6.142   5.458   9.301 -1.5030 -0.1022 -1.2189
   58CHL1  H15B 6718   6.167   5.300   9.367  0.6096  0.3139  1.0045
   58CHL1   C16 6719   6.021   5.311   9.194  1.0023  0.0537  0.5755
   58CHL1  H16A 6720   6.079   5.326   9.100 -0.7779  0.3264 -0.5333
   58CHL1  H16B 6721   6.027   5.201   9.205  2.7487 -0.1002 -1.3410
   58CHL1   C17 6722   5.867   5.350   9.194  0.0773 -0.7125  0.2897
   58CHL1   H17 6723   5.804   5.265   9.229 -0.9079 -0.0765  0.0902
   58CHL1   C13 6724   5.863   5.453   9.316  0.4940  0.7228  0.1058
   58CHL1   C18 6725   5.894   5.595   9.255 -0.1511 -0.4319  0.5605
   58CHL1  H18A 6726   5.928   5.669   9.330  1.4438  1.8888 -2.2585
   58CHL1  H18B 6727   5.972   5.577   9.178 -1.8069  0.7421 -1.5125
   58CHL1  H18C 6728   5.802   5.631   9.204 -1.0745 -4.3024 -0.8849
   58CHL1   C12 6729   5.737   5.464   9.401  0.1634 -0.6655  0.0842
   58CHL1  H12A 6730   5.652   5.497   9.339 -0.3494 -1.5045  0.3295
   58CHL1  H12B 6731   5.707   5.368   9.448 -0.6897 -0.0901  0.7485
   58CHL1   C11 6732   5.753   5.563   9.523  0.9813 -0.1224  0.5760
   58CHL1  H11A 6733   5.770   5.663   9.478  0.0483 -0.0478  0.3576
   58CHL1  H11B 6734   5.651   5.556   9.568  1.0850 -1.8362  0.6389
   58CHL1    C9 6735   5.869   5.517   9.617  0.1521 -0.4951 -0.2280
   58CHL1    H9 6736   5.836   5.418   9.654 -0.3604 -1.0684 -2.1171
   58CHL1   C10 6737   5.902   5.609   9.742  0.2242  0.0824  0.1822
   58CHL1   C19 6738   5.911   5.762   9.699 -0.5459  0.4930 -0.3740
   58CHL1  H19A 6739   5.820   5.797   9.646 -1.1222  1.9361  1.4427
   58CHL1  H19B 6740   5.912   5.822   9.793  0.6847 -1.9648  1.2916
   58CHL1  H19C 6741   6.009   5.769   9.648  0.0803 -0.3206  0.6798
   58CHL1    C1 6742   5.783   5.591   9.843 -0.1711 -0.3444  0.2721
   58CHL1   H1A 6743   5.689   5.634   9.801  0.3876  0.9602  0.3064
   58CHL1   H1B 6744   5.763   5.485   9.870 -0.2120 -0.6998 -1.0989
   58CHL1    C2 6745   5.805   5.668   9.979 -0.2579  0.2799  1.2004
   58CHL1   H2A 6746   5.724   5.629  10.045 -3.0642  2.3655 -0.7796
   58CHL1   H2B 6747   5.792   5.778   9.971 -1.9440  0.0042 -0.6902
   58CHL1   C20 6748   5.812   5.385   9.059  0.1848 -0.2626 -0.2757
   58CHL1   H20 6749   5.844   5.484   9.019 -1.2893  1.0185  1.5352
   58CHL1   C21 6750   5.660   5.405   9.077 -0.5825  0.3880 -0.2334
   58CHL1  H21A 6751   5.602   5.413   8.982 -0.3817 -0.2012 -0.4069
   58CHL1  H21B 6752   5.644   5.498   9.136 -2.7073 -0.8455  1.2651
   58CHL1  H21C 6753   5.617   5.323   9.138 -2.2897  1.4650  0.0882
   58CHL1   C22 6754   5.839   5.279   8.946  0.0349  0.3970  0.3175
   58CHL1  H22A 6755   5.810   5.322   8.848  0.0385 -0.5839 -0.1254
   58CHL1  H22B 6756   5.947   5.274   8.922 -0.0583  0.5562 -0.1566
   58CHL1   C23 6757   5.754   5.147   8.956 -0.4587  0.2109 -0.5182
   58CHL1  H23A 6758   5.749   5.127   9.065 -0.1342  1.4123 -0.2631
   58CHL1  H23B 6759   5.655   5.183   8.921 -1.3800 -0.8274  0.9384
   58CHL1   C24 6760   5.813   5.027   8.883 -0.5221  1.2190  0.7378
   58CHL1  H24A 6761   5.921   5.041   8.907 -0.0830 -0.5608 -0.0765
   58CHL1  H24B 6762   5.762   4.933   8.912  2.6857 -0.3209  1.9427
   58CHL1   C25 6763   5.796   5.032   8.728  0.8730  0.5616 -0.9196
   58CHL1   H25 6764   5.824   5.136   8.700 -1.6284  1.3295 -0.8104
   58CHL1   C26 6765   5.896   4.938   8.658 -0.5671 -0.1157 -0.2433
   58CHL1  H26A 6766   5.995   4.960   8.703  1.2905 -1.8613 -3.1331
   58CHL1  H26B 6767   5.867   4.831   8.672 -1.7532  0.4738  2.4056
   58CHL1  H26C 6768   5.910   4.958   8.549 -0.6850  4.7647  0.4128
   58CHL1   C27 6769   5.653   5.004   8.679  0.0112  0.1720 -0.5667
   58CHL1  H27A 6770   5.648   5.024   8.570  0.1600 -0.1726 -0.6388
   58CHL1  H27B 6771   5.609   4.903   8.694 -1.1312  0.6617 -0.4733
   58CHL1  H27C 6772   5.574   5.072   8.719 -0.7610 -0.9673 -0.1038
   59CHL1    C3 6773   6.683   4.362  10.111 -0.5871 -0.5471 -0.0787
   59CHL1    H3 6774   6.785   4.325  10.089  0.5332  3.2319 -2.0321
   59CHL1    O3 6775   6.671   4.357  10.253  0.0305  0.0654 -0.6318
   59CHL1   H3' 6776   6.737   4.421  10.281 -0.8993  1.2293 -1.0214
   59CHL1    C4 6777   6.658   4.508  10.049  0.6453  0.7360  0.4656
   59CHL1   H4A 6778   6.554   4.535  10.075 -0.4054 -1.3844 -1.2083
   59CHL1   H4B 6779   6.728   4.582  10.094  1.8505  0.8652 -1.4553
   59CHL1    C5 6780   6.675   4.496   9.895 -0.1464 -0.3289 -0.2999
   59CHL1    C6 6781   6.764   4.573   9.827  0.2643 -0.0304 -0.5032
   59CHL1    H6 6782   6.827   4.638   9.889 -0.8004  0.8057 -0.2709
   59CHL1    C7 6783   6.779   4.570   9.678  0.0201  0.2892 -1.1746
   59CHL1   H7A 6784   6.817   4.666   9.636  1.0607 -0.7944 -2.8125
   59CHL1   H7B 6785   6.867   4.506   9.659  0.6771  0.9896 -0.5456
   59CHL1    C8 6786   6.657   4.507   9.603 -0.4232  0.1670  0.1819
   59CHL1    H8 6787   6.565   4.569   9.609 -2.9154 -3.2180 -0.5121
   59CHL1   C14 6788   6.692   4.485   9.456 -0.0194  0.2140  0.7156
   59CHL1   H14 6789   6.776   4.412   9.459 -0.0593  0.1925  1.9351
   59CHL1   C15 6790   6.751   4.598   9.366  0.8594 -0.2895  0.8476
   59CHL1  H15A 6791   6.701   4.696   9.381  0.4302 -0.2282 -0.8137
   59CHL1  H15B 6792   6.861   4.613   9.379  0.9083  0.6146 -0.3987
   59CHL1   C16 6793   6.720   4.548   9.224 -0.6671 -0.6884 -0.0371
   59CHL1  H16A 6794   6.657   4.623   9.171  0.8665  0.3596 -0.4434
   59CHL1  H16B 6795   6.818   4.543   9.173 -0.3788 -3.2919  0.6660
   59CHL1   C17 6796   6.654   4.407   9.237  0.7808  0.0855  0.1264
   59CHL1   H17 6797   6.734   4.330   9.243  0.0340 -0.7864 -0.8540
   59CHL1   C13 6798   6.580   4.413   9.376 -0.8311  1.0687 -0.6321
   59CHL1   C18 6799   6.450   4.498   9.358 -0.1123  0.0794 -0.8995
   59CHL1  H18A 6800   6.392   4.444   9.279 -0.7323 -0.8682  0.1765
   59CHL1  H18B 6801   6.394   4.513   9.453 -0.6407  0.1878 -1.2211
   59CHL1  H18C 6802   6.473   4.598   9.317 -1.6231  1.6848  1.8750
   59CHL1   C12 6803   6.544   4.274   9.452  0.5021  0.1251  0.3206
   59CHL1  H12A 6804   6.459   4.213   9.415  0.5896 -0.4778  1.0902
   59CHL1  H12B 6805   6.638   4.214   9.457  1.1962  1.2253  0.8491
   59CHL1   C11 6806   6.503   4.297   9.598  0.0074  0.6100  0.0614
   59CHL1  H11A 6807   6.415   4.364   9.587  0.6643  1.2564 -1.7516
   59CHL1  H11B 6808   6.481   4.196   9.638  2.8546 -0.1858 -0.1637
   59CHL1    C9 6809   6.615   4.374   9.670  0.2772  0.0556 -0.0019
   59CHL1    H9 6810   6.707   4.311   9.669  1.4693  1.7281 -0.2173
   59CHL1   C10 6811   6.584   4.395   9.827 -0.2965  0.1713 -0.0600
   59CHL1   C19 6812   6.439   4.447   9.831  0.3476  0.9567  0.4591
   59CHL1  H19A 6813   6.416   4.535   9.767 -0.8413  0.2093 -0.1650
   59CHL1  H19B 6814   6.358   4.375   9.807  1.8677 -1.6005  2.4344
   59CHL1  H19C 6815   6.414   4.493   9.929  0.6400  1.7904  0.1507
   59CHL1    C1 6816   6.593   4.259   9.896  0.7950  0.3488 -0.1117
   59CHL1   H1A 6817   6.511   4.189   9.867 -0.8335  1.8954  0.5400
   59CHL1   H1B 6818   6.688   4.204   9.881 -0.2634 -1.5989 -0.0784
   59CHL1    C2 6819   6.570   4.275  10.050 -0.6486  0.7216 -0.1611
   59CHL1   H2A 6820   6.575   4.169  10.083 -3.2612  0.4287 -0.5119
   59CHL1   H2B 6821   6.468   4.307  10.080 -1.9962 -2.4603 -0.9555
   59CHL1   C20 6822   6.580   4.364   9.110 -0.4187 -0.2000 -0.0709
   59CHL1   H20 6823   6.495   4.432   9.088 -1.3863 -1.1371  0.6751
   59CHL1   C21 6824   6.546   4.221   9.131 -0.4941  0.3797  0.4968
   59CHL1  H21A 6825   6.617   4.146   9.173 -0.5793 -0.6682 -1.1263
   59CHL1  H21B 6826   6.512   4.180   9.033 -1.2624 -0.0586  0.9287
   59CHL1  H21C 6827   6.453   4.202   9.189 -0.0264 -0.9295  0.8828
   59CHL1   C22 6828   6.674   4.380   8.983 -0.6784  0.3490 -0.7310
   59CHL1  H22A 6829   6.702   4.488   8.975  1.2886  0.0454  1.1129
   59CHL1  H22B 6830   6.770   4.331   9.012 -0.3567  0.9725 -0.7016
   59CHL1   C23 6831   6.618   4.319   8.855 -0.0264 -0.0203 -0.3155
   59CHL1  H23A 6832   6.623   4.208   8.859  2.3861  0.0751  0.9372
   59CHL1  H23B 6833   6.511   4.350   8.850 -0.6666 -1.4450  2.6090
   59CHL1   C24 6834   6.708   4.364   8.739 -0.3314  0.4437 -0.3858
   59CHL1  H24A 6835   6.724   4.474   8.744 -0.2900  0.4540 -0.7607
   59CHL1  H24B 6836   6.808   4.316   8.749 -1.1690 -1.2477  0.3022
   59CHL1   C25 6837   6.655   4.338   8.597  0.1634 -0.9417  0.4271
   59CHL1   H25 6838   6.633   4.232   8.572 -0.5340 -0.6935 -0.0506
   59CHL1   C26 6839   6.526   4.407   8.571  0.3861  0.3964  0.7361
   59CHL1  H26A 6840   6.478   4.383   8.474  0.6124 -0.5377  0.8421
   59CHL1  H26B 6841   6.451   4.393   8.652 -0.9768  1.3952 -0.3044
   59CHL1  H26C 6842   6.542   4.517   8.569 -2.2996  0.8578 -0.6066
   59CHL1   C27 6843   6.760   4.386   8.502 -0.1387  0.2841  0.4510
   59CHL1  H27A 6844   6.854   4.329   8.516 -0.4147 -0.0052  1.1492
   59CHL1  H27B 6845   6.734   4.373   8.395  0.4080 -2.3997  0.5756
   59CHL1  H27C 6846   6.780   4.494   8.517  0.6022  0.0885  0.9106
   60CHL1    C3 6847   4.972   3.857  10.271 -0.0508  0.0745 -0.6614
   60CHL1    H3 6848   4.863   3.844  10.285 -0.1016  0.8304 -0.2785
   60CHL1    O3 6849   5.042   3.817  10.388 -0.7061  0.0806  0.2699
   60CHL1   H3' 6850   5.128   3.859  10.386 -0.2993 -0.6858  0.9828
   60CHL1    C4 6851   5.024   3.778  10.147  0.1316  1.1892 -0.2722
   60CHL1   H4A 6852   5.132   3.792  10.129  0.5440 -0.8961  0.2874
   60CHL1   H4B 6853   5.021   3.669  10.170  0.7867  1.3745  0.7274
   60CHL1    C5 6854   4.950   3.811  10.017 -0.9853 -0.6588 -0.2387
   60CHL1    C6 6855   4.893   3.723   9.940  0.0777  0.8311  0.4346
   60CHL1    H6 6856   4.897   3.619   9.976 -1.7570  1.4117  2.5058
   60CHL1    C7 6857   4.842   3.746   9.803  0.1085 -0.6659  0.3061
   60CHL1   H7A 6858   4.869   3.666   9.730  2.4726  0.2236  0.1265
   60CHL1   H7B 6859   4.731   3.747   9.813  0.1335 -0.1695  0.5663
   60CHL1    C8 6860   4.887   3.890   9.753 -0.0129  0.2384 -0.7960
   60CHL1    H8 6861   4.996   3.884   9.732 -0.6719 -2.7030 -4.2630
   60CHL1   C14 6862   4.813   3.941   9.625  0.2681 -0.3198 -0.7238
   60CHL1   H14 6863   4.707   3.950   9.657  0.4442  2.5564 -0.6325
   60CHL1   C15 6864   4.825   3.846   9.501  0.1505 -0.3373 -0.1715
   60CHL1  H15A 6865   4.923   3.795   9.494  0.5376  0.3804 -0.0649
   60CHL1  H15B 6866   4.748   3.768   9.522  1.9528 -2.1902 -0.0850
   60CHL1   C16 6867   4.782   3.941   9.388 -0.2263  0.0267 -0.4838
   60CHL1  H16A 6868   4.868   3.931   9.319  0.7731 -0.5295  0.7947
   60CHL1  H16B 6869   4.691   3.903   9.337  1.0624 -1.4883 -1.7694
   60CHL1   C17 6870   4.771   4.088   9.446  0.5522  0.7180  0.3882
   60CHL1   H17 6871   4.667   4.091   9.484  0.7414 -1.4652  1.2875
   60CHL1   C13 6872   4.856   4.081   9.576 -0.1301  0.0376 -0.8153
   60CHL1   C18 6873   5.009   4.077   9.546  0.3463 -0.7370  0.2820
   60CHL1  H18A 6874   5.033   3.991   9.480 -2.2778 -1.6824  0.4392
   60CHL1  H18B 6875   5.037   4.173   9.496  0.1189 -0.5612  0.4867
   60CHL1  H18C 6876   5.079   4.085   9.631  1.7353  0.1231 -0.8963
   60CHL1   C12 6877   4.818   4.184   9.684 -0.4706 -0.6336  0.3294
   60CHL1  H12A 6878   4.853   4.278   9.637 -2.1414 -1.8746 -3.8135
   60CHL1  H12B 6879   4.708   4.182   9.698 -0.5738 -2.8361 -0.3901
   60CHL1   C11 6880   4.881   4.146   9.821  0.7901  0.6057  0.6572
   60CHL1  H11A 6881   4.988   4.172   9.810  1.1496 -1.0000  0.2497
   60CHL1  H11B 6882   4.842   4.211   9.903 -1.1076  0.6739 -0.2353
   60CHL1    C9 6883   4.864   3.990   9.868 -0.5810 -0.1137 -0.2752
   60CHL1    H9 6884   4.761   3.978   9.909 -1.1617  0.8489 -1.3848
   60CHL1   C10 6885   4.963   3.963   9.985 -0.4599  0.1719 -0.5416
   60CHL1   C19 6886   5.114   3.989   9.936  0.2281 -0.0560  0.8725
   60CHL1  H19A 6887   5.138   4.082   9.880 -0.0869 -1.0468 -0.9902
   60CHL1  H19B 6888   5.179   3.989  10.026  0.5169  1.4950  0.6949
   60CHL1  H19C 6889   5.149   3.907   9.869  1.9901  1.9780 -0.8470
   60CHL1    C1 6890   4.934   4.047  10.109  0.6200  0.3961  0.2393
   60CHL1   H1A 6891   4.974   4.146  10.078  0.8886 -0.2600 -1.6338
   60CHL1   H1B 6892   4.824   4.055  10.120 -0.0138 -2.2527 -2.7374
   60CHL1    C2 6893   4.996   4.009  10.241 -0.1026  0.1385 -0.4735
   60CHL1   H2A 6894   4.946   4.062  10.325 -0.0239  0.8107 -0.8406
   60CHL1   H2B 6895   5.106   4.025  10.248  0.3967 -2.5135 -1.2144
   60CHL1   C20 6896   4.788   4.208   9.354 -0.2221  1.0167  0.3667
   60CHL1   H20 6897   4.895   4.239   9.361  0.6888 -1.6915 -0.2031
   60CHL1   C21 6898   4.708   4.337   9.405 -0.2926  0.1995  0.2727
   60CHL1  H21A 6899   4.736   4.426   9.343 -2.7717  1.5268  0.9383
   60CHL1  H21B 6900   4.737   4.361   9.510  1.2482 -0.1231 -0.0504
   60CHL1  H21C 6901   4.601   4.313   9.390 -0.7785  2.5966 -0.4931
   60CHL1   C22 6902   4.770   4.181   9.204 -0.2878 -1.0978  0.2862
   60CHL1  H22A 6903   4.847   4.110   9.168  1.5389  0.9144 -0.0301
   60CHL1  H22B 6904   4.672   4.135   9.182 -1.1866  1.1249 -0.7139
   60CHL1   C23 6905   4.781   4.302   9.108 -0.6008  0.0959  0.1340
   60CHL1  H23A 6906   4.697   4.371   9.134 -0.2356  0.9104 -0.7928
   60CHL1  H23B 6907   4.864   4.370   9.139 -1.2989  2.0319 -1.9585
   60CHL1   C24 6908   4.800   4.273   8.963  0.1422 -0.4578  0.0589
   60CHL1  H24A 6909   4.897   4.219   8.956  0.2149 -0.6146  1.8351
   60CHL1  H24B 6910   4.730   4.200   8.916 -0.7352  1.8621 -2.4848
   60CHL1   C25 6911   4.802   4.398   8.872 -0.7107  0.1474 -0.9172
   60CHL1   H25 6912   4.861   4.475   8.927 -0.2267  0.8392 -2.3459
   60CHL1   C26 6913   4.867   4.379   8.736  0.2126  0.2405  0.5638
   60CHL1  H26A 6914   4.974   4.349   8.737  0.1557 -0.3387 -2.4767
   60CHL1  H26B 6915   4.809   4.298   8.686  1.3809  0.9052 -1.9837
   60CHL1  H26C 6916   4.849   4.468   8.673 -1.7646 -0.3594  0.2090
   60CHL1   C27 6917   4.672   4.471   8.855  0.2651  0.6131 -0.3724
   60CHL1  H27A 6918   4.685   4.568   8.803 -2.0264  0.4867 -1.2576
   60CHL1  H27B 6919   4.608   4.410   8.789  1.9972 -2.0004  0.2040
   60CHL1  H27C 6920   4.612   4.487   8.947 -2.3324 -0.4865 -1.7694
   61CHL1    C3 6921   1.973   3.726  10.472  0.6398  0.2220  0.0634
   61CHL1    H3 6922   1.904   3.786  10.408  0.8033 -2.3688 -2.7971
   61CHL1    O3 6923   1.915   3.736  10.605 -0.2613  0.3599  0.1336
   61CHL1   H3' 6924   1.881   3.826  10.605  1.6280  1.1276 -0.0043
   61CHL1    C4 6925   1.979   3.571  10.438  0.0326 -0.3148  0.7309
   61CHL1   H4A 6926   2.035   3.515  10.516  0.8035 -0.2039  0.2629
   61CHL1   H4B 6927   1.880   3.524  10.418  1.5960 -3.1834 -0.8882
   61CHL1    C5 6928   2.057   3.558  10.299 -0.3212  1.3215 -0.4399
   61CHL1    C6 6929   2.005   3.503  10.189  0.1866 -0.6839 -0.5113
   61CHL1    H6 6930   1.904   3.459  10.199 -0.0859  0.0458  0.0079
   61CHL1    C7 6931   2.075   3.477  10.062 -0.5203  0.4457  0.5077
   61CHL1   H7A 6932   2.079   3.370  10.032 -0.9704 -0.2401  2.6734
   61CHL1   H7B 6933   2.029   3.536   9.980  1.8144 -0.5087 -1.6352
   61CHL1    C8 6934   2.231   3.514  10.062  0.6777  0.1027  0.4282
   61CHL1    H8 6935   2.282   3.430  10.113  0.6812 -0.1112  0.0731
   61CHL1   C14 6936   2.274   3.534   9.922  0.4001  0.6737  0.7958
   61CHL1   H14 6937   2.221   3.624   9.884  1.3114  1.3630  1.1153
   61CHL1   C15 6938   2.248   3.422   9.812  0.8624 -0.5215 -0.3392
   61CHL1  H15A 6939   2.249   3.317   9.847 -0.2787 -0.6357 -0.6289
   61CHL1  H15B 6940   2.146   3.437   9.771  0.3099 -1.5351  0.6208
   61CHL1   C16 6941   2.352   3.461   9.705 -0.2597 -0.7935  0.4488
   61CHL1  H16A 6942   2.414   3.371   9.683  1.6819  0.7289 -0.6748
   61CHL1  H16B 6943   2.303   3.497   9.613  1.5221 -0.9971 -0.6399
   61CHL1   C17 6944   2.439   3.581   9.749 -1.1926  0.3910  0.2376
   61CHL1   H17 6945   2.386   3.673   9.717 -1.5104  0.2426  0.3324
   61CHL1   C13 6946   2.417   3.580   9.904 -0.5174 -0.8559 -0.2893
   61CHL1   C18 6947   2.502   3.462   9.959  0.0737 -0.0405  0.3498
   61CHL1  H18A 6948   2.483   3.366   9.906 -1.0797 -0.2453  1.0739
   61CHL1  H18B 6949   2.604   3.505   9.955 -0.8333  2.2415  0.5179
   61CHL1  H18C 6950   2.479   3.447  10.067 -1.0584  1.2003  0.3100
   61CHL1   C12 6951   2.440   3.704   9.978 -0.7049 -0.1977 -0.6233
   61CHL1  H12A 6952   2.550   3.721   9.978 -0.8222  1.3852 -4.4555
   61CHL1  H12B 6953   2.396   3.797   9.936  0.0691  0.3191 -0.3224
   61CHL1   C11 6954   2.399   3.700  10.130  0.5150 -0.1086 -0.3364
   61CHL1  H11A 6955   2.465   3.641  10.196 -2.3460  1.0895  4.0248
   61CHL1  H11B 6956   2.395   3.800  10.178 -2.0217 -0.0190 -0.5642
   61CHL1    C9 6957   2.253   3.645  10.143  0.6779 -0.1181  0.1290
   61CHL1    H9 6958   2.204   3.722  10.079  0.5120 -1.0123 -0.8574
   61CHL1   C10 6959   2.193   3.635  10.287 -0.3890 -0.0289  0.0589
   61CHL1   C19 6960   2.293   3.554  10.366  0.2941 -0.4566  1.0890
   61CHL1  H19A 6961   2.387   3.612  10.381  1.8837 -2.5097 -0.3988
   61CHL1  H19B 6962   2.256   3.536  10.469  1.8268  1.3508  2.0334
   61CHL1  H19C 6963   2.329   3.460  10.319  4.0322  0.9601  0.7923
   61CHL1    C1 6964   2.173   3.785  10.339 -0.4748 -0.2485 -0.1987
   61CHL1   H1A 6965   2.276   3.826  10.337 -0.3103 -0.5158  1.4016
   61CHL1   H1B 6966   2.103   3.841  10.274 -0.6612  4.1662  3.3028
   61CHL1    C2 6967   2.109   3.801  10.472 -0.9201  0.6784  0.5106
   61CHL1   H2A 6968   2.092   3.909  10.492 -2.6519  0.0338  2.9348
   61CHL1   H2B 6969   2.177   3.778  10.557 -2.2687  1.9620  1.9936
   61CHL1   C20 6970   2.583   3.587   9.688  0.3712  0.2700  0.2668
   61CHL1   H20 6971   2.640   3.495   9.713 -1.5004 -0.6109  1.4933
   61CHL1   C21 6972   2.668   3.703   9.733 -0.2060 -0.0960 -0.2296
   61CHL1  H21A 6973   2.626   3.802   9.703 -2.1658 -0.7972  0.0480
   61CHL1  H21B 6974   2.759   3.689   9.670 -0.4681 -0.1777 -0.5928
   61CHL1  H21C 6975   2.692   3.703   9.842  0.8625 -1.4031 -0.4360
   61CHL1   C22 6976   2.571   3.588   9.530  0.1141 -0.0481  0.6679
   61CHL1  H22A 6977   2.675   3.599   9.492  0.3324 -1.7005  0.7245
   61CHL1  H22B 6978   2.525   3.494   9.495  1.7050  0.6618 -3.9638
   61CHL1   C23 6979   2.499   3.706   9.459  0.8044 -0.7084  0.6528
   61CHL1  H23A 6980   2.399   3.727   9.503  0.4732  0.4212 -0.6049
   61CHL1  H23B 6981   2.554   3.800   9.480  0.2554  1.0002 -4.3118
   61CHL1   C24 6982   2.484   3.692   9.308 -0.3749  0.3101  0.0084
   61CHL1  H24A 6983   2.584   3.653   9.281 -0.4337 -0.4786  0.8801
   61CHL1  H24B 6984   2.412   3.612   9.280 -0.7751  0.4336  0.6597
   61CHL1   C25 6985   2.465   3.823   9.220 -0.3708  0.1219 -0.6011
   61CHL1   H25 6986   2.553   3.890   9.228 -0.7606  0.4364  1.3991
   61CHL1   C26 6987   2.464   3.795   9.066 -0.1131 -0.0403  0.4023
   61CHL1  H26A 6988   2.390   3.724   9.023  2.1530 -1.3836 -1.5252
   61CHL1  H26B 6989   2.452   3.897   9.024  1.9789 -0.3880 -1.2097
   61CHL1  H26C 6990   2.563   3.759   9.032  0.3545  1.2598  0.3567
   61CHL1   C27 6991   2.345   3.902   9.272  0.0193 -0.1330 -0.4677
   61CHL1  H27A 6992   2.363   3.946   9.372 -2.5981 -2.0924  0.9796
   61CHL1  H27B 6993   2.318   3.992   9.214 -0.4618  0.7703  1.1206
   61CHL1  H27C 6994   2.255   3.837   9.284 -0.0059 -0.0185 -0.0338
   62CHL1    C3 6995   3.071   6.120   9.903  0.7063  0.0250 -0.9143
   62CHL1    H3 6996   3.132   6.207   9.869  0.6551  0.7959  0.8839
   62CHL1    O3 6997   3.117   6.113  10.036  0.0135 -0.5172  0.1566
   62CHL1   H3' 6998   3.064   6.059  10.095 -3.0496  0.9390 -1.0634
   62CHL1    C4 6999   2.921   6.139   9.888 -0.1448 -0.1848  0.2301
   62CHL1   H4A 7000   2.869   6.053   9.934  2.3739 -1.3923  0.9851
   62CHL1   H4B 7001   2.898   6.230   9.949  1.3618  0.6024 -0.3283
   62CHL1    C5 7002   2.881   6.158   9.748 -0.0771  0.9994  0.5794
   62CHL1    C6 7003   2.806   6.255   9.705  0.4480 -0.3636 -0.2138
   62CHL1    H6 7004   2.776   6.337   9.773  1.4218 -0.2869  0.1405
   62CHL1    C7 7005   2.740   6.264   9.567  0.1477  0.4971 -0.2590
   62CHL1   H7A 7006   2.631   6.282   9.576 -0.4589 -3.0840  1.4318
   62CHL1   H7B 7007   2.782   6.357   9.521  1.4010  0.2857  0.4192
   62CHL1    C8 7008   2.776   6.143   9.481  0.4645  0.3591 -0.1349
   62CHL1    H8 7009   2.706   6.058   9.496  1.1389 -0.7146 -2.3994
   62CHL1   C14 7010   2.775   6.180   9.331 -0.9432  0.5683 -0.3509
   62CHL1   H14 7011   2.846   6.265   9.318  0.2638 -0.2881  0.3618
   62CHL1   C15 7012   2.637   6.226   9.278 -0.5779  0.3568 -0.5613
   62CHL1  H15A 7013   2.558   6.156   9.313 -1.6311  2.1978  0.9049
   62CHL1  H15B 7014   2.629   6.333   9.305  1.1187  0.7800 -1.5781
   62CHL1   C16 7015   2.649   6.207   9.127 -0.0835 -0.1415 -0.8097
   62CHL1  H16A 7016   2.555   6.166   9.084 -1.9471  2.3982  0.6137
   62CHL1  H16B 7017   2.653   6.301   9.069 -2.3204  0.8674  0.5803
   62CHL1   C17 7018   2.784   6.125   9.104 -0.5016 -0.4197 -0.6523
   62CHL1   H17 7019   2.861   6.201   9.079  1.5923 -0.9309  3.4823
   62CHL1   C13 7020   2.831   6.064   9.241  0.2196  0.1366 -0.7533
   62CHL1   C18 7021   2.744   5.940   9.270 -0.7512  0.0251 -0.2379
   62CHL1  H18A 7022   2.639   5.946   9.234 -0.1696  1.2349 -1.8401
   62CHL1  H18B 7023   2.791   5.853   9.219  1.6404  0.7638  0.5621
   62CHL1  H18C 7024   2.732   5.905   9.374 -0.8870 -2.1205 -0.9141
   62CHL1   C12 7025   2.980   6.051   9.263  0.2057  0.1124  0.3465
   62CHL1  H12A 7026   3.028   5.972   9.201 -0.6449  0.5759 -0.9293
   62CHL1  H12B 7027   3.027   6.145   9.230 -0.8189  0.3770 -0.3968
   62CHL1   C11 7028   3.005   6.013   9.404  0.0575  0.0887 -0.2733
   62CHL1  H11A 7029   2.982   5.904   9.410  1.3835 -0.1608  0.7497
   62CHL1  H11B 7030   3.115   6.014   9.418  0.2918 -1.8822 -1.5883
   62CHL1    C9 7031   2.923   6.097   9.511 -0.2792  0.1820  0.2173
   62CHL1    H9 7032   2.975   6.195   9.501 -1.7692  0.9006 -0.9898
   62CHL1   C10 7033   2.927   6.042   9.653 -0.8130 -0.3535  1.3854
   62CHL1   C19 7034   2.847   5.912   9.666 -0.0838 -0.4649 -0.3994
   62CHL1  H19A 7035   2.882   5.836   9.592 -0.0779  0.4531 -1.3621
   62CHL1  H19B 7036   2.863   5.873   9.769  0.0259 -0.1383 -0.2909
   62CHL1  H19C 7037   2.741   5.936   9.646  0.5481  1.2408 -1.9538
   62CHL1    C1 7038   3.077   6.012   9.682 -0.4348  0.6955 -0.2292
   62CHL1   H1A 7039   3.114   5.917   9.639  0.8727  0.1034  2.0431
   62CHL1   H1B 7040   3.131   6.103   9.650  0.1020  0.6759  0.5843
   62CHL1    C2 7041   3.105   5.991   9.831  0.1671 -1.0142 -0.3515
   62CHL1   H2A 7042   3.215   5.978   9.843 -0.0077 -1.0987  1.3580
   62CHL1   H2B 7043   3.059   5.894   9.860  0.0468 -1.2351 -1.2374
   62CHL1   C20 7044   2.764   6.034   8.985  0.2380 -0.1975  0.0807
   62CHL1   H20 7045   2.703   5.943   9.004  0.6126 -0.4295  0.1688
   62CHL1   C21 7046   2.897   5.965   8.938  0.1523 -0.3169  0.3345
   62CHL1  H21A 7047   2.878   5.888   8.860 -3.9382 -0.2070  0.9921
   62CHL1  H21B 7048   2.956   5.915   9.018  1.3091  0.1390 -0.2017
   62CHL1  H21C 7049   2.961   6.047   8.898  1.0028 -0.2013  1.8385
   62CHL1   C22 7050   2.704   6.104   8.863  1.1909  0.0233 -0.0610
   62CHL1  H22A 7051   2.614   6.162   8.892 -0.3321 -1.9520 -0.5654
   62CHL1  H22B 7052   2.780   6.169   8.815  1.5913 -1.9265 -2.2831
   62CHL1   C23 7053   2.674   6.003   8.746 -0.0831 -0.3251 -0.3714
   62CHL1  H23A 7054   2.769   5.965   8.703 -1.2280 -4.4054  0.2915
   62CHL1  H23B 7055   2.618   5.918   8.790 -1.7794  0.4714 -0.9234
   62CHL1   C24 7056   2.583   6.063   8.640 -0.3287  0.8898 -0.9097
   62CHL1  H24A 7057   2.554   5.986   8.565 -1.6300  0.0420  0.4124
   62CHL1  H24B 7058   2.495   6.111   8.688  0.1832  1.2769 -0.3582
   62CHL1   C25 7059   2.653   6.180   8.566  0.1074  0.3172 -0.2609
   62CHL1   H25 7060   2.672   6.259   8.642  0.2698  0.6415 -0.6338
   62CHL1   C26 7061   2.787   6.158   8.500  0.2116 -0.3487 -0.3639
   62CHL1  H26A 7062   2.782   6.054   8.462 -0.9810 -0.6246  0.5071
   62CHL1  H26B 7063   2.814   6.223   8.415 -0.9894  1.1210  0.3397
   62CHL1  H26C 7064   2.873   6.151   8.570  0.3889  0.9412 -0.4241
   62CHL1   C27 7065   2.548   6.245   8.470  0.6227  0.4944 -0.7588
   62CHL1  H27A 7066   2.520   6.157   8.408  1.5029 -0.2958 -0.0623
   62CHL1  H27B 7067   2.452   6.276   8.517  0.8240 -2.6123  2.1441
   62CHL1  H27C 7068   2.602   6.317   8.405  0.8990 -0.3497 -1.4857
   63CHL1    C3 7069   3.600   1.946  10.138  0.2704 -0.4211 -0.1145
   63CHL1    H3 7070   3.689   2.007  10.164  0.4729 -1.1388  0.9258
   63CHL1    O3 7071   3.570   1.873  10.255  0.3502 -0.6073 -0.4961
   63CHL1   H3' 7072   3.488   1.832  10.228  0.4989  0.1177 -2.2199
   63CHL1    C4 7073   3.490   2.046  10.106  0.3278 -0.5596 -0.8161
   63CHL1   H4A 7074   3.392   1.994  10.101  0.0328  0.0799 -3.1790
   63CHL1   H4B 7075   3.486   2.114  10.194  0.1438  1.9358 -2.6455
   63CHL1    C5 7076   3.502   2.117   9.975 -0.5970 -0.1607  0.1343
   63CHL1    C6 7077   3.497   2.251   9.953 -0.1256  0.0906  0.3973
   63CHL1    H6 7078   3.486   2.311  10.045 -0.7508  1.0797 -0.3040
   63CHL1    C7 7079   3.504   2.319   9.824 -0.1898 -0.2067  0.7221
   63CHL1   H7A 7080   3.449   2.415   9.813  0.6423 -0.0343 -3.9162
   63CHL1   H7B 7081   3.613   2.343   9.819 -0.4592  0.9642  0.0420
   63CHL1    C8 7082   3.493   2.221   9.704  0.3703 -0.4428  0.3510
   63CHL1    H8 7083   3.388   2.189   9.689 -0.3916  2.5019 -1.3637
   63CHL1   C14 7084   3.552   2.301   9.582 -0.4367 -0.4378  0.4422
   63CHL1   H14 7085   3.658   2.326   9.605 -0.2580  3.0903 -3.1138
   63CHL1   C15 7086   3.492   2.437   9.545 -0.3584  1.0331 -0.1292
   63CHL1  H15A 7087   3.383   2.421   9.544 -0.5691  2.2075 -1.9861
   63CHL1  H15B 7088   3.517   2.523   9.611  0.4272  1.8587 -1.4542
   63CHL1   C16 7089   3.547   2.456   9.398 -0.5168 -0.3153 -1.3237
   63CHL1  H16A 7090   3.460   2.486   9.335 -1.7365 -0.4859  0.2054
   63CHL1  H16B 7091   3.625   2.535   9.390  1.0592 -1.9669 -3.0450
   63CHL1   C17 7092   3.608   2.322   9.354 -0.3156  0.3605  0.2766
   63CHL1   H17 7093   3.718   2.334   9.360 -0.3754  0.3794  1.5051
   63CHL1   C13 7094   3.561   2.218   9.457  0.0876  0.4516  0.7941
   63CHL1   C18 7095   3.416   2.184   9.408  0.0397 -0.7005 -0.8393
   63CHL1  H18A 7096   3.410   2.123   9.315  3.1320  1.7549 -2.8845
   63CHL1  H18B 7097   3.362   2.126   9.486 -2.3983 -1.4747 -2.9919
   63CHL1  H18C 7098   3.360   2.278   9.392 -1.4347 -1.2016  0.9827
   63CHL1   C12 7099   3.636   2.082   9.476  0.2340  0.9047 -0.3611
   63CHL1  H12A 7100   3.632   2.010   9.391 -3.0786 -0.5498  0.8662
   63CHL1  H12B 7101   3.744   2.103   9.493  1.1571 -2.6160 -1.0572
   63CHL1   C11 7102   3.585   2.006   9.606 -0.0400 -0.5698  0.0373
   63CHL1  H11A 7103   3.486   1.973   9.569 -0.8987  0.6521  1.1813
   63CHL1  H11B 7104   3.649   1.915   9.616  0.3528 -0.4403 -1.1267
   63CHL1    C9 7105   3.575   2.099   9.731 -0.1694  0.3768  0.3054
   63CHL1    H9 7106   3.682   2.126   9.742 -0.0984  1.4787 -2.2749
   63CHL1   C10 7107   3.532   2.024   9.854 -0.4014  0.6277 -0.1521
   63CHL1   C19 7108   3.404   1.947   9.822 -0.3943  0.4103 -0.1226
   63CHL1  H19A 7109   3.313   2.007   9.802 -0.3714  0.6017  0.3400
   63CHL1  H19B 7110   3.413   1.874   9.739  2.8643  2.4414 -1.7824
   63CHL1  H19C 7111   3.374   1.876   9.902  0.1794  0.9821  0.6237
   63CHL1    C1 7112   3.640   1.917   9.891  0.2650 -0.0393 -0.3758
   63CHL1   H1A 7113   3.633   1.840   9.811  0.2948 -0.3628 -0.0710
   63CHL1   H1B 7114   3.745   1.951   9.882  0.1159  0.7830  0.7420
   63CHL1    C2 7115   3.621   1.839  10.023  0.5749  0.5176  0.5411
   63CHL1   H2A 7116   3.705   1.773  10.053 -1.9818 -2.1082  2.4678
   63CHL1   H2B 7117   3.524   1.785  10.015  0.9164  0.1273 -1.6240
   63CHL1   C20 7118   3.584   2.285   9.203  0.2023 -0.8068  0.3828
   63CHL1   H20 7119   3.476   2.277   9.182  0.8227 -1.6717 -3.0375
   63CHL1   C21 7120   3.639   2.149   9.159  0.5969  0.6153 -0.5899
   63CHL1  H21A 7121   3.649   2.128   9.050 -1.2965  0.2367 -0.7193
   63CHL1  H21B 7122   3.567   2.069   9.187 -0.5566  1.5576 -0.8062
   63CHL1  H21C 7123   3.734   2.122   9.210  1.1496  2.1427 -0.7642
   63CHL1   C22 7124   3.635   2.388   9.105  0.5367  0.7518 -0.0726
   63CHL1  H22A 7125   3.632   2.492   9.145  0.5549  1.8526 -2.7018
   63CHL1  H22B 7126   3.743   2.370   9.086  1.0387  1.2858  1.9948
   63CHL1   C23 7127   3.548   2.392   8.976  0.4712  0.5725  0.1572
   63CHL1  H23A 7128   3.564   2.297   8.921  0.5089 -0.5663  2.0516
   63CHL1  H23B 7129   3.446   2.381   9.019 -0.3715 -2.4857 -2.2774
   63CHL1   C24 7130   3.587   2.518   8.895 -0.1045 -0.2112 -0.2543
   63CHL1  H24A 7131   3.565   2.613   8.948 -0.7464 -0.7414  0.4558
   63CHL1  H24B 7132   3.695   2.500   8.881 -0.0127 -1.2587  1.4495
   63CHL1   C25 7133   3.517   2.531   8.759 -0.0255  0.4699  0.7741
   63CHL1   H25 7134   3.410   2.514   8.787  0.2908  0.4041  2.0029
   63CHL1   C26 7135   3.515   2.669   8.703  0.2304 -0.0741  0.2760
   63CHL1  H26A 7136   3.499   2.659   8.593  0.6110 -0.1979  0.2315
   63CHL1  H26B 7137   3.429   2.725   8.745 -0.4205  2.1489 -3.5138
   63CHL1  H26C 7138   3.614   2.717   8.718  0.4319 -0.5544  0.4996
   63CHL1   C27 7139   3.565   2.429   8.661 -0.1382  0.2399  0.3436
   63CHL1  H27A 7140   3.524   2.456   8.561  2.7014  0.8887 -0.7227
   63CHL1  H27B 7141   3.673   2.444   8.639 -0.6910  0.9466 -2.1498
   63CHL1  H27C 7142   3.544   2.322   8.685  2.8037 -0.2994  0.8272
   64CHL1    C3 7143   3.545   0.836   9.933 -0.3350  0.5687  0.0759
   64CHL1    H3 7144   3.603   0.930   9.925  1.2574 -0.3548  0.3008
   64CHL1    O3 7145   3.483   0.827  10.056  0.2807  0.1640  0.1312
   64CHL1   H3' 7146   3.548   0.826  10.127 -0.4635  0.8537  0.8514
   64CHL1    C4 7147   3.435   0.838   9.823  0.0589 -0.6596 -0.4738
   64CHL1   H4A 7148   3.371   0.748   9.832 -0.5733 -0.3137 -1.3899
   64CHL1   H4B 7149   3.368   0.926   9.835  0.6602 -0.2722  0.1972
   64CHL1    C5 7150   3.498   0.828   9.684  0.0775 -0.9174  0.3669
   64CHL1    C6 7151   3.477   0.929   9.597 -1.0075  0.3172 -0.2722
   64CHL1    H6 7152   3.401   1.006   9.615 -0.3482  1.0694 -0.6577
   64CHL1    C7 7153   3.528   0.924   9.458  0.7771 -0.4897 -0.2630
   64CHL1   H7A 7154   3.444   0.947   9.390  1.7444  1.1360 -0.9532
   64CHL1   H7B 7155   3.615   0.993   9.451  1.0319 -0.5972  1.4148
   64CHL1    C8 7156   3.588   0.785   9.407 -0.4879  0.2605 -0.2112
   64CHL1    H8 7157   3.495   0.728   9.389 -1.3620  1.0483  1.5732
   64CHL1   C14 7158   3.676   0.806   9.286 -0.6196  0.4013 -0.2683
   64CHL1   H14 7159   3.772   0.860   9.307 -0.5680  0.5067 -0.7612
   64CHL1   C15 7160   3.611   0.869   9.163 -0.3854 -0.5578  0.4852
   64CHL1  H15A 7161   3.517   0.813   9.146  0.0363 -0.8480 -1.0180
   64CHL1  H15B 7162   3.596   0.977   9.183  2.1227 -0.0433 -0.0233
   64CHL1   C16 7163   3.720   0.833   9.056 -0.0226 -0.2467  0.4261
   64CHL1  H16A 7164   3.676   0.812   8.957  0.9308  2.3992 -0.6538
   64CHL1  H16B 7165   3.793   0.915   9.043  0.8484 -1.0279  0.3134
   64CHL1   C17 7166   3.802   0.713   9.106 -0.4288 -0.4335  0.4528
   64CHL1   H17 7167   3.896   0.764   9.138 -0.4286  1.4841 -2.1972
   64CHL1   C13 7168   3.735   0.672   9.236 -0.0002  0.2317  0.1486
   64CHL1   C18 7169   3.634   0.571   9.192 -0.4376  0.1044  0.6747
   64CHL1  H18A 7170   3.569   0.538   9.276  2.4563 -3.7691  1.6908
   64CHL1  H18B 7171   3.575   0.603   9.104  2.3109  0.2585 -1.2507
   64CHL1  H18C 7172   3.694   0.491   9.144  1.8512  2.0703  0.0384
   64CHL1   C12 7173   3.828   0.622   9.346  0.3203  0.0716 -0.0755
   64CHL1  H12A 7174   3.877   0.527   9.317 -0.2979 -0.0693 -0.6759
   64CHL1  H12B 7175   3.909   0.696   9.367  2.2215 -1.8518 -0.3184
   64CHL1   C11 7176   3.746   0.597   9.475  0.1572  0.9143 -0.1103
   64CHL1  H11A 7177   3.668   0.519   9.461  0.8129  0.1757  0.3421
   64CHL1  H11B 7178   3.810   0.550   9.552  0.7343 -1.1067 -1.7334
   64CHL1    C9 7179   3.677   0.721   9.524  0.3180 -0.0663 -0.5426
   64CHL1    H9 7180   3.757   0.796   9.545  1.1514 -1.4126  1.3618
   64CHL1   C10 7181   3.598   0.708   9.657 -0.8321 -0.1864 -0.2195
   64CHL1   C19 7182   3.512   0.579   9.660  0.0773 -0.7483  0.3230
   64CHL1  H19A 7183   3.578   0.489   9.658  1.1438 -0.0814 -3.3259
   64CHL1  H19B 7184   3.441   0.573   9.745 -0.5624 -0.6741 -0.2003
   64CHL1  H19C 7185   3.455   0.573   9.565  0.3729 -1.3971  0.1753
   64CHL1    C1 7186   3.692   0.695   9.774  0.3046 -0.1121 -0.6861
   64CHL1   H1A 7187   3.744   0.597   9.767  2.1288  0.7295  0.5026
   64CHL1   H1B 7188   3.759   0.783   9.779  1.1325 -0.8162  3.1873
   64CHL1    C2 7189   3.631   0.707   9.916  0.1330  0.3250  0.2524
   64CHL1   H2A 7190   3.718   0.721   9.984 -0.9523 -1.0354  1.9980
   64CHL1   H2B 7191   3.571   0.616   9.939  0.3788 -0.2381 -1.2316
   64CHL1   C20 7192   3.853   0.612   9.000  0.6272 -0.3419  0.7553
   64CHL1   H20 7193   3.762   0.565   8.956  0.2394  0.4862  0.6284
   64CHL1   C21 7194   3.939   0.498   9.068 -0.0217 -0.7219  0.2763
   64CHL1  H21A 7195   4.000   0.444   8.993 -1.2116 -2.2423  0.3322
   64CHL1  H21B 7196   3.881   0.422   9.125 -0.8912 -1.5926 -1.6744
   64CHL1  H21C 7197   4.004   0.548   9.142 -0.2654  2.3378 -1.4353
   64CHL1   C22 7198   3.924   0.674   8.875  0.3664 -0.4022  0.5555
   64CHL1  H22A 7199   3.933   0.595   8.797  0.5290 -1.0375  1.2075
   64CHL1  H22B 7200   3.859   0.745   8.819 -0.4637 -0.9708  0.7797
   64CHL1   C23 7201   4.058   0.734   8.905 -0.2272 -0.2203  0.3168
   64CHL1  H23A 7202   4.046   0.834   8.952  0.6461 -0.5343  1.2363
   64CHL1  H23B 7203   4.108   0.679   8.987 -0.2486 -1.1841 -0.2970
   64CHL1   C24 7204   4.141   0.762   8.777 -0.0031 -0.4550 -0.8791
   64CHL1  H24A 7205   4.191   0.670   8.741  0.5602 -0.8483  0.8313
   64CHL1  H24B 7206   4.060   0.792   8.707 -0.3540 -1.1310 -0.7726
   64CHL1   C25 7207   4.272   0.842   8.801 -0.7244 -0.3008  0.1672
   64CHL1   H25 7208   4.328   0.791   8.882 -0.2109  1.6179  1.0858
   64CHL1   C26 7209   4.363   0.840   8.678  0.2657  0.0646 -0.0459
   64CHL1  H26A 7210   4.392   0.737   8.650  0.1599 -0.3604  1.3392
   64CHL1  H26B 7211   4.331   0.901   8.590 -0.1096  2.6950  1.7979
   64CHL1  H26C 7212   4.449   0.908   8.697 -0.6182  1.7959 -1.8387
   64CHL1   C27 7213   4.245   0.991   8.843  0.5839 -0.2712 -0.3195
   64CHL1  H27A 7214   4.186   0.997   8.936  1.9637  1.0997  0.5240
   64CHL1  H27B 7215   4.334   1.057   8.853  1.0595 -0.6667 -1.7213
   64CHL1  H27C 7216   4.179   1.041   8.769 -0.0338 -0.8253 -0.1561
   65CHL1    C3 7217   4.999   5.827  10.335 -0.0634  0.4964  0.4610
   65CHL1    H3 7218   4.953   5.928  10.328  0.2262  0.7395  1.7982
   65CHL1    O3 7219   5.012   5.783  10.467 -0.2987 -0.4562  0.0647
   65CHL1   H3' 7220   5.032   5.691  10.448  3.7733 -0.1159  1.8596
   65CHL1    C4 7221   4.895   5.740  10.263 -0.3613 -0.3218 -1.0210
   65CHL1   H4A 7222   4.915   5.631  10.265  0.0728 -0.2814  1.9937
   65CHL1   H4B 7223   4.801   5.762  10.319 -0.5666 -0.5718 -1.2649
   65CHL1    C5 7224   4.886   5.777  10.115  0.3201  0.1151 -0.4055
   65CHL1    C6 7225   4.768   5.796  10.058 -0.2962 -0.1063  0.0132
   65CHL1    H6 7226   4.672   5.788  10.112 -0.8578  2.4026 -0.4520
   65CHL1    C7 7227   4.760   5.830   9.915  0.1569 -0.1008 -0.0412
   65CHL1   H7A 7228   4.665   5.793   9.872 -1.1779  1.4487  1.4343
   65CHL1   H7B 7229   4.743   5.939   9.915 -0.7589 -0.2376  0.1590
   65CHL1    C8 7230   4.875   5.784   9.832  0.2264 -0.2180  0.1806
   65CHL1    H8 7231   4.856   5.677   9.808  0.4412 -0.0342 -0.8553
   65CHL1   C14 7232   4.870   5.851   9.688  0.0480  0.2833 -0.2058
   65CHL1   H14 7233   4.902   5.953   9.718 -1.7245  0.7681  0.1486
   65CHL1   C15 7234   4.732   5.864   9.619 -0.8726  0.2678 -0.4733
   65CHL1  H15A 7235   4.670   5.773   9.628  1.4220 -1.4132 -0.9453
   65CHL1  H15B 7236   4.676   5.950   9.664  0.3332  0.4098  0.8269
   65CHL1   C16 7237   4.778   5.888   9.473  0.1612 -0.6970  0.0537
   65CHL1  H16A 7238   4.739   5.810   9.405 -1.0685 -0.8810  0.9370
   65CHL1  H16B 7239   4.743   5.990   9.446  1.5344 -0.0823  0.4916
   65CHL1   C17 7240   4.934   5.884   9.458  0.4781  0.4132  0.0973
   65CHL1   H17 7241   4.970   5.987   9.480  0.4225  0.0266  2.3067
   65CHL1   C13 7242   4.977   5.801   9.588  0.1109 -0.1931 -0.0164
   65CHL1   C18 7243   4.960   5.649   9.567  0.0721 -0.5482  0.0374
   65CHL1  H18A 7244   4.971   5.592   9.661  1.3655  0.5408  0.5819
   65CHL1  H18B 7245   4.867   5.614   9.518  0.4396 -1.3561 -0.1022
   65CHL1  H18C 7246   5.041   5.631   9.493 -1.1581  1.4924 -1.9282
   65CHL1   C12 7247   5.114   5.836   9.658 -0.4102  0.4635  0.0525
   65CHL1  H12A 7248   5.206   5.816   9.600 -1.7920  0.0511 -2.1063
   65CHL1  H12B 7249   5.118   5.947   9.668  0.0638  0.4995 -0.5035
   65CHL1   C11 7250   5.126   5.781   9.799 -0.1733  0.1327  0.0760
   65CHL1  H11A 7251   5.139   5.672   9.783  1.5391  0.3745 -0.4009
   65CHL1  H11B 7252   5.223   5.815   9.842  0.1430  0.5752 -0.9389
   65CHL1    C9 7253   5.007   5.820   9.897 -0.2717  0.2060  0.1724
   65CHL1    H9 7254   5.014   5.931   9.891  0.2480  0.1370 -0.7036
   65CHL1   C10 7255   5.025   5.772  10.043 -0.4969  0.0541 -0.6591
   65CHL1   C19 7256   5.089   5.633  10.037  0.4030 -0.0868  0.0670
   65CHL1  H19A 7257   5.086   5.593  10.141  1.6837  1.1134  0.5965
   65CHL1  H19B 7258   5.034   5.566   9.968 -0.9166 -0.2856  1.2577
   65CHL1  H19C 7259   5.196   5.643  10.010  1.0019 -2.0215  1.4464
   65CHL1    C1 7260   5.115   5.866  10.117  0.4303  0.5649 -0.7357
   65CHL1   H1A 7261   5.207   5.842  10.061  0.9060  1.9462 -0.6004
   65CHL1   H1B 7262   5.080   5.971  10.101 -0.5564  0.6795  1.6619
   65CHL1    C2 7263   5.135   5.833  10.270  0.8217 -0.1359 -0.0907
   65CHL1   H2A 7264   5.186   5.905  10.337 -1.0515  0.2813  0.9820
   65CHL1   H2B 7265   5.167   5.728  10.287 -5.3554 -2.3525  0.4445
   65CHL1   C20 7266   4.989   5.832   9.320 -0.6639 -0.0088  0.3075
   65CHL1   H20 7267   4.951   5.728   9.306  3.3853 -1.4025 -2.5192
   65CHL1   C21 7268   5.146   5.828   9.327 -0.1519  0.0637  0.0315
   65CHL1  H21A 7269   5.200   5.925   9.329  0.4818 -0.1919 -1.9116
   65CHL1  H21B 7270   5.179   5.774   9.235 -0.3209  0.3807 -0.2173
   65CHL1  H21C 7271   5.183   5.754   9.402  0.4780 -1.6310 -1.8316
   65CHL1   C22 7272   4.946   5.930   9.202 -0.2301 -0.0742  0.3392
   65CHL1  H22A 7273   4.842   5.961   9.225  0.7627  3.0912  1.0164
   65CHL1  H22B 7274   5.003   6.024   9.215  1.4043 -1.1200  1.0781
   65CHL1   C23 7275   4.962   5.869   9.064  0.4277  0.0644 -0.1414
   65CHL1  H23A 7276   5.070   5.842   9.059 -0.2793 -4.0181  2.0547
   65CHL1  H23B 7277   4.918   5.767   9.062  0.7172 -0.1138  1.4323
   65CHL1   C24 7278   4.901   5.951   8.953  0.4480 -1.1338  0.3256
   65CHL1  H24A 7279   4.795   5.972   8.980  1.5508  2.5887  2.5422
   65CHL1  H24B 7280   4.941   6.055   8.946  1.6532 -1.6072  0.0673
   65CHL1   C25 7281   4.905   5.886   8.804 -0.0415 -0.3104 -0.5913
   65CHL1   H25 7282   4.857   5.786   8.816 -0.1561 -0.1109  0.7427
   65CHL1   C26 7283   4.842   5.978   8.691  0.4865 -0.3700 -0.1120
   65CHL1  H26A 7284   4.894   6.076   8.697  1.1609 -0.6982 -0.4862
   65CHL1  H26B 7285   4.863   5.937   8.590 -0.6414  1.4945 -1.1643
   65CHL1  H26C 7286   4.734   5.984   8.715  0.6989  0.9354  0.6403
   65CHL1   C27 7287   5.048   5.859   8.764  0.4289  0.6050 -0.6613
   65CHL1  H27A 7288   5.042   5.816   8.661 -1.8846  1.9198 -1.1494
   65CHL1  H27B 7289   5.113   5.949   8.767  0.5212  0.5152  0.0398
   65CHL1  H27C 7290   5.086   5.780   8.833 -1.1582  1.7291  1.6065
   66CHL1    C3 7291   3.368   3.078  10.724  0.0328 -0.5251  0.5325
   66CHL1    H3 7292   3.309   2.987  10.747  1.3743 -1.7629 -0.6927
   66CHL1    O3 7293   3.439   3.133  10.835  0.3556 -0.0780 -0.4038
   66CHL1   H3' 7294   3.422   3.227  10.828  2.4772  0.3447 -0.3795
   66CHL1    C4 7295   3.482   3.028  10.632  0.2228 -0.2969 -0.5792
   66CHL1   H4A 7296   3.564   3.101  10.614  0.9339 -0.9940 -0.2076
   66CHL1   H4B 7297   3.532   2.948  10.691  0.4182  0.7354  0.7061
   66CHL1    C5 7298   3.431   2.980  10.504  0.0441 -0.1277  0.0436
   66CHL1    C6 7299   3.461   2.856  10.464 -0.5206 -0.2841 -0.3399
   66CHL1    H6 7300   3.530   2.792  10.521  2.6037 -0.8471 -4.3087
   66CHL1    C7 7301   3.424   2.793  10.328  0.4417 -0.4888  0.4160
   66CHL1   H7A 7302   3.503   2.723  10.291 -1.0046 -1.6824 -0.5523
   66CHL1   H7B 7303   3.327   2.739  10.327 -1.3182  2.3927 -1.8869
   66CHL1    C8 7304   3.398   2.914  10.230  0.0136  0.1955  0.5518
   66CHL1    H8 7305   3.499   2.951  10.204  0.5998 -2.7294 -1.7770
   66CHL1   C14 7306   3.335   2.856  10.111  0.3393  0.4884  0.3364
   66CHL1   H14 7307   3.241   2.809  10.148  0.2398 -0.9054 -1.5698
   66CHL1   C15 7308   3.413   2.746  10.040 -0.5000  0.6131  0.5074
   66CHL1  H15A 7309   3.517   2.785  10.028 -0.0886 -0.2006  1.3361
   66CHL1  H15B 7310   3.424   2.648  10.091  1.1506  0.7483  0.4839
   66CHL1   C16 7311   3.345   2.732   9.906 -0.2719 -0.1863 -0.4843
   66CHL1  H16A 7312   3.427   2.729   9.831  1.3432 -1.3234  1.2547
   66CHL1  H16B 7313   3.289   2.636   9.898 -0.7538  0.1072 -0.6726
   66CHL1   C17 7314   3.258   2.862   9.885  0.1164  0.5359  0.3009
   66CHL1   H17 7315   3.153   2.828   9.906 -1.1696  4.4455  0.9252
   66CHL1   C13 7316   3.293   2.952  10.006  0.4016 -0.9376 -0.1289
   66CHL1   C18 7317   3.416   3.048   9.972  0.6301  0.2301  0.0568
   66CHL1  H18A 7318   3.386   3.113   9.886  2.1508  0.6461 -0.1845
   66CHL1  H18B 7319   3.450   3.108  10.059 -0.3289  0.5615  0.2129
   66CHL1  H18C 7320   3.511   2.999   9.942  0.3548  1.3084 -3.0041
   66CHL1   C12 7321   3.176   3.034  10.065 -0.3203 -0.4473  0.3576
   66CHL1  H12A 7322   3.131   3.099   9.987  0.3576  2.6319  2.3255
   66CHL1  H12B 7323   3.086   2.975  10.092 -1.2505  0.2224 -1.1583
   66CHL1   C11 7324   3.224   3.104  10.187  0.3371 -0.7338 -0.2922
   66CHL1  H11A 7325   3.288   3.188  10.152  0.8175 -0.4271  1.2508
   66CHL1  H11B 7326   3.133   3.156  10.226 -0.2770 -1.5671 -0.5873
   66CHL1    C9 7327   3.298   3.012  10.290 -0.1274 -0.6721 -0.8580
   66CHL1    H9 7328   3.226   2.942  10.337 -0.1495  0.5334  1.0432
   66CHL1   C10 7329   3.348   3.080  10.422  0.4392  0.9290  0.0180
   66CHL1   C19 7330   3.437   3.193  10.372 -0.2699  0.2247  0.0368
   66CHL1  H19A 7331   3.523   3.159  10.311  0.7931  0.3137  1.4373
   66CHL1  H19B 7332   3.381   3.272  10.318  2.0166  0.2639 -2.4676
   66CHL1  H19C 7333   3.477   3.251  10.458 -0.0566  1.4372 -0.8629
   66CHL1    C1 7334   3.228   3.131  10.515  0.0181  0.7393  0.0055
   66CHL1   H1A 7335   3.180   3.217  10.463  0.2451  2.0673  1.9190
   66CHL1   H1B 7336   3.166   3.039  10.513  2.8901 -1.3273 -0.9276
   66CHL1    C2 7337   3.274   3.177  10.651  0.0508 -0.2567  0.0330
   66CHL1   H2A 7338   3.185   3.194  10.715  0.1749  2.7078 -0.4247
   66CHL1   H2B 7339   3.323   3.277  10.644  1.6904 -0.9770  0.6339
   66CHL1   C20 7340   3.274   2.922   9.745 -0.1010  0.2940  0.0002
   66CHL1   H20 7341   3.376   2.964   9.741  2.0801 -4.1114  1.8829
   66CHL1   C21 7342   3.175   3.035   9.735 -0.2055  0.6419 -0.0986
   66CHL1  H21A 7343   3.070   3.020   9.766 -1.5849  1.2262 -3.8844
   66CHL1  H21B 7344   3.158   3.055   9.627 -2.1273 -2.0623 -0.3877
   66CHL1  H21C 7345   3.216   3.127   9.781  1.6635 -0.1890  0.0069
   66CHL1   C22 7346   3.262   2.819   9.626 -0.0707 -1.1332 -0.0064
   66CHL1  H22A 7347   3.319   2.731   9.663  0.0172 -1.1632 -0.2098
   66CHL1  H22B 7348   3.157   2.785   9.616  0.5403 -2.7968 -1.2674
   66CHL1   C23 7349   3.320   2.884   9.497 -0.2683 -0.0397  0.4094
   66CHL1  H23A 7350   3.276   2.985   9.480  1.8068  0.7929 -0.3970
   66CHL1  H23B 7351   3.425   2.909   9.523  0.1829 -1.7238  0.2820
   66CHL1   C24 7352   3.328   2.795   9.377 -0.2998  0.7402  0.1171
   66CHL1  H24A 7353   3.380   2.698   9.392 -1.2793 -0.0362 -1.2918
   66CHL1  H24B 7354   3.221   2.781   9.348  0.0857  1.1775 -1.6605
   66CHL1   C25 7355   3.403   2.861   9.256  0.1950  0.4596 -0.1502
   66CHL1   H25 7356   3.508   2.876   9.288 -0.7336 -1.6130  4.7243
   66CHL1   C26 7357   3.414   2.769   9.131 -0.1926  0.3557  0.2142
   66CHL1  H26A 7358   3.315   2.741   9.090 -0.3856 -1.4258  1.8051
   66CHL1  H26B 7359   3.472   2.817   9.049 -3.0651 -0.9890 -2.8401
   66CHL1  H26C 7360   3.467   2.677   9.163 -2.3979 -0.6555  1.1322
   66CHL1   C27 7361   3.357   2.999   9.214  0.1342  0.1288  0.1449
   66CHL1  H27A 7362   3.247   2.999   9.221  0.1236 -0.1058  0.0063
   66CHL1  H27B 7363   3.401   3.077   9.280 -1.0166 -0.8860  2.1848
   66CHL1  H27C 7364   3.399   3.019   9.113  1.1050  2.1655  0.8930
   67CHL1    C3 7365   0.938   3.151   9.933 -0.3026  0.5012 -0.1633
   67CHL1    H3 7366   1.041   3.190   9.949  0.3887 -1.5844  0.8241
   67CHL1    O3 7367   0.882   3.115  10.057 -0.1022  0.1050 -0.2360
   67CHL1   H3' 7368   0.866   3.204  10.090 -2.2606  0.9829 -3.1171
   67CHL1    C4 7369   0.845   3.265   9.869  0.2603  0.8184 -0.1612
   67CHL1   H4A 7370   0.740   3.229   9.862  0.3410  0.5369  0.0622
   67CHL1   H4B 7371   0.846   3.342   9.950  0.8365 -0.1727  0.7989
   67CHL1    C5 7372   0.892   3.306   9.732  0.4145 -0.0038 -0.3881
   67CHL1    C6 7373   0.914   3.435   9.708  0.1800 -0.1705 -0.3765
   67CHL1    H6 7374   0.892   3.503   9.791  0.9118  0.5871 -0.7916
   67CHL1    C7 7375   0.957   3.492   9.578  0.6375  0.3143  0.7144
   67CHL1   H7A 7376   0.896   3.574   9.535  0.1910  0.7897  2.1878
   67CHL1   H7B 7377   1.062   3.526   9.587  0.2618  1.8860 -0.4129
   67CHL1    C8 7378   0.960   3.383   9.461 -0.0926  0.3385  0.6500
   67CHL1    H8 7379   0.851   3.378   9.436  0.0843  3.5393 -1.4065
   67CHL1   C14 7380   1.042   3.435   9.344 -0.5291  0.0206  0.0491
   67CHL1   H14 7381   1.146   3.446   9.380  0.2385 -4.3014 -0.2541
   67CHL1   C15 7382   1.011   3.568   9.277 -0.2771  0.0719 -0.3382
   67CHL1  H15A 7383   0.905   3.586   9.250 -0.5932 -0.3538  0.5570
   67CHL1  H15B 7384   1.044   3.648   9.347 -0.7936 -1.0905  1.3001
   67CHL1   C16 7385   1.095   3.562   9.142  0.7350  0.1892 -0.4734
   67CHL1  H16A 7386   1.042   3.608   9.055 -0.0112  0.3656  0.0595
   67CHL1  H16B 7387   1.180   3.629   9.165  2.3584 -2.1931  0.8669
   67CHL1   C17 7388   1.139   3.414   9.125  0.2372 -0.1798 -0.0890
   67CHL1   H17 7389   1.241   3.418   9.169 -0.3923  1.0826  1.3408
   67CHL1   C13 7390   1.057   3.329   9.229 -0.2488  0.0248  0.6953
   67CHL1   C18 7391   0.918   3.297   9.168  0.5892 -0.7473 -0.2591
   67CHL1  H18A 7392   0.921   3.214   9.093 -1.0052 -3.4865  2.4547
   67CHL1  H18B 7393   0.847   3.259   9.245 -0.2583 -0.5306 -0.9138
   67CHL1  H18C 7394   0.867   3.388   9.132  2.4575  0.1503 -0.7527
   67CHL1   C12 7395   1.119   3.204   9.287  0.0241 -1.0971  0.3042
   67CHL1  H12A 7396   1.141   3.132   9.205 -0.5456 -1.6229  0.6071
   67CHL1  H12B 7397   1.220   3.231   9.325  0.3864 -0.3868 -1.0836
   67CHL1   C11 7398   1.041   3.147   9.404  0.1682  0.3730  0.0535
   67CHL1  H11A 7399   0.943   3.109   9.367  1.3295 -2.1868 -0.7047
   67CHL1  H11B 7400   1.086   3.057   9.452 -1.2193 -0.1683  0.3962
   67CHL1    C9 7401   1.014   3.252   9.514  0.0056  0.3049 -0.5561
   67CHL1    H9 7402   1.109   3.283   9.564 -1.0681  0.4560  1.4832
   67CHL1   C10 7403   0.926   3.196   9.638  0.2024  0.0417  0.3357
   67CHL1   C19 7404   0.792   3.138   9.580  0.1227 -0.3362 -0.2508
   67CHL1  H19A 7405   0.704   3.129   9.647  1.3141  0.8749  1.5893
   67CHL1  H19B 7406   0.741   3.216   9.520 -4.0214 -1.2586  1.6803
   67CHL1  H19C 7407   0.800   3.047   9.516 -1.9855 -0.3781 -0.5206
   67CHL1    C1 7408   1.002   3.079   9.700 -0.5119 -0.0505 -0.3284
   67CHL1   H1A 7409   1.006   2.999   9.624 -1.3629 -0.1108 -0.3121
   67CHL1   H1B 7410   1.105   3.117   9.719  0.8742 -3.0538 -1.2100
   67CHL1    C2 7411   0.952   3.037   9.827 -0.0448 -0.3506 -1.1580
   67CHL1   H2A 7412   1.008   2.949   9.866 -1.6242 -0.9775 -0.1676
   67CHL1   H2B 7413   0.850   2.994   9.821  0.7341 -2.3539 -0.7514
   67CHL1   C20 7414   1.146   3.364   8.980  0.4535  0.1458  0.3702
   67CHL1   H20 7415   1.040   3.353   8.948 -0.2579 -0.1063  2.6426
   67CHL1   C21 7416   1.211   3.217   8.969  0.3562 -0.3427 -0.0312
   67CHL1  H21A 7417   1.314   3.221   9.008  0.0983 -0.5366  0.6731
   67CHL1  H21B 7418   1.210   3.191   8.860  1.2636  0.8723 -0.3462
   67CHL1  H21C 7419   1.150   3.139   9.020  0.7177  0.0720  1.0568
   67CHL1   C22 7420   1.224   3.458   8.880 -0.2721  0.5200  0.5629
   67CHL1  H22A 7421   1.202   3.565   8.901  1.6544  1.1661 -0.4591
   67CHL1  H22B 7422   1.334   3.453   8.896 -0.5529  0.3831  2.7633
   67CHL1   C23 7423   1.184   3.431   8.734 -1.0704 -1.0815  0.7519
   67CHL1  H23A 7424   1.218   3.331   8.698  4.4070  1.3723 -2.1217
   67CHL1  H23B 7425   1.073   3.433   8.729 -1.2351  2.1226  2.9246
   67CHL1   C24 7426   1.232   3.546   8.639 -0.0149  0.3680 -0.2579
   67CHL1  H24A 7427   1.171   3.638   8.651 -3.3163 -1.7859  1.0257
   67CHL1  H24B 7428   1.339   3.572   8.648 -0.0576  0.8601 -1.0630
   67CHL1   C25 7429   1.221   3.506   8.491 -1.2433  0.2807  0.0934
   67CHL1   H25 7430   1.119   3.482   8.455  0.0636 -2.3232 -2.2809
   67CHL1   C26 7431   1.244   3.626   8.402 -0.2373 -0.1300  0.6198
   67CHL1  H26A 7432   1.206   3.595   8.302 -0.8295  0.1704  0.7510
   67CHL1  H26B 7433   1.184   3.710   8.442  0.1842  0.2341  0.4947
   67CHL1  H26C 7434   1.354   3.642   8.404  0.2593 -1.8654 -3.3505
   67CHL1   C27 7435   1.303   3.378   8.452  0.3291  0.0509 -0.1718
   67CHL1  H27A 7436   1.273   3.295   8.521  0.8585 -0.7458 -0.8790
   67CHL1  H27B 7437   1.277   3.353   8.347  0.6814  0.4461 -0.3571
   67CHL1  H27C 7438   1.412   3.398   8.466  1.2471 -4.1879  0.2241
   68CHL1    C3 7439   0.371   4.033  10.371  0.0470 -0.3049  0.1717
   68CHL1    H3 7440   0.321   3.936  10.392 -1.3840  0.3725  0.0006
   68CHL1    O3 7441   0.420   4.079  10.491 -0.3201 -0.3262 -0.3103
   68CHL1   H3' 7442   0.435   4.173  10.478  0.1174  0.3232  3.7874
   68CHL1    C4 7443   0.484   4.013  10.275  0.1547 -0.8208 -0.1134
   68CHL1   H4A 7444   0.547   4.104  10.273  0.8540 -1.1891  2.1686
   68CHL1   H4B 7445   0.550   3.933  10.316 -1.8826 -2.1058  0.8381
   68CHL1    C5 7446   0.444   3.979  10.131  1.0917 -0.2426  0.2460
   68CHL1    C6 7447   0.482   3.866  10.065  0.4316  0.1536 -0.6552
   68CHL1    H6 7448   0.551   3.790  10.105 -1.8516 -1.4157  0.4732
   68CHL1    C7 7449   0.439   3.841   9.927  0.2195  0.1889  0.0323
   68CHL1   H7A 7450   0.519   3.795   9.866 -0.8784 -0.1491 -1.1916
   68CHL1   H7B 7451   0.358   3.765   9.934  1.7263 -1.4689  0.3821
   68CHL1    C8 7452   0.378   3.969   9.856  0.4106  0.2027  0.2988
   68CHL1    H8 7453   0.451   4.051   9.839  0.1302  0.7061  1.4485
   68CHL1   C14 7454   0.313   3.929   9.724  0.3652  0.1418  0.0081
   68CHL1   H14 7455   0.234   3.858   9.757 -0.1107 -0.1100 -1.5960
   68CHL1   C15 7456   0.396   3.842   9.625 -0.2159  0.1859 -0.0675
   68CHL1  H15A 7457   0.501   3.878   9.623 -1.0279  2.7977 -0.0916
   68CHL1  H15B 7458   0.402   3.741   9.669 -0.1825 -0.0832 -0.6750
   68CHL1   C16 7459   0.326   3.857   9.493 -0.2681  0.0389 -0.3612
   68CHL1  H16A 7460   0.386   3.881   9.403 -0.2479  2.1960  0.1798
   68CHL1  H16B 7461   0.282   3.759   9.465 -0.3763  0.3767 -1.4073
   68CHL1   C17 7462   0.207   3.957   9.514 -1.1596 -0.7176 -0.2750
   68CHL1   H17 7463   0.110   3.911   9.545 -1.5331 -0.6329 -1.2968
   68CHL1   C13 7464   0.246   4.039   9.645  0.1487  0.4099  0.3136
   68CHL1   C18 7465   0.345   4.142   9.593  0.0931  0.5470  0.4588
   68CHL1  H18A 7466   0.398   4.199   9.672  2.4988  1.3115 -1.5594
   68CHL1  H18B 7467   0.422   4.095   9.528 -0.4435  2.3675 -1.6095
   68CHL1  H18C 7468   0.286   4.219   9.538 -1.5990 -1.3082 -0.4814
   68CHL1   C12 7469   0.128   4.096   9.729 -0.3028 -0.2535 -0.5005
   68CHL1  H12A 7470   0.081   4.188   9.689  0.4052  0.2256 -0.2255
   68CHL1  H12B 7471   0.042   4.027   9.745 -0.0679 -0.4840 -0.2240
   68CHL1   C11 7472   0.181   4.138   9.866 -0.4633  0.5201  0.6799
   68CHL1  H11A 7473   0.228   4.235   9.839  0.2560  0.0014  0.0385
   68CHL1  H11B 7474   0.092   4.162   9.928 -0.1096  2.2541  0.5750
   68CHL1    C9 7475   0.275   4.031   9.944  0.4710  0.3481  0.3021
   68CHL1    H9 7476   0.211   3.947   9.978 -0.7501  0.3192 -1.8652
   68CHL1   C10 7477   0.337   4.083  10.078  0.2694 -0.2247  0.3091
   68CHL1   C19 7478   0.389   4.231  10.053  0.3434  0.0447  0.2015
   68CHL1  H19A 7479   0.311   4.308  10.036  0.4157 -0.3440 -2.3358
   68CHL1  H19B 7480   0.454   4.272  10.133  1.6306  1.3539 -1.4441
   68CHL1  H19C 7481   0.461   4.232   9.968  0.2989 -0.6749  0.1483
   68CHL1    C1 7482   0.221   4.085  10.181 -0.2885  0.6465  0.0195
   68CHL1   H1A 7483   0.141   4.152  10.142 -1.1306 -0.3280  0.0277
   68CHL1   H1B 7484   0.178   3.983  10.183  1.2315 -0.0547 -1.2960
   68CHL1    C2 7485   0.257   4.131  10.322 -0.2148 -0.8975 -0.3935
   68CHL1   H2A 7486   0.176   4.133  10.399 -2.4153  2.8472 -2.5201
   68CHL1   H2B 7487   0.300   4.232  10.311  1.0849 -1.5469 -1.6070
   68CHL1   C20 7488   0.167   4.041   9.389 -0.1541  0.6080 -0.0877
   68CHL1   H20 7489   0.250   4.107   9.357  1.1071 -0.5655  0.6834
   68CHL1   C21 7490   0.037   4.109   9.413 -0.1263  0.1471  1.2150
   68CHL1  H21A 7491   0.042   4.178   9.500 -1.5467  1.9243 -0.0341
   68CHL1  H21B 7492  -0.044   4.040   9.446 -1.0076  0.8092  0.4765
   68CHL1  H21C 7493  -0.005   4.160   9.323  1.9908 -2.0924 -1.2069
   68CHL1   C22 7494   0.145   3.953   9.261  0.4504 -0.2869  0.1309
   68CHL1  H22A 7495   0.216   3.868   9.260  0.8430  0.0105 -1.5832
   68CHL1  H22B 7496   0.045   3.904   9.263 -0.9093  2.1336 -1.9989
   68CHL1   C23 7497   0.164   4.029   9.129  0.1340  0.2005 -0.7529
   68CHL1  H23A 7498   0.083   4.101   9.102 -1.7373 -0.9163  1.5577
   68CHL1  H23B 7499   0.262   4.081   9.131  0.1823  0.1285  1.5206
   68CHL1   C24 7500   0.199   3.941   9.006  0.1142  0.5607 -0.1014
   68CHL1  H24A 7501   0.274   3.865   9.036 -0.7516 -0.0975  0.4218
   68CHL1  H24B 7502   0.106   3.886   8.981  0.5263 -0.7276  1.0258
   68CHL1   C25 7503   0.255   4.025   8.882 -0.4786  0.6914  0.3153
   68CHL1   H25 7504   0.193   4.113   8.857 -1.9543 -0.6224 -0.8719
   68CHL1   C26 7505   0.399   4.070   8.899  0.1773 -0.7215  0.1176
   68CHL1  H26A 7506   0.436   4.125   8.809 -0.9288  0.8290  0.5696
   68CHL1  H26B 7507   0.401   4.139   8.986 -1.4626 -1.6658  0.9501
   68CHL1  H26C 7508   0.464   3.984   8.926 -1.4112 -2.0696 -0.1986
   68CHL1   C27 7509   0.244   3.941   8.745  0.3507  0.3696 -0.9694
   68CHL1  H27A 7510   0.327   3.867   8.741 -1.1262 -1.4322 -0.2959
   68CHL1  H27B 7511   0.147   3.885   8.743 -0.1946  1.1515  0.8332
   68CHL1  H27C 7512   0.244   4.008   8.657 -0.1418  1.8868  0.1313
   69CHL1    C3 7513   5.889   4.452   7.002  0.7453 -0.4988  0.2605
   69CHL1    H3 7514   5.925   4.346   7.003  2.5719  0.0639 -1.1174
   69CHL1    O3 7515   5.866   4.490   6.868 -0.1639 -0.1836  0.2225
   69CHL1   H3' 7516   5.909   4.575   6.864 -1.0584  0.3045  0.6761
   69CHL1    C4 7517   5.758   4.494   7.077 -0.0518  0.8582 -0.3892
   69CHL1   H4A 7518   5.735   4.598   7.046  0.3809  1.3732  0.9538
   69CHL1   H4B 7519   5.679   4.427   7.038  1.7774 -0.6155 -1.7950
   69CHL1    C5 7520   5.770   4.502   7.233 -0.1924  1.1042  0.3828
   69CHL1    C6 7521   5.687   4.446   7.325 -0.0646  0.6643  0.2619
   69CHL1    H6 7522   5.615   4.370   7.290  0.9455 -0.5720  0.8067
   69CHL1    C7 7523   5.697   4.457   7.478 -0.1021 -0.1041 -0.1420
   69CHL1   H7A 7524   5.597   4.472   7.524 -0.0076  0.5086 -0.1262
   69CHL1   H7B 7525   5.742   4.371   7.533  0.5948 -0.0306 -0.5807
   69CHL1    C8 7526   5.783   4.579   7.520 -0.5201 -0.0962  0.1396
   69CHL1    H8 7527   5.735   4.679   7.513  0.7613  0.5871  0.8277
   69CHL1   C14 7528   5.830   4.557   7.662 -0.5922  0.2645  0.3797
   69CHL1   H14 7529   5.896   4.468   7.652 -0.3038  0.6125 -1.0831
   69CHL1   C15 7530   5.727   4.526   7.763  0.2588  0.2536 -0.4001
   69CHL1  H15A 7531   5.654   4.610   7.758 -0.1692  0.1271  2.1373
   69CHL1  H15B 7532   5.680   4.426   7.750 -0.5952  0.6744 -0.5965
   69CHL1   C16 7533   5.801   4.528   7.898 -0.4014 -0.2619 -0.2906
   69CHL1  H16A 7534   5.746   4.593   7.970  0.2762  1.8107 -1.5778
   69CHL1  H16B 7535   5.819   4.427   7.942  3.5317  0.4295  0.0126
   69CHL1   C17 7536   5.950   4.587   7.864  0.6357 -0.4075  0.7074
   69CHL1   H17 7537   6.001   4.493   7.835  1.1106 -0.2946  1.1648
   69CHL1   C13 7538   5.926   4.669   7.732  0.2810  0.9464  0.3514
   69CHL1   C18 7539   5.848   4.800   7.751  0.4307 -0.4789  0.4433
   69CHL1  H18A 7540   5.812   4.838   7.653 -0.1492  0.9374  1.1841
   69CHL1  H18B 7541   5.758   4.792   7.817 -1.8795 -1.3564 -2.5789
   69CHL1  H18C 7542   5.911   4.877   7.799 -0.6029 -0.6328  2.1407
   69CHL1   C12 7543   6.047   4.670   7.633 -0.3162 -0.2618 -0.1888
   69CHL1  H12A 7544   6.122   4.747   7.662 -1.0168  0.1031  0.7072
   69CHL1  H12B 7545   6.103   4.575   7.645  1.4457  0.6020 -1.0784
   69CHL1   C11 7546   6.002   4.699   7.483 -0.6567 -0.5956  0.9584
   69CHL1  H11A 7547   5.966   4.803   7.474 -0.9833 -0.8156 -0.5358
   69CHL1  H11B 7548   6.099   4.693   7.429 -0.6610 -3.0852  1.1149
   69CHL1    C9 7549   5.910   4.594   7.432  0.3803  0.8051  0.1209
   69CHL1    H9 7550   5.965   4.499   7.450  1.0128  1.4091  1.5050
   69CHL1   C10 7551   5.882   4.588   7.279 -0.3500 -0.2120  0.1841
   69CHL1   C19 7552   5.865   4.739   7.235  0.0779  0.3109 -0.1892
   69CHL1  H19A 7553   5.962   4.793   7.235 -0.0097  0.4905 -1.1426
   69CHL1  H19B 7554   5.836   4.752   7.128  3.5819  0.1614 -1.2564
   69CHL1  H19C 7555   5.795   4.791   7.304  0.2873  0.8510 -0.3817
   69CHL1    C1 7556   6.016   4.529   7.205  0.1982 -0.4809 -0.2057
   69CHL1   H1A 7557   6.112   4.576   7.235  1.9053 -1.6918 -3.3008
   69CHL1   H1B 7558   6.034   4.424   7.236  1.0654 -0.0042  1.0116
   69CHL1    C2 7559   6.011   4.530   7.049  0.5094  0.1779  0.1558
   69CHL1   H2A 7560   6.098   4.482   7.000 -0.9585  0.1440 -2.5830
   69CHL1   H2B 7561   5.999   4.630   7.003 -1.2418 -0.8491 -1.7500
   69CHL1   C20 7562   6.008   4.663   7.982  0.3734 -0.1701 -0.2434
   69CHL1   H20 7563   5.951   4.753   8.014  1.8073  0.2488  1.2626
   69CHL1   C21 7564   6.152   4.704   7.949  0.3193 -0.0933 -0.1607
   69CHL1  H21A 7565   6.152   4.770   7.860 -2.9400  0.8740  0.3969
   69CHL1  H21B 7566   6.227   4.623   7.937  2.8295  1.7852  1.8067
   69CHL1  H21C 7567   6.197   4.770   8.025  1.0743 -0.1604 -0.5357
   69CHL1   C22 7568   6.024   4.577   8.106  0.7981  0.4724  0.6331
   69CHL1  H22A 7569   5.927   4.540   8.146  0.5688  0.2337 -0.1233
   69CHL1  H22B 7570   6.094   4.495   8.082  0.6677  0.8488 -1.2024
   69CHL1   C23 7571   6.066   4.651   8.234  0.5455 -0.2984 -0.2980
   69CHL1  H23A 7572   6.174   4.671   8.217  0.4685 -0.2534 -0.7454
   69CHL1  H23B 7573   6.011   4.748   8.237 -0.5597 -0.8597 -1.2259
   69CHL1   C24 7574   6.048   4.560   8.361 -0.8067 -0.3873  0.1506
   69CHL1  H24A 7575   5.945   4.518   8.372 -1.3398  0.6274 -0.7297
   69CHL1  H24B 7576   6.122   4.478   8.357  0.0360  0.3003  1.0549
   69CHL1   C25 7577   6.051   4.648   8.489  0.0261  0.0760 -0.0834
   69CHL1   H25 7578   5.967   4.719   8.474  1.3330  1.7760  0.2779
   69CHL1   C26 7579   6.029   4.567   8.619 -1.1387 -0.8113  0.2254
   69CHL1  H26A 7580   6.129   4.534   8.654  0.7810  2.7747 -1.4274
   69CHL1  H26B 7581   5.993   4.636   8.699 -0.9465 -0.4292 -0.0166
   69CHL1  H26C 7582   5.952   4.486   8.613 -2.2211  0.2778 -1.6563
   69CHL1   C27 7583   6.171   4.750   8.512  0.5942  0.0401 -0.0166
   69CHL1  H27A 7584   6.173   4.802   8.414 -2.1716 -1.5072 -0.9929
   69CHL1  H27B 7585   6.146   4.829   8.585 -1.5946 -1.3839  0.8683
   69CHL1  H27C 7586   6.268   4.699   8.532  2.3124  3.0632  0.0657
   70CHL1    C3 7587   2.815   0.487   6.964  0.1906  0.6758 -0.2277
   70CHL1    H3 7588   2.721   0.444   7.005 -0.9361  1.6396 -1.6997
   70CHL1    O3 7589   2.838   0.451   6.830  0.3594 -0.2119 -0.8144
   70CHL1   H3' 7590   2.872   0.530   6.788  0.3355  0.8083  1.0049
   70CHL1    C4 7591   2.805   0.641   6.987  0.3888 -0.1611 -0.0592
   70CHL1   H4A 7592   2.902   0.681   6.953 -0.5993  1.5751 -0.9748
   70CHL1   H4B 7593   2.726   0.688   6.924 -1.3446 -1.5307  0.9927
   70CHL1    C5 7594   2.786   0.679   7.131  0.3827 -0.1834 -0.1859
   70CHL1    C6 7595   2.673   0.743   7.166  0.8544  0.0278 -0.1677
   70CHL1    H6 7596   2.602   0.774   7.088  0.9985 -0.9755 -0.7184
   70CHL1    C7 7597   2.630   0.777   7.309 -0.6810  0.5518 -0.9118
   70CHL1   H7A 7598   2.593   0.880   7.295 -0.7439  0.6666 -0.0061
   70CHL1   H7B 7599   2.540   0.719   7.338 -0.9902  1.9343  1.0808
   70CHL1    C8 7600   2.755   0.757   7.401 -0.3608  0.8690  0.1204
   70CHL1    H8 7601   2.813   0.852   7.393 -1.8379  1.9102  1.0768
   70CHL1   C14 7602   2.704   0.735   7.551  0.9607  0.0110  0.3156
   70CHL1   H14 7603   2.665   0.631   7.549 -1.2612  0.7967 -0.5151
   70CHL1   C15 7604   2.579   0.814   7.593  0.0068 -0.7833 -0.7296
   70CHL1  H15A 7605   2.572   0.921   7.564 -0.5722 -0.1630  1.4910
   70CHL1  H15B 7606   2.478   0.775   7.570 -0.1453 -0.6310 -0.3396
   70CHL1   C16 7607   2.587   0.809   7.750  0.2109  0.4389 -0.7398
   70CHL1  H16A 7608   2.581   0.910   7.796 -1.4864  0.2118 -0.3693
   70CHL1  H16B 7609   2.504   0.744   7.785  2.0728 -1.6579 -0.0342
   70CHL1   C17 7610   2.720   0.725   7.781 -0.8185  0.4324 -0.6502
   70CHL1   H17 7611   2.711   0.615   7.795  1.3776  0.3613  0.6598
   70CHL1   C13 7612   2.807   0.740   7.658  0.1025 -0.4811  0.4431
   70CHL1   C18 7613   2.889   0.870   7.657 -0.1705  0.5226  0.1633
   70CHL1  H18A 7614   2.934   0.892   7.558 -1.8888  2.8385 -0.1898
   70CHL1  H18B 7615   2.818   0.951   7.685 -3.5446 -2.3730  0.7282
   70CHL1  H18C 7616   2.969   0.865   7.735  0.0465  0.2758 -0.0743
   70CHL1   C12 7617   2.903   0.622   7.629 -0.2010 -0.2479  0.1839
   70CHL1  H12A 7618   2.991   0.620   7.697 -0.8525 -0.5817  1.0367
   70CHL1  H12B 7619   2.846   0.528   7.636  0.3337 -0.5194  1.1880
   70CHL1   C11 7620   2.957   0.626   7.488 -0.4936  0.2430  0.0398
   70CHL1  H11A 7621   3.030   0.709   7.478 -0.5729  0.2244 -0.6986
   70CHL1  H11B 7622   3.007   0.529   7.467  0.5387  0.1720  2.4205
   70CHL1    C9 7623   2.843   0.639   7.380 -0.4014  0.2774  0.2727
   70CHL1    H9 7624   2.783   0.548   7.402 -0.1834  0.0219 -0.1784
   70CHL1   C10 7625   2.889   0.633   7.234 -0.2668  0.1595  0.6548
   70CHL1   C19 7626   3.014   0.715   7.206 -0.0976  0.5410  0.5862
   70CHL1  H19A 7627   3.010   0.751   7.102 -3.4139 -2.5975 -0.5850
   70CHL1  H19B 7628   3.051   0.791   7.279  0.9350 -0.2665  0.9348
   70CHL1  H19C 7629   3.107   0.654   7.206 -0.4177 -0.0462 -2.1500
   70CHL1    C1 7630   2.917   0.484   7.204  0.5345 -0.1852 -0.4236
   70CHL1   H1A 7631   3.009   0.450   7.257  1.0655  0.9320 -0.5849
   70CHL1   H1B 7632   2.838   0.424   7.254  1.4274 -0.6420  0.4831
   70CHL1    C2 7633   2.932   0.441   7.058  0.1391 -0.4518 -0.4656
   70CHL1   H2A 7634   2.942   0.331   7.047  1.4345 -0.3559 -0.4240
   70CHL1   H2B 7635   3.023   0.473   7.002 -0.0218 -1.1624 -1.1544
   70CHL1   C20 7636   2.779   0.771   7.917 -0.2866 -0.0920 -0.7725
   70CHL1   H20 7637   2.799   0.881   7.919  1.1117 -0.3276  1.4571
   70CHL1   C21 7638   2.914   0.700   7.947  0.4617  0.1140  0.0668
   70CHL1  H21A 7639   2.940   0.716   8.054 -1.3074 -2.0580  0.9203
   70CHL1  H21B 7640   2.991   0.741   7.880 -1.8332  0.3845 -2.5907
   70CHL1  H21C 7641   2.903   0.589   7.946 -0.0756  0.1628 -0.9594
   70CHL1   C22 7642   2.675   0.758   8.036  0.1216  0.5607  0.0108
   70CHL1  H22A 7643   2.599   0.835   8.011 -1.3019 -0.6014  0.5933
   70CHL1  H22B 7644   2.627   0.658   8.035  1.1369  0.0592  0.4053
   70CHL1   C23 7645   2.727   0.778   8.180 -0.1892 -0.0154 -0.9297
   70CHL1  H23A 7646   2.794   0.694   8.208  1.0464  0.7221 -1.6131
   70CHL1  H23B 7647   2.783   0.873   8.188  0.0710 -0.3061  1.9782
   70CHL1   C24 7648   2.618   0.784   8.287 -0.3848  0.4589  1.0182
   70CHL1  H24A 7649   2.569   0.882   8.271 -0.9080  0.0691  0.1561
   70CHL1  H24B 7650   2.551   0.701   8.257  0.8105 -0.2391  0.2003
   70CHL1   C25 7651   2.664   0.758   8.433 -0.5798 -0.1402  0.0239
   70CHL1   H25 7652   2.722   0.663   8.429 -2.6513 -1.6129  2.5289
   70CHL1   C26 7653   2.757   0.861   8.488  0.7887 -0.7428  0.0367
   70CHL1  H26A 7654   2.790   0.830   8.590  1.8820 -2.2028 -0.7193
   70CHL1  H26B 7655   2.848   0.885   8.429  0.2811  1.2019 -0.0186
   70CHL1  H26C 7656   2.707   0.960   8.497  1.8035  0.0760 -2.5081
   70CHL1   C27 7657   2.547   0.742   8.524  0.5649  0.2540 -0.0431
   70CHL1  H27A 7658   2.493   0.835   8.550  0.2663 -0.1534  0.8390
   70CHL1  H27B 7659   2.465   0.683   8.477 -0.7939  1.7870  0.3103
   70CHL1  H27C 7660   2.574   0.692   8.620  0.2457 -1.8530 -0.9891
   71CHL1    C3 7661   3.778   3.470   7.037 -0.2316 -0.1126 -1.2390
   71CHL1    H3 7662   3.862   3.399   7.019 -0.5118 -0.8345  0.1533
   71CHL1    O3 7663   3.744   3.523   6.913 -0.0420 -0.3966  0.4736
   71CHL1   H3' 7664   3.828   3.540   6.869 -0.8370  0.2089 -0.8566
   71CHL1    C4 7665   3.664   3.393   7.098  0.0836  0.2970 -0.5126
   71CHL1   H4A 7666   3.583   3.469   7.100 -0.0757  0.1859 -1.6576
   71CHL1   H4B 7667   3.622   3.324   7.022  2.5686 -0.2856 -1.4496
   71CHL1    C5 7668   3.677   3.336   7.235 -0.0281  0.1315 -0.9212
   71CHL1    C6 7669   3.661   3.204   7.260 -0.7556 -0.2036 -0.1121
   71CHL1    H6 7670   3.626   3.136   7.180  0.3108 -0.7846 -0.1004
   71CHL1    C7 7671   3.683   3.140   7.399  0.2813 -0.3408 -0.2843
   71CHL1   H7A 7672   3.589   3.096   7.438  0.0123 -0.0123 -0.5569
   71CHL1   H7B 7673   3.768   3.068   7.395  0.7714  0.1993  0.3483
   71CHL1    C8 7674   3.734   3.240   7.516  0.5351  0.6891  0.0070
   71CHL1    H8 7675   3.646   3.299   7.549 -0.2662 -0.1277 -0.6113
   71CHL1   C14 7676   3.800   3.169   7.627 -0.8474 -0.4149  0.1748
   71CHL1   H14 7677   3.887   3.121   7.576  0.5717  0.8592  1.2903
   71CHL1   C15 7678   3.727   3.050   7.698 -0.2306 -0.6064 -0.0322
   71CHL1  H15A 7679   3.628   3.090   7.729 -1.7945 -2.2127 -2.5799
   71CHL1  H15B 7680   3.724   2.961   7.633  4.9379  0.5660 -2.3425
   71CHL1   C16 7681   3.813   3.019   7.824 -0.3674  0.0320  0.7471
   71CHL1  H16A 7682   3.744   3.030   7.911 -1.9402  1.6506 -0.6299
   71CHL1  H16B 7683   3.865   2.921   7.837  0.5631  0.4891  0.5311
   71CHL1   C17 7684   3.917   3.143   7.829 -0.0915  0.4025  0.6709
   71CHL1   H17 7685   4.004   3.097   7.779  0.5312  0.0005  2.0691
   71CHL1   C13 7686   3.863   3.257   7.738  0.5718  0.7222  0.1117
   71CHL1   C18 7687   3.760   3.334   7.827 -0.7144  0.3839  0.2731
   71CHL1  H18A 7688   3.815   3.402   7.895  1.5209 -0.5838 -0.4538
   71CHL1  H18B 7689   3.697   3.400   7.764 -0.1096  1.6032  0.9066
   71CHL1  H18C 7690   3.697   3.274   7.896 -1.5392  1.6770  0.6686
   71CHL1   C12 7691   3.966   3.346   7.663  0.1801  0.0487 -0.5387
   71CHL1  H12A 7692   4.015   3.410   7.739 -0.0084  0.7195 -0.9714
   71CHL1  H12B 7693   4.039   3.277   7.616 -1.0876 -1.0826 -0.9351
   71CHL1   C11 7694   3.901   3.437   7.558  0.1317  0.4167 -0.0090
   71CHL1  H11A 7695   3.844   3.519   7.607  1.2961 -0.2014  2.5463
   71CHL1  H11B 7696   3.985   3.488   7.508 -0.1528  2.3268  1.3532
   71CHL1    C9 7697   3.832   3.344   7.453  0.0179  0.2023  0.5472
   71CHL1    H9 7698   3.913   3.286   7.404  0.9435  2.9207 -1.3722
   71CHL1   C10 7699   3.759   3.421   7.336  0.6353  0.0635  0.1538
   71CHL1   C19 7700   3.649   3.517   7.400 -0.1916  0.6775 -0.0229
   71CHL1  H19A 7701   3.691   3.578   7.483 -1.7060  0.6521  0.8082
   71CHL1  H19B 7702   3.605   3.588   7.327  0.4960 -0.2204 -1.3614
   71CHL1  H19C 7703   3.561   3.464   7.444 -1.0249  0.4984 -1.7989
   71CHL1    C1 7704   3.870   3.505   7.268 -0.2167 -0.2292  0.4768
   71CHL1   H1A 7705   3.916   3.581   7.336  1.8469 -1.7246  0.8644
   71CHL1   H1B 7706   3.955   3.436   7.249  2.3032  2.6358  0.5278
   71CHL1    C2 7707   3.836   3.578   7.133  0.3428  0.7990  0.2145
   71CHL1   H2A 7708   3.925   3.624   7.086  0.0173  0.2253 -1.0122
   71CHL1   H2B 7709   3.760   3.657   7.148 -1.5441 -0.7745 -0.5457
   71CHL1   C20 7710   3.962   3.169   7.975 -0.3201  0.5250  0.2362
   71CHL1   H20 7711   3.877   3.208   8.035  0.2418  2.2092 -0.0154
   71CHL1   C21 7712   4.067   3.270   7.979  0.0820  0.1014 -0.3132
   71CHL1  H21A 7713   4.159   3.233   7.929  0.2463  0.1024 -0.0202
   71CHL1  H21B 7714   4.086   3.297   8.086 -1.4585  0.1226 -0.0260
   71CHL1  H21C 7715   4.032   3.368   7.942 -1.0112 -0.0537  0.2675
   71CHL1   C22 7716   4.017   3.040   8.036 -0.0129  0.4813  0.0657
   71CHL1  H22A 7717   3.952   2.950   8.031  1.9854 -1.2875  2.9357
   71CHL1  H22B 7718   4.110   2.998   7.992 -0.4452 -0.7401  0.2742
   71CHL1   C23 7719   4.053   3.052   8.185 -0.1372 -0.8205  0.7289
   71CHL1  H23A 7720   4.088   2.953   8.221  2.2634 -0.1747  0.3043
   71CHL1  H23B 7721   4.136   3.124   8.202  2.1953 -2.3288 -3.0528
   71CHL1   C24 7722   3.934   3.114   8.272 -0.4221 -0.6971 -0.7738
   71CHL1  H24A 7723   3.900   3.217   8.250 -1.3068 -0.6945  0.5055
   71CHL1  H24B 7724   3.842   3.052   8.260 -1.0573 -0.1711  1.0623
   71CHL1   C25 7725   3.975   3.119   8.422 -0.4205 -0.2386  0.2106
   71CHL1   H25 7726   4.054   3.041   8.434 -0.8051 -0.3860  2.0957
   71CHL1   C26 7727   4.030   3.263   8.455 -0.0122  0.4821  0.7445
   71CHL1  H26A 7728   4.070   3.267   8.558  0.0453  0.0720  0.7392
   71CHL1  H26B 7729   4.103   3.294   8.378  0.4581 -0.0235  0.9829
   71CHL1  H26C 7730   3.943   3.332   8.452 -0.1509  0.3135 -2.2473
   71CHL1   C27 7731   3.859   3.086   8.516 -0.1157  0.1040  0.9855
   71CHL1  H27A 7732   3.780   3.164   8.508  0.4814  0.6369  0.1053
   71CHL1  H27B 7733   3.818   2.986   8.490  1.2328  0.0085 -0.9792
   71CHL1  H27C 7734   3.887   3.080   8.623 -0.1734  2.5919  1.1997
   72CHL1    C3 7735   1.867   1.714   6.628  0.5046  0.8180 -0.6412
   72CHL1    H3 7736   1.795   1.630   6.629  2.3420 -0.8612  0.7621
   72CHL1    O3 7737   1.872   1.751   6.491 -0.1900  0.2262 -0.4129
   72CHL1   H3' 7738   1.905   1.671   6.449 -1.2447 -2.2850  3.0261
   72CHL1    C4 7739   1.834   1.827   6.723 -0.0258 -0.3329 -1.0877
   72CHL1   H4A 7740   1.909   1.906   6.701  2.2929 -2.9139 -3.2585
   72CHL1   H4B 7741   1.738   1.879   6.703 -0.8621 -1.8557 -1.1906
   72CHL1    C5 7742   1.835   1.782   6.870  0.4878  0.2476 -0.2071
   72CHL1    C6 7743   1.716   1.787   6.932 -0.6442 -0.6997 -0.4412
   72CHL1    H6 7744   1.633   1.840   6.883 -0.7836  0.2413  0.7704
   72CHL1    C7 7745   1.704   1.755   7.079  0.2775 -0.4514 -0.1548
   72CHL1   H7A 7746   1.653   1.842   7.127 -1.5370 -2.3820  1.6233
   72CHL1   H7B 7747   1.632   1.674   7.106 -0.3416 -0.2668 -1.1893
   72CHL1    C8 7748   1.834   1.731   7.154 -0.7227  1.0085 -1.0417
   72CHL1    H8 7749   1.856   1.837   7.178 -2.2275  1.3231 -0.9514
   72CHL1   C14 7750   1.820   1.643   7.283  0.5443 -1.2822  0.8550
   72CHL1   H14 7751   1.802   1.542   7.239 -0.0589 -0.8691  0.1377
   72CHL1   C15 7752   1.711   1.679   7.384 -0.2060 -0.4952 -0.2765
   72CHL1  H15A 7753   1.705   1.787   7.409 -2.0428 -1.2255  2.9779
   72CHL1  H15B 7754   1.607   1.646   7.361 -0.6166  0.2789  0.4059
   72CHL1   C16 7755   1.763   1.609   7.508 -0.2102  0.2600  0.2075
   72CHL1  H16A 7756   1.749   1.681   7.591  0.1330 -0.6596  1.0781
   72CHL1  H16B 7757   1.695   1.527   7.539 -0.7384  1.0566  1.2033
   72CHL1   C17 7758   1.910   1.567   7.491 -0.0069  0.0764 -0.7637
   72CHL1   H17 7759   1.909   1.458   7.467 -1.4633 -0.8517  2.8895
   72CHL1   C13 7760   1.954   1.639   7.367 -0.2705  0.4941 -0.7842
   72CHL1   C18 7761   1.999   1.777   7.395 -1.0901  0.0151  0.6202
   72CHL1  H18A 7762   2.091   1.786   7.456  0.3877  3.8359 -1.8323
   72CHL1  H18B 7763   2.033   1.833   7.305  0.5689  1.2862  1.9690
   72CHL1  H18C 7764   1.920   1.840   7.440 -1.9636 -0.0179 -0.8015
   72CHL1   C12 7765   2.060   1.571   7.283  0.1515 -0.0726  0.2515
   72CHL1  H12A 7766   2.154   1.544   7.336 -0.4520 -1.6353  0.5831
   72CHL1  H12B 7767   2.022   1.471   7.252  2.1409 -0.8285  0.1033
   72CHL1   C11 7768   2.077   1.641   7.143 -0.0300 -0.0941 -0.4433
   72CHL1  H11A 7769   2.147   1.726   7.160 -0.0305 -0.1891  0.0390
   72CHL1  H11B 7770   2.131   1.572   7.075  0.5208 -1.6128  1.4512
   72CHL1    C9 7771   1.945   1.670   7.069 -0.1287  0.3615  1.1502
   72CHL1    H9 7772   1.900   1.571   7.045 -1.5578  1.6105 -1.7831
   72CHL1   C10 7773   1.964   1.733   6.931  0.1667  0.3225 -0.0054
   72CHL1   C19 7774   2.069   1.844   6.944  0.4939  0.3449  0.4818
   72CHL1  H19A 7775   2.083   1.892   6.845  1.0848 -1.4894 -0.3730
   72CHL1  H19B 7776   2.039   1.918   7.022  4.4481  3.1842 -0.3940
   72CHL1  H19C 7777   2.173   1.814   6.967  2.1787  3.7028 -1.8793
   72CHL1    C1 7778   2.003   1.624   6.830 -0.6203  0.0442  0.0867
   72CHL1   H1A 7779   2.104   1.583   6.853 -0.5104  1.0852  1.5974
   72CHL1   H1B 7780   1.929   1.542   6.843  0.7792 -1.2561  0.1044
   72CHL1    C2 7781   2.006   1.665   6.677 -0.5944  0.5233  0.3223
   72CHL1   H2A 7782   2.049   1.578   6.623  0.9957  2.0557 -1.0033
   72CHL1   H2B 7783   2.078   1.749   6.666  0.4950 -0.3932  0.2449
   72CHL1   C20 7784   1.988   1.586   7.633  0.7707  0.1238  0.0946
   72CHL1   H20 7785   1.977   1.691   7.669 -4.8645 -0.2374  0.3432
   72CHL1   C21 7786   2.134   1.547   7.622  0.0529 -0.5299 -0.3723
   72CHL1  H21A 7787   2.146   1.437   7.611 -1.4379 -0.5979 -1.6155
   72CHL1  H21B 7788   2.184   1.578   7.716 -0.4017  0.2522 -0.3836
   72CHL1  H21C 7789   2.187   1.598   7.539  1.0199  1.0108  1.1305
   72CHL1   C22 7790   1.920   1.499   7.748  0.0415  0.3225 -0.5192
   72CHL1  H22A 7791   1.817   1.539   7.764  0.6359  1.1864  1.3318
   72CHL1  H22B 7792   1.912   1.397   7.706  0.2102 -0.3870  1.1291
   72CHL1   C23 7793   1.983   1.493   7.885 -0.1512  0.1282  0.0134
   72CHL1  H23A 7794   2.084   1.451   7.866  0.2738  1.3178 -0.4276
   72CHL1  H23B 7795   1.989   1.592   7.937 -0.8770 -0.9665  2.3476
   72CHL1   C24 7796   1.902   1.411   7.990  0.6026  0.5795 -0.8352
   72CHL1  H24A 7797   1.799   1.448   8.013 -0.3277 -2.0133 -0.5301
   72CHL1  H24B 7798   1.898   1.308   7.949  2.5859  0.1477 -0.0616
   72CHL1   C25 7799   1.994   1.393   8.113  1.0843 -0.4342  0.8876
   72CHL1   H25 7800   2.095   1.366   8.076  0.3282  0.9049 -2.4911
   72CHL1   C26 7801   2.006   1.527   8.191 -0.9717 -0.3489 -0.2732
   72CHL1  H26A 7802   1.928   1.548   8.268  0.1300  0.6200  0.6108
   72CHL1  H26B 7803   2.094   1.521   8.258  0.0913  0.5698 -1.5650
   72CHL1  H26C 7804   2.025   1.616   8.128 -0.5469 -1.4474 -1.7342
   72CHL1   C27 7805   1.944   1.272   8.199  0.7790  0.0184 -0.4013
   72CHL1  H27A 7806   1.947   1.173   8.149 -0.6969 -0.9293  1.2506
   72CHL1  H27B 7807   1.994   1.273   8.298 -0.1530  2.4874  0.1262
   72CHL1  H27C 7808   1.839   1.287   8.234  1.2439  0.1445  1.0184
   73CHL1    C3 7809   4.169   5.121   7.076  0.3280 -0.0170 -0.1602
   73CHL1    H3 7810   4.212   5.219   7.106  0.8947  0.1869 -1.5375
   73CHL1    O3 7811   4.135   5.126   6.936 -0.5939 -0.1566 -0.2267
   73CHL1   H3' 7812   4.156   5.036   6.907 -1.8612 -0.4475 -0.2707
   73CHL1    C4 7813   4.285   5.019   7.103  0.2058 -0.3756 -0.2760
   73CHL1   H4A 7814   4.267   4.921   7.053  2.0648 -1.1518  0.4558
   73CHL1   H4B 7815   4.369   5.063   7.045  1.6355 -1.0090  1.2248
   73CHL1    C5 7816   4.324   4.983   7.246 -0.4242 -0.0802 -0.1529
   73CHL1    C6 7817   4.457   4.999   7.278  0.1948 -0.1100  0.1782
   73CHL1    H6 7818   4.532   5.014   7.199 -0.1909  0.7554 -0.0308
   73CHL1    C7 7819   4.503   4.962   7.415  0.2206 -0.4684  0.1631
   73CHL1   H7A 7820   4.582   4.884   7.410  0.9652  0.3280 -2.6611
   73CHL1   H7B 7821   4.542   5.053   7.466 -1.3163  0.7265 -0.6984
   73CHL1    C8 7822   4.392   4.904   7.509 -0.1264 -0.6789  0.2689
   73CHL1    H8 7823   4.375   4.800   7.474 -0.4052 -0.5434 -0.0007
   73CHL1   C14 7824   4.432   4.915   7.658 -0.5599 -0.3561  0.2547
   73CHL1   H14 7825   4.433   5.024   7.677 -0.4639 -0.3030 -0.0458
   73CHL1   C15 7826   4.570   4.867   7.698 -0.2860  0.2635  0.5366
   73CHL1  H15A 7827   4.598   4.766   7.659 -1.8779 -0.0383  0.0876
   73CHL1  H15B 7828   4.652   4.938   7.675  0.4612 -1.1421 -1.3654
   73CHL1   C16 7829   4.555   4.844   7.850 -0.3242  0.5051  0.2122
   73CHL1  H16A 7830   4.586   4.743   7.884 -0.2726  0.6948  0.7458
   73CHL1  H16B 7831   4.628   4.906   7.906  2.1439 -0.9300 -1.2428
   73CHL1   C17 7832   4.410   4.876   7.883  0.2380  0.1183  0.8645
   73CHL1   H17 7833   4.411   4.985   7.901  1.9017  0.1764  0.5425
   73CHL1   C13 7834   4.333   4.849   7.749  0.1540 -0.7426 -0.3810
   73CHL1   C18 7835   4.331   4.695   7.715 -0.2289 -0.2062 -0.3245
   73CHL1  H18A 7836   4.277   4.632   7.789 -0.1786  0.3361  0.1873
   73CHL1  H18B 7837   4.275   4.688   7.620 -0.4496  2.5997 -0.4944
   73CHL1  H18C 7838   4.434   4.659   7.695 -0.7529 -1.3980 -0.9369
   73CHL1   C12 7839   4.196   4.920   7.737 -0.2079 -0.5186 -0.8636
   73CHL1  H12A 7840   4.111   4.876   7.794  0.2888  0.1626  0.4520
   73CHL1  H12B 7841   4.216   5.019   7.782 -0.1314 -1.3571  1.0728
   73CHL1   C11 7842   4.143   4.926   7.594 -0.0759  0.1017  0.1708
   73CHL1  H11A 7843   4.105   4.829   7.557  0.3666 -0.1619  0.3939
   73CHL1  H11B 7844   4.059   4.995   7.572 -2.5492 -2.4303  1.0882
   73CHL1    C9 7845   4.252   4.971   7.488  0.4181 -0.3175 -0.2930
   73CHL1    H9 7846   4.267   5.079   7.508  1.2648 -0.2830 -1.0634
   73CHL1   C10 7847   4.203   4.956   7.343 -0.3308  0.5554  0.7094
   73CHL1   C19 7848   4.159   4.808   7.307 -0.2579  0.3476  0.4483
   73CHL1  H19A 7849   4.066   4.777   7.360 -0.5268 -3.1546 -1.7490
   73CHL1  H19B 7850   4.137   4.788   7.200 -2.5601 -0.4417  1.0011
   73CHL1  H19C 7851   4.243   4.743   7.340 -0.3965  1.0086  2.2576
   73CHL1    C1 7852   4.080   5.049   7.304 -0.5365  0.2213  0.7475
   73CHL1   H1A 7853   3.994   5.005   7.357 -0.9975  0.1264 -0.0686
   73CHL1   H1B 7854   4.118   5.144   7.347  1.7038  0.2944 -1.1831
   73CHL1    C2 7855   4.050   5.069   7.155 -0.4860 -0.0569  0.0421
   73CHL1   H2A 7856   3.965   5.140   7.153  0.9225  1.7088 -0.2430
   73CHL1   H2B 7857   4.008   4.973   7.118  0.5222  0.1359 -1.7583
   73CHL1   C20 7858   4.369   4.794   8.006 -1.2429  0.1663  0.0369
   73CHL1   H20 7859   4.396   4.688   7.987  0.1934  0.0471  2.3152
   73CHL1   C21 7860   4.213   4.811   8.029 -0.0070 -0.5112  0.1510
   73CHL1  H21A 7861   4.184   4.918   8.038  0.6874 -0.2755 -0.3473
   73CHL1  H21B 7862   4.181   4.760   8.122 -2.7932 -0.2244 -0.5746
   73CHL1  H21C 7863   4.154   4.760   7.950  0.0191  1.1507 -0.9893
   73CHL1   C22 7864   4.455   4.830   8.131  0.5475 -0.5690 -0.5379
   73CHL1  H22A 7865   4.564   4.838   8.109  0.2353  2.5528 -1.4019
   73CHL1  H22B 7866   4.421   4.931   8.161  1.3106  0.1791 -2.0436
   73CHL1   C23 7867   4.448   4.738   8.246  0.1910 -0.0877  0.4391
   73CHL1  H23A 7868   4.348   4.729   8.293 -0.8936  3.5064 -0.8368
   73CHL1  H23B 7869   4.491   4.640   8.217 -0.8510 -0.9471  1.6733
   73CHL1   C24 7870   4.542   4.788   8.360  0.0300 -0.5531  0.4258
   73CHL1  H24A 7871   4.643   4.786   8.314 -0.4782 -0.5869 -0.7174
   73CHL1  H24B 7872   4.494   4.885   8.386 -0.5378 -0.9182  0.7519
   73CHL1   C25 7873   4.531   4.705   8.495  0.0299  0.0292  0.2485
   73CHL1   H25 7874   4.424   4.684   8.516  0.0603  1.4155  2.0370
   73CHL1   C26 7875   4.611   4.573   8.495 -0.4221  0.2944 -0.3226
   73CHL1  H26A 7876   4.575   4.502   8.573  2.9689 -0.7582  0.4580
   73CHL1  H26B 7877   4.600   4.523   8.397  2.4313  1.7597 -1.5235
   73CHL1  H26C 7878   4.719   4.596   8.512 -0.3402 -0.3835  0.1056
   73CHL1   C27 7879   4.568   4.786   8.611  0.4313 -0.0815  0.1562
   73CHL1  H27A 7880   4.567   4.746   8.715 -0.8795  1.4935  0.7941
   73CHL1  H27B 7881   4.673   4.820   8.601  0.5102 -0.6940 -1.2953
   73CHL1  H27C 7882   4.500   4.874   8.610 -1.1047 -1.2154 -1.2491
   74CHL1    C3 7883   3.515   3.999   7.028 -0.5034 -0.6846 -0.1373
   74CHL1    H3 7884   3.566   4.095   7.004  0.2233 -1.2111 -0.7605
   74CHL1    O3 7885   3.461   3.953   6.904  0.4879 -0.1796 -0.2097
   74CHL1   H3' 7886   3.475   3.858   6.916  0.4624 -0.1315  0.2010
   74CHL1    C4 7887   3.608   3.897   7.078  0.2195  0.0675 -0.3572
   74CHL1   H4A 7888   3.571   3.793   7.089  1.2247 -0.4680 -1.6554
   74CHL1   H4B 7889   3.682   3.885   6.996 -0.8830 -0.3938 -1.3259
   74CHL1    C5 7890   3.668   3.921   7.215  0.2869  0.5721  0.3353
   74CHL1    C6 7891   3.800   3.911   7.234 -0.0170  0.3118  0.3655
   74CHL1    H6 7892   3.865   3.880   7.150  0.1250  2.6809 -0.4756
   74CHL1    C7 7893   3.867   3.933   7.367 -0.2617  0.2269  0.1076
   74CHL1   H7A 7894   3.930   3.844   7.388  1.8924  0.9327 -2.8170
   74CHL1   H7B 7895   3.941   4.015   7.364 -0.0383  0.1046  1.5711
   74CHL1    C8 7896   3.762   3.949   7.482 -0.2119  0.6646  0.2833
   74CHL1    H8 7897   3.725   3.845   7.497  0.5000  0.0818 -1.5756
   74CHL1   C14 7898   3.832   4.010   7.594 -0.3923  0.3355 -0.5419
   74CHL1   H14 7899   3.872   4.109   7.563  0.7154  0.2491  0.5163
   74CHL1   C15 7900   3.954   3.922   7.643  0.6447  0.2941  0.2701
   74CHL1  H15A 7901   3.930   3.813   7.642 -1.4926  0.7222  0.1687
   74CHL1  H15B 7902   4.041   3.944   7.577 -0.4398  0.6537 -1.0899
   74CHL1   C16 7903   3.981   3.975   7.790  0.3378 -0.0341 -0.3086
   74CHL1  H16A 7904   3.973   3.888   7.859 -2.4740 -0.6809 -1.3221
   74CHL1  H16B 7905   4.078   4.030   7.789 -0.1892  0.9043 -0.2267
   74CHL1   C17 7906   3.861   4.074   7.827  0.0352  0.3695  0.1912
   74CHL1   H17 7907   3.892   4.178   7.805 -0.3867 -0.0008 -2.3784
   74CHL1   C13 7908   3.755   4.034   7.724 -0.0041  0.2117 -0.0172
   74CHL1   C18 7909   3.683   3.909   7.764 -0.6427 -0.6903 -0.0527
   74CHL1  H18A 7910   3.603   3.925   7.839 -0.6080 -0.8447  0.0182
   74CHL1  H18B 7911   3.640   3.854   7.678 -0.8394  0.6056 -0.8088
   74CHL1  H18C 7912   3.750   3.831   7.808  0.4927 -1.9564 -3.6017
   74CHL1   C12 7913   3.653   4.152   7.679 -0.5593 -0.2221  0.1159
   74CHL1  H12A 7914   3.581   4.165   7.763 -2.1877  1.1508 -1.4197
   74CHL1  H12B 7915   3.716   4.241   7.659  2.8740 -2.3036  0.8736
   74CHL1   C11 7916   3.569   4.096   7.559 -0.4794 -1.1724 -0.5312
   74CHL1  H11A 7917   3.491   4.033   7.608 -1.0878 -0.2999 -0.3500
   74CHL1  H11B 7918   3.513   4.185   7.522  2.0830  2.2397  3.0067
   74CHL1    C9 7919   3.650   4.041   7.436  0.4934  0.0852 -0.2439
   74CHL1    H9 7920   3.691   4.136   7.397  0.6326  0.0632 -0.1506
   74CHL1   C10 7921   3.569   3.972   7.325  0.2057 -0.8293  0.0097
   74CHL1   C19 7922   3.487   3.852   7.385 -0.2166 -0.0183  0.6538
   74CHL1  H19A 7923   3.444   3.797   7.299  1.8026 -2.3387  1.0094
   74CHL1  H19B 7924   3.548   3.774   7.435 -0.7605 -0.5376  0.5200
   74CHL1  H19C 7925   3.409   3.894   7.453  0.1015 -1.0192  1.6841
   74CHL1    C1 7926   3.480   4.080   7.265  0.2867 -0.5035 -0.2621
   74CHL1   H1A 7927   3.392   4.110   7.327 -0.7263 -0.0701 -1.8553
   74CHL1   H1B 7928   3.547   4.165   7.243 -0.4965  0.7332  1.7840
   74CHL1    C2 7929   3.405   4.029   7.131 -0.0622  0.4603 -0.3545
   74CHL1   H2A 7930   3.354   4.116   7.084  1.4989  0.1550 -2.8069
   74CHL1   H2B 7931   3.346   3.939   7.158 -0.9536  1.1356 -0.0108
   74CHL1   C20 7932   3.828   4.062   7.976  0.3638 -0.6115 -0.8517
   74CHL1   H20 7933   3.797   3.955   7.986 -4.1879  0.3685 -1.9873
   74CHL1   C21 7934   3.710   4.162   8.001 -0.5754  0.5114  0.3444
   74CHL1  H21A 7935   3.736   4.262   7.960  0.7432  1.5951  3.4938
   74CHL1  H21B 7936   3.696   4.166   8.111  1.0211  2.8242  0.5309
   74CHL1  H21C 7937   3.617   4.118   7.958 -0.7018 -0.7156  1.7530
   74CHL1   C22 7938   3.948   4.090   8.066 -0.1813 -0.2414 -0.2042
   74CHL1  H22A 7939   4.038   4.086   8.001 -2.1580  0.8377 -3.2648
   74CHL1  H22B 7940   3.942   4.198   8.093 -1.5602 -0.6594  1.3763
   74CHL1   C23 7941   3.955   4.001   8.195 -0.8940 -0.3312  0.0515
   74CHL1  H23A 7942   3.955   3.896   8.158 -0.5950 -0.2203 -0.2685
   74CHL1  H23B 7943   4.052   4.014   8.247  0.6224  0.0242 -2.6736
   74CHL1   C24 7944   3.837   3.998   8.295  0.1105  0.2053  0.4546
   74CHL1  H24A 7945   3.785   4.096   8.309  0.8284  0.2881  3.0837
   74CHL1  H24B 7946   3.764   3.937   8.238  1.3940 -2.3706  1.4112
   74CHL1   C25 7947   3.855   3.934   8.434 -0.2359 -0.9602 -0.0813
   74CHL1   H25 7948   3.950   3.982   8.466  0.0950  0.8179 -3.2817
   74CHL1   C26 7949   3.744   3.995   8.529 -0.3720  0.8921  0.2364
   74CHL1  H26A 7950   3.764   3.963   8.633 -1.5527  0.6854  0.4102
   74CHL1  H26B 7951   3.729   4.104   8.516  1.9911  1.1349 -1.0361
   74CHL1  H26C 7952   3.655   3.939   8.493 -1.4921  2.2246  0.8892
   74CHL1   C27 7953   3.880   3.781   8.434 -0.0984 -0.7808  0.0052
   74CHL1  H27A 7954   3.980   3.762   8.392  0.6439  1.3961  0.6266
   74CHL1  H27B 7955   3.874   3.746   8.539  0.6463 -0.4762  0.1557
   74CHL1  H27C 7956   3.802   3.726   8.378  0.8011 -0.7586 -1.3034
   75CHL1    C3 7957   5.136   5.377   6.630  0.1013 -0.1022  0.1213
   75CHL1    H3 7958   5.236   5.333   6.610  0.4182  0.6052  0.1024
   75CHL1    O3 7959   5.094   5.440   6.514  0.8614  0.6223  0.4187
   75CHL1   H3' 7960   5.011   5.481   6.538 -2.6184 -3.2222 -3.4665
   75CHL1    C4 7961   5.048   5.255   6.669  0.5814  0.5977  0.6243
   75CHL1   H4A 7962   4.943   5.285   6.644  0.9852  2.3428  0.8509
   75CHL1   H4B 7963   5.078   5.177   6.596  0.3537 -1.5050  2.6742
   75CHL1    C5 7964   5.056   5.200   6.811  0.8012  0.4258  0.2719
   75CHL1    C6 7965   5.083   5.073   6.845 -0.0646 -0.5656 -0.1639
   75CHL1    H6 7966   5.090   5.000   6.762  0.1956 -1.9372  1.0291
   75CHL1    C7 7967   5.089   5.023   6.989 -0.0808  0.4598  0.1348
   75CHL1   H7A 7968   5.047   4.922   7.005  0.2241  0.5204  1.4479
   75CHL1   H7B 7969   5.193   5.011   7.024 -0.6642 -1.8176  1.2929
   75CHL1    C8 7970   5.008   5.127   7.079 -0.0014 -0.6805  0.2968
   75CHL1    H8 7971   4.903   5.138   7.044  0.1686  2.0725  0.4416
   75CHL1   C14 7972   5.018   5.080   7.221 -0.7929  0.4094  0.1571
   75CHL1   H14 7973   5.126   5.076   7.250 -0.9764 -2.1672  0.6972
   75CHL1   C15 7974   4.964   4.940   7.259  0.0950  0.2034 -0.2580
   75CHL1  H15A 7975   4.861   4.923   7.219 -0.5452  0.0007  1.3835
   75CHL1  H15B 7976   5.027   4.860   7.214 -0.0200  1.0032 -1.9260
   75CHL1   C16 7977   4.958   4.942   7.415 -0.3079  0.4837  0.4885
   75CHL1  H16A 7978   4.862   4.901   7.452  0.2665 -0.5800  0.8498
   75CHL1  H16B 7979   5.032   4.869   7.453 -2.3299 -2.0861 -0.2341
   75CHL1   C17 7980   4.972   5.089   7.458 -0.4079  0.5972 -0.2657
   75CHL1   H17 7981   5.080   5.092   7.485 -0.3855 -0.9412 -0.1276
   75CHL1   C13 7982   4.948   5.171   7.325 -0.2774  0.0097 -0.4960
   75CHL1   C18 7983   4.794   5.179   7.303  0.7522  0.2240 -0.2560
   75CHL1  H18A 7984   4.784   5.223   7.201  1.8385  0.5306 -0.2510
   75CHL1  H18B 7985   4.744   5.083   7.326  2.1693 -0.5076 -0.1201
   75CHL1  H18C 7986   4.755   5.259   7.369 -0.4711  0.1654 -0.8863
   75CHL1   C12 7987   5.011   5.309   7.311  0.5850  0.1140  0.3696
   75CHL1  H12A 7988   4.973   5.381   7.387  2.0653  1.0887  0.2324
   75CHL1  H12B 7989   5.120   5.292   7.324  1.0901  2.4040 -0.3093
   75CHL1   C11 7990   4.999   5.374   7.169  0.4245  0.9326 -0.2812
   75CHL1  H11A 7991   4.895   5.411   7.152 -0.2160  0.0581  1.5236
   75CHL1  H11B 7992   5.060   5.466   7.167 -0.1523  1.3387  0.4643
   75CHL1    C9 7993   5.059   5.272   7.061 -0.2576  0.4979 -0.0606
   75CHL1    H9 7994   5.167   5.269   7.086 -0.5385  0.9962  1.3231
   75CHL1   C10 7995   5.032   5.314   6.913 -0.5614 -0.2645 -0.7956
   75CHL1   C19 7996   4.893   5.390   6.903 -0.6673  0.3771  0.6174
   75CHL1  H19A 7997   4.882   5.425   6.798 -1.0030  0.0126  0.5267
   75CHL1  H19B 7998   4.806   5.321   6.910  1.3103 -2.1380  1.7848
   75CHL1  H19C 7999   4.894   5.479   6.969  1.7722  0.5712  0.4183
   75CHL1    C1 8000   5.139   5.431   6.876  0.1177  0.4194  0.1622
   75CHL1   H1A 8001   5.134   5.508   6.956 -0.7210  0.7569 -0.2057
   75CHL1   H1B 8002   5.242   5.389   6.886  0.7731  2.0342  0.5575
   75CHL1    C2 8003   5.131   5.490   6.736  0.3989  0.0227  0.0725
   75CHL1   H2A 8004   5.214   5.558   6.708 -0.7624  1.2709 -0.4768
   75CHL1   H2B 8005   5.041   5.555   6.739  2.4219  2.9793  0.5698
   75CHL1   C20 8006   4.890   5.123   7.583  0.2396 -0.2051  0.1648
   75CHL1   H20 8007   4.781   5.110   7.563  0.6540 -1.9988 -1.1608
   75CHL1   C21 8008   4.915   5.268   7.624 -0.0698  0.5260  0.6158
   75CHL1  H21A 8009   4.867   5.334   7.547 -2.0380 -0.0926  1.2520
   75CHL1  H21B 8010   5.021   5.294   7.646  0.0238  0.6095  0.0884
   75CHL1  H21C 8011   4.855   5.297   7.713 -1.0855 -0.6910  0.3532
   75CHL1   C22 8012   4.924   5.029   7.701  0.8172  0.1411  0.1617
   75CHL1  H22A 8013   4.908   4.923   7.675 -0.3097  0.5508 -0.9213
   75CHL1  H22B 8014   5.031   5.054   7.718  1.3921 -0.2201 -2.5422
   75CHL1   C23 8015   4.870   5.077   7.837 -0.2422 -0.4225  0.1300
   75CHL1  H23A 8016   4.906   5.177   7.870 -1.9361 -0.3610  2.0106
   75CHL1  H23B 8017   4.760   5.087   7.831 -0.4295 -2.1399  0.4115
   75CHL1   C24 8018   4.904   4.978   7.952 -0.3819 -0.2749 -0.9285
   75CHL1  H24A 8019   4.848   4.882   7.940 -0.2620 -0.2253 -2.0302
   75CHL1  H24B 8020   5.014   4.962   7.941 -0.2247 -0.9097  1.1728
   75CHL1   C25 8021   4.876   5.034   8.092 -0.1406  0.3901 -0.0851
   75CHL1   H25 8022   4.773   5.074   8.084 -0.3007  0.3293  1.3526
   75CHL1   C26 8023   4.889   4.917   8.195  0.2983 -0.1194  0.6142
   75CHL1  H26A 8024   4.818   4.834   8.175  0.4071 -0.2359  0.7123
   75CHL1  H26B 8025   4.992   4.874   8.195  0.6237  0.4544 -2.3497
   75CHL1  H26C 8026   4.866   4.960   8.295 -0.5375  0.8641  0.0168
   75CHL1   C27 8027   4.954   5.155   8.141  0.5169  0.4336 -0.2680
   75CHL1  H27A 8028   4.936   5.232   8.063 -1.2016  0.6979  0.3543
   75CHL1  H27B 8029   4.910   5.178   8.241 -2.0508 -1.9843 -0.7040
   75CHL1  H27C 8030   5.060   5.129   8.160  0.5137 -0.4537 -1.3247
   76CHL1    C3 8031   2.395   6.563   7.200  0.4388 -0.2474 -0.0490
   76CHL1    H3 8032   2.504   6.585   7.203  0.7329 -1.7799  1.8570
   76CHL1    O3 8033   2.358   6.530   7.070 -0.7312  0.1793 -0.6056
   76CHL1   H3' 8034   2.382   6.604   7.014 -1.3122 -0.0710 -1.1925
   76CHL1    C4 8035   2.372   6.438   7.283  1.0528 -1.0777 -0.2515
   76CHL1   H4A 8036   2.268   6.401   7.281  1.0149 -1.0148  0.4040
   76CHL1   H4B 8037   2.437   6.356   7.245  0.0447 -0.6153 -3.2383
   76CHL1    C5 8038   2.401   6.466   7.429  0.0581 -0.1227 -0.0671
   76CHL1    C6 8039   2.473   6.383   7.500 -0.6966  0.1601  0.0866
   76CHL1    H6 8040   2.515   6.300   7.441  0.7580 -0.1365  1.4541
   76CHL1    C7 8041   2.525   6.406   7.636  0.6485 -0.4730 -0.3890
   76CHL1   H7A 8042   2.531   6.310   7.691  0.4329  0.5480  1.4889
   76CHL1   H7B 8043   2.624   6.455   7.650 -0.2106  2.6134 -3.4926
   76CHL1    C8 8044   2.426   6.487   7.718 -0.2046  0.9036 -0.4897
   76CHL1    H8 8045   2.330   6.431   7.724  0.0941  0.4027 -0.2636
   76CHL1   C14 8046   2.472   6.516   7.860  0.1401  0.1412  0.4020
   76CHL1   H14 8047   2.574   6.553   7.839  0.5289 -0.5611  0.9801
   76CHL1   C15 8048   2.484   6.395   7.950  0.1705 -0.2086  0.3694
   76CHL1  H15A 8049   2.392   6.334   7.950  0.6376 -0.9542  1.5340
   76CHL1  H15B 8050   2.567   6.327   7.921  1.6630  2.1183 -1.1501
   76CHL1   C16 8051   2.510   6.456   8.092  0.2507  0.4222 -0.3981
   76CHL1  H16A 8052   2.443   6.397   8.159  0.7763 -0.5245 -0.6871
   76CHL1  H16B 8053   2.611   6.445   8.135  0.1696 -0.9411 -0.4988
   76CHL1   C17 8054   2.464   6.611   8.080 -0.1243  1.0196  0.6704
   76CHL1   H17 8055   2.556   6.672   8.075 -0.1553  0.9679 -2.3181
   76CHL1   C13 8056   2.391   6.616   7.943  0.1909 -0.9224 -0.3861
   76CHL1   C18 8057   2.243   6.556   7.971 -0.6920 -0.4439 -0.5345
   76CHL1  H18A 8058   2.192   6.525   7.877 -2.0419 -2.6436  0.8329
   76CHL1  H18B 8059   2.258   6.475   8.045  2.7780  0.8671  0.4193
   76CHL1  H18C 8060   2.174   6.637   8.005  0.2678  0.0115  0.3939
   76CHL1   C12 8061   2.381   6.743   7.859  0.5684 -0.1314 -0.5724
   76CHL1  H12A 8062   2.304   6.798   7.917 -0.7643 -1.7278 -0.7335
   76CHL1  H12B 8063   2.471   6.807   7.854 -1.1051  2.2748 -1.3509
   76CHL1   C11 8064   2.324   6.723   7.719  0.5351 -0.4015 -0.1780
   76CHL1  H11A 8065   2.218   6.694   7.739  0.4553  0.7370  1.2160
   76CHL1  H11B 8066   2.327   6.819   7.664  1.6053 -0.4311 -0.1903
   76CHL1    C9 8067   2.402   6.618   7.638  0.1901 -0.6119 -0.2991
   76CHL1    H9 8068   2.505   6.657   7.626 -1.0229  2.8464 -0.5813
   76CHL1   C10 8069   2.350   6.595   7.489 -0.7558  0.0956 -0.0533
   76CHL1   C19 8070   2.192   6.585   7.487  0.3731 -0.3656 -0.2492
   76CHL1  H19A 8071   2.158   6.516   7.567 -2.9112  0.6493 -0.6620
   76CHL1  H19B 8072   2.150   6.684   7.511 -0.8750 -1.1924  1.1126
   76CHL1  H19C 8073   2.139   6.545   7.398  0.5622 -2.5097  0.5296
   76CHL1    C1 8074   2.380   6.720   7.397  0.0447  0.3147 -0.7204
   76CHL1   H1A 8075   2.335   6.809   7.446 -1.2639 -1.4534  1.4657
   76CHL1   H1B 8076   2.491   6.733   7.395  0.1565 -0.3391  0.1866
   76CHL1    C2 8077   2.326   6.686   7.259 -0.7535 -0.4067  0.4076
   76CHL1   H2A 8078   2.338   6.770   7.186 -3.3805 -0.3676 -0.0850
   76CHL1   H2B 8079   2.216   6.672   7.248 -0.6847 -0.3278 -0.4286
   76CHL1   C20 8080   2.393   6.666   8.198 -0.1772  0.6859  0.1804
   76CHL1   H20 8081   2.304   6.607   8.229  0.0468  1.9143  3.6453
   76CHL1   C21 8082   2.355   6.813   8.186  0.4972  0.3797 -0.1585
   76CHL1  H21A 8083   2.258   6.820   8.131  0.7522  0.0504 -0.6677
   76CHL1  H21B 8084   2.436   6.866   8.130  1.8342 -1.0294  0.3589
   76CHL1  H21C 8085   2.328   6.864   8.280  0.6515 -1.9047  1.1828
   76CHL1   C22 8086   2.478   6.661   8.328  0.0166  0.2771 -0.3124
   76CHL1  H22A 8087   2.532   6.565   8.315 -0.7432 -0.2876  0.5458
   76CHL1  H22B 8088   2.555   6.741   8.321 -0.7052  0.8739 -1.9649
   76CHL1   C23 8089   2.400   6.653   8.456  0.4814  0.1457 -0.1114
   76CHL1  H23A 8090   2.348   6.749   8.477  0.5693  0.0625  0.5192
   76CHL1  H23B 8091   2.315   6.581   8.448  0.5787  0.2242 -2.7230
   76CHL1   C24 8092   2.496   6.622   8.574  0.2106 -0.5407 -0.1402
   76CHL1  H24A 8093   2.540   6.524   8.544  0.5436 -0.7033  0.8471
   76CHL1  H24B 8094   2.587   6.685   8.581 -0.6844  0.5795  3.2085
   76CHL1   C25 8095   2.438   6.618   8.711  0.1057 -0.0999 -0.0317
   76CHL1   H25 8096   2.334   6.581   8.715  0.4563 -1.0332  1.4819
   76CHL1   C26 8097   2.515   6.513   8.802  0.5988  0.7916 -0.2543
   76CHL1  H26A 8098   2.481   6.411   8.773 -0.1010  0.9500  0.0119
   76CHL1  H26B 8099   2.626   6.517   8.799  0.8724  0.3450  3.9820
   76CHL1  H26C 8100   2.470   6.515   8.903 -3.1014 -2.4651 -1.5486
   76CHL1   C27 8101   2.435   6.762   8.779 -1.0487 -0.3945  0.0687
   76CHL1  H27A 8102   2.365   6.822   8.718  1.2755  0.1228 -2.2671
   76CHL1  H27B 8103   2.402   6.765   8.885  0.1214  1.0566  0.4199
   76CHL1  H27C 8104   2.532   6.815   8.771 -1.3825  0.4607  1.3340
   77CHL1    C3 8105   3.958   5.448   7.192  0.0226 -0.4948 -0.4320
   77CHL1    H3 8106   4.022   5.358   7.182  2.5392  0.9885  1.2051
   77CHL1    O3 8107   3.919   5.490   7.058 -0.3474 -0.1571  0.1880
   77CHL1   H3' 8108   4.002   5.516   7.018 -0.2552  0.1406  0.5580
   77CHL1    C4 8109   3.833   5.408   7.276 -0.2818  0.1401  0.6390
   77CHL1   H4A 8110   3.759   5.491   7.283 -0.3849  0.1287 -0.2519
   77CHL1   H4B 8111   3.789   5.324   7.218 -2.1877  1.3264  0.2636
   77CHL1    C5 8112   3.857   5.368   7.423  0.2458  0.1848  0.8528
   77CHL1    C6 8113   3.805   5.260   7.474  0.3463  0.3181  0.1183
   77CHL1    H6 8114   3.732   5.209   7.409 -0.3197  1.5644 -0.1594
   77CHL1    C7 8115   3.821   5.198   7.605 -0.4936 -0.2371 -0.2823
   77CHL1   H7A 8116   3.720   5.186   7.651  0.2409  0.6975  1.7080
   77CHL1   H7B 8117   3.870   5.099   7.607  0.6562  0.3316  0.8019
   77CHL1    C8 8118   3.894   5.296   7.701 -0.5402  0.1274  0.9956
   77CHL1    H8 8119   3.815   5.368   7.731 -0.9494  0.9060 -1.7239
   77CHL1   C14 8120   3.947   5.222   7.824 -0.1201 -0.4099  0.2917
   77CHL1   H14 8121   4.025   5.152   7.787  0.7149 -0.3414  1.8548
   77CHL1   C15 8122   3.864   5.126   7.914  0.1617 -0.2073 -0.3876
   77CHL1  H15A 8123   3.767   5.178   7.926  0.0008  0.2477 -3.1137
   77CHL1  H15B 8124   3.841   5.031   7.860 -0.5715 -0.0390 -0.3781
   77CHL1   C16 8125   3.946   5.106   8.039 -0.6874  0.3534 -0.2243
   77CHL1  H16A 8126   3.871   5.139   8.114 -0.0779  1.7111 -0.1717
   77CHL1  H16B 8127   3.990   5.010   8.072 -2.7971 -0.2653  0.9836
   77CHL1   C17 8128   4.058   5.213   8.030 -0.7263  1.0871 -0.0642
   77CHL1   H17 8129   4.140   5.155   7.982 -0.3335  2.5116 -1.1894
   77CHL1   C13 8130   4.027   5.311   7.917  0.4516 -0.0661 -0.7448
   77CHL1   C18 8131   3.933   5.409   7.988  0.0770 -0.2757 -0.4951
   77CHL1  H18A 8132   3.846   5.352   8.028 -0.4634  0.7764 -0.1559
   77CHL1  H18B 8133   3.979   5.470   8.069 -1.8675 -0.2038  0.6284
   77CHL1  H18C 8134   3.887   5.486   7.922 -0.4788  1.7763  2.0919
   77CHL1   C12 8135   4.138   5.376   7.846  0.1969  0.4917 -0.0337
   77CHL1  H12A 8136   4.195   5.439   7.917  1.6562 -1.6202  0.7920
   77CHL1  H12B 8137   4.210   5.302   7.804  0.3336 -0.3204  1.5525
   77CHL1   C11 8138   4.086   5.460   7.730  0.9925  0.6555 -0.0475
   77CHL1  H11A 8139   4.023   5.534   7.785  0.5040 -0.4284  0.8853
   77CHL1  H11B 8140   4.165   5.516   7.676  1.2418  1.0601  0.7232
   77CHL1    C9 8141   4.003   5.379   7.626  0.0337  0.1849 -0.2597
   77CHL1    H9 8142   4.077   5.304   7.591  1.8479  2.2186 -1.0221
   77CHL1   C10 8143   3.956   5.459   7.499  0.0090 -0.7514 -0.4969
   77CHL1   C19 8144   3.892   5.593   7.547  0.3899  0.0614 -0.3166
   77CHL1  H19A 8145   3.814   5.575   7.624  0.7406 -0.1753 -0.0146
   77CHL1  H19B 8146   3.970   5.658   7.590 -0.5778  0.9706  0.1008
   77CHL1  H19C 8147   3.850   5.656   7.466  0.7583  1.5982  0.6495
   77CHL1    C1 8148   4.080   5.492   7.402 -0.0668 -0.8601 -0.7171
   77CHL1   H1A 8149   4.156   5.554   7.454 -0.4496 -1.7751  1.0160
   77CHL1   H1B 8150   4.138   5.398   7.385  1.2111  0.0351 -1.5538
   77CHL1    C2 8151   4.035   5.551   7.267  0.1127 -0.5709  0.2786
   77CHL1   H2A 8152   4.122   5.589   7.209  0.8282 -0.5977  1.2932
   77CHL1   H2B 8153   3.968   5.637   7.289 -0.4791 -0.9141 -0.1633
   77CHL1   C20 8154   4.115   5.258   8.167  0.3568  0.4829 -0.0880
   77CHL1   H20 8155   4.181   5.344   8.143 -0.1890  1.0801  0.5141
   77CHL1   C21 8156   4.214   5.147   8.217  0.3815 -0.2920 -0.5245
   77CHL1  H21A 8157   4.155   5.053   8.227 -1.2057  0.8064  0.9933
   77CHL1  H21B 8158   4.257   5.172   8.316 -0.2045  0.8948 -0.5549
   77CHL1  H21C 8159   4.294   5.126   8.143 -0.6373 -1.3230 -1.3875
   77CHL1   C22 8160   4.021   5.297   8.281  0.5556  0.5803  0.5633
   77CHL1  H22A 8161   3.925   5.338   8.243  0.5341  1.9563  2.0078
   77CHL1  H22B 8162   3.993   5.209   8.341  1.4613  1.7547  2.8346
   77CHL1   C23 8163   4.079   5.404   8.380 -0.0560 -0.5817  0.5690
   77CHL1  H23A 8164   4.171   5.361   8.424  2.0053 -0.9180 -3.5496
   77CHL1  H23B 8165   4.112   5.487   8.314  1.8262 -1.3656  0.4712
   77CHL1   C24 8166   3.981   5.444   8.490 -0.6071 -0.2111  0.3667
   77CHL1  H24A 8167   4.022   5.530   8.547  2.0751  0.5532 -2.4492
   77CHL1  H24B 8168   3.891   5.470   8.430 -0.8406  2.1133  1.6159
   77CHL1   C25 8169   3.947   5.336   8.596  0.1277  0.2070  0.2454
   77CHL1   H25 8170   3.920   5.244   8.539  0.6076 -0.6594  1.3853
   77CHL1   C26 8171   4.073   5.310   8.686  0.1209  0.2399  0.7822
   77CHL1  H26A 8172   4.053   5.218   8.745 -0.7952 -1.3489 -1.8034
   77CHL1  H26B 8173   4.166   5.286   8.630 -0.0564  2.1362 -0.4142
   77CHL1  H26C 8174   4.090   5.406   8.738 -0.4688  0.1020  1.2387
   77CHL1   C27 8175   3.825   5.371   8.687 -0.1156 -0.2462 -0.0974
   77CHL1  H27A 8176   3.815   5.303   8.774 -0.1967 -0.5258 -0.3227
   77CHL1  H27B 8177   3.841   5.473   8.729  2.6989 -1.3192  1.7231
   77CHL1  H27C 8178   3.733   5.369   8.624  0.7716  2.0147 -1.6057
   78CHL1    C3 8179   6.805   5.986   6.807  0.3130 -0.2166  0.0476
   78CHL1    H3 8180   6.895   6.043   6.840  0.6060 -0.1127 -0.8882
   78CHL1    O3 8181   6.800   5.995   6.659  0.1138 -0.5753 -0.1826
   78CHL1   H3' 8182   6.721   5.944   6.638 -2.1407  2.5177 -0.0127
   78CHL1    C4 8183   6.828   5.836   6.853 -1.2305 -1.3739  0.6281
   78CHL1   H4A 8184   6.747   5.776   6.806  0.3087 -3.1432  0.1064
   78CHL1   H4B 8185   6.919   5.800   6.798  0.3679  0.0903  2.1878
   78CHL1    C5 8186   6.838   5.823   6.998  0.0119 -0.2743 -0.1263
   78CHL1    C6 8187   6.950   5.780   7.059 -0.1959  0.9185 -0.1872
   78CHL1    H6 8188   7.034   5.753   6.993  0.1503  1.7526 -0.0918
   78CHL1    C7 8189   6.965   5.767   7.209 -0.6090  0.4386 -0.1862
   78CHL1   H7A 8190   6.997   5.661   7.218 -2.9668 -0.3814 -0.7572
   78CHL1   H7B 8191   7.040   5.840   7.247  0.5254 -1.7277  1.9985
   78CHL1    C8 8192   6.826   5.773   7.282 -0.5096  0.4972 -0.5788
   78CHL1    H8 8193   6.780   5.673   7.265 -2.2973  1.4118 -1.3131
   78CHL1   C14 8194   6.848   5.805   7.434 -0.2642  0.4813 -0.0809
   78CHL1   H14 8195   6.894   5.905   7.426  0.3454  0.0906 -2.0487
   78CHL1   C15 8196   6.951   5.715   7.506 -0.2495 -0.5938  0.2912
   78CHL1  H15A 8197   6.930   5.611   7.471  2.2182 -0.8951 -0.5345
   78CHL1  H15B 8198   7.060   5.735   7.491 -0.3718  0.5830  0.8745
   78CHL1   C16 8199   6.909   5.728   7.649  0.0393 -0.3400 -0.4270
   78CHL1  H16A 8200   6.905   5.629   7.698  1.0083  0.3637  1.1553
   78CHL1  H16B 8201   6.977   5.778   7.721 -1.6993 -0.1739  1.1704
   78CHL1   C17 8202   6.775   5.815   7.657  0.2106  0.0449 -0.2797
   78CHL1   H17 8203   6.812   5.918   7.678 -1.0116  0.3112  0.7101
   78CHL1   C13 8204   6.720   5.811   7.512  0.0501  0.4660 -0.0148
   78CHL1   C18 8205   6.639   5.686   7.498 -0.3575 -0.1708 -0.2759
   78CHL1  H18A 8206   6.689   5.600   7.547 -0.2701 -0.1401 -0.3113
   78CHL1  H18B 8207   6.538   5.701   7.542 -0.5716 -1.4587 -0.2857
   78CHL1  H18C 8208   6.630   5.661   7.390  1.2952 -0.7746 -0.2917
   78CHL1   C12 8209   6.639   5.932   7.461  0.6909  0.1483 -0.7285
   78CHL1  H12A 8210   6.540   5.932   7.511 -0.0322 -2.3124 -1.9751
   78CHL1  H12B 8211   6.691   6.030   7.467 -1.0642  1.0337  0.9596
   78CHL1   C11 8212   6.604   5.918   7.309 -0.1258  0.0993  0.2612
   78CHL1  H11A 8213   6.528   5.838   7.303  0.4726 -0.6470  1.9147
   78CHL1  H11B 8214   6.557   6.011   7.271 -1.0825 -0.1621  0.7621
   78CHL1    C9 8215   6.733   5.881   7.224 -0.0622 -0.1668 -0.9054
   78CHL1    H9 8216   6.783   5.979   7.235 -3.5755  1.9339 -2.1677
   78CHL1   C10 8217   6.714   5.878   7.070  0.2793  0.2321 -1.1144
   78CHL1   C19 8218   6.597   5.786   7.038 -0.4436  0.1483 -0.4208
   78CHL1  H19A 8219   6.563   5.792   6.932 -0.2903 -0.6133 -0.5154
   78CHL1  H19B 8220   6.631   5.684   7.063 -1.1058  0.4133  1.8057
   78CHL1  H19C 8221   6.506   5.814   7.095 -1.3127 -2.6802 -0.2563
   78CHL1    C1 8222   6.684   6.022   7.019  0.3239  0.7673  0.0254
   78CHL1   H1A 8223   6.590   6.056   7.067 -0.6290 -1.6227 -0.0092
   78CHL1   H1B 8224   6.771   6.087   7.044  1.3291 -0.4991 -0.0950
   78CHL1    C2 8225   6.678   6.041   6.868  0.1207  0.2945  1.1286
   78CHL1   H2A 8226   6.656   6.143   6.831 -2.2617 -0.2524  0.8452
   78CHL1   H2B 8227   6.603   5.980   6.813 -0.8609  3.0179 -0.7809
   78CHL1   C20 8228   6.681   5.782   7.782 -0.6517  0.8394  0.1020
   78CHL1   H20 8229   6.652   5.675   7.772 -0.6797  0.8397  0.1734
   78CHL1   C21 8230   6.558   5.876   7.780 -0.0877 -0.1649  0.2739
   78CHL1  H21A 8231   6.495   5.849   7.692  0.6109 -0.5735 -0.1089
   78CHL1  H21B 8232   6.585   5.983   7.766 -0.5566 -0.0420  0.2933
   78CHL1  H21C 8233   6.494   5.876   7.870 -1.1008  0.4275 -0.4268
   78CHL1   C22 8234   6.765   5.800   7.916 -0.3198 -0.6581  0.5495
   78CHL1  H22A 8235   6.863   5.748   7.910 -1.4033 -2.6418 -1.3581
   78CHL1  H22B 8236   6.783   5.909   7.924 -1.8573 -0.4508  1.7035
   78CHL1   C23 8237   6.687   5.736   8.029 -0.5137  0.0704  0.4436
   78CHL1  H23A 8238   6.591   5.787   8.051 -1.0321 -0.8090  0.2656
   78CHL1  H23B 8239   6.649   5.634   8.007 -0.7189 -0.2950  2.3311
   78CHL1   C24 8240   6.762   5.746   8.158  0.4783  0.1202  0.2912
   78CHL1  H24A 8241   6.866   5.717   8.131 -0.3791  1.2312 -5.5640
   78CHL1  H24B 8242   6.768   5.848   8.203 -0.1175 -0.1881  1.0961
   78CHL1   C25 8243   6.718   5.646   8.270  0.2157  0.5959 -0.0557
   78CHL1   H25 8244   6.612   5.667   8.293 -0.7793 -3.5748  0.0221
   78CHL1   C26 8245   6.726   5.499   8.234 -0.8028 -0.0268  0.5662
   78CHL1  H26A 8246   6.701   5.437   8.323 -1.0727 -2.5455 -1.1579
   78CHL1  H26B 8247   6.657   5.473   8.151  1.8585  0.6426 -2.0152
   78CHL1  H26C 8248   6.833   5.487   8.208 -0.4533  2.8295  0.3368
   78CHL1   C27 8249   6.789   5.671   8.406  0.4526 -0.0530 -0.6970
   78CHL1  H27A 8250   6.898   5.652   8.397  1.3477  2.5434  2.7557
   78CHL1  H27B 8251   6.785   5.779   8.431  0.9629  0.7455 -3.6199
   78CHL1  H27C 8252   6.735   5.609   8.480  0.3947  0.3482 -0.4051
   79CHL1    C3 8253   5.319   6.387   6.646 -0.2414 -0.8893 -0.8332
   79CHL1    H3 8254   5.306   6.278   6.666 -0.3017 -1.0301 -1.6231
   79CHL1    O3 8255   5.319   6.401   6.506 -0.0757 -0.4158 -0.3289
   79CHL1   H3' 8256   5.289   6.490   6.489  0.3158 -0.2181 -0.0082
   79CHL1    C4 8257   5.195   6.455   6.699  0.2065 -0.2341 -0.5120
   79CHL1   H4A 8258   5.189   6.563   6.675 -0.9415 -0.2058 -0.1517
   79CHL1   H4B 8259   5.116   6.389   6.656  0.1258 -0.7821  0.4538
   79CHL1    C5 8260   5.193   6.440   6.848  0.4701 -0.1250 -0.6144
   79CHL1    C6 8261   5.099   6.375   6.915 -0.4140  0.0310  0.4301
   79CHL1    H6 8262   5.015   6.320   6.870 -2.0866  3.0307 -0.3821
   79CHL1    C7 8263   5.099   6.377   7.066  0.4914  0.2411  0.7685
   79CHL1   H7A 8264   4.998   6.393   7.110  0.4161  2.1765 -0.0036
   79CHL1   H7B 8265   5.127   6.273   7.092  1.0000  0.1168 -0.2413
   79CHL1    C8 8266   5.185   6.483   7.134  0.0028 -0.0336  0.6399
   79CHL1    H8 8267   5.135   6.581   7.122  2.4938  1.1999 -0.6342
   79CHL1   C14 8268   5.200   6.442   7.281  0.8316 -0.5293 -0.0403
   79CHL1   H14 8269   5.255   6.345   7.279  1.8594  0.0328  0.5539
   79CHL1   C15 8270   5.073   6.409   7.368 -0.3119  0.6139  0.0699
   79CHL1  H15A 8271   4.996   6.486   7.351 -1.7936 -0.6109  1.0169
   79CHL1  H15B 8272   5.035   6.310   7.335 -1.9268  1.3303 -0.2919
   79CHL1   C16 8273   5.122   6.420   7.515  0.2675  0.2446 -0.2143
   79CHL1  H16A 8274   5.056   6.489   7.572 -1.2310  0.5530 -2.2339
   79CHL1  H16B 8275   5.117   6.316   7.554 -0.1620 -0.3241 -1.7382
   79CHL1   C17 8276   5.271   6.476   7.510 -0.6183  0.6931 -0.6789
   79CHL1   H17 8277   5.338   6.387   7.502  1.7773  2.3652 -0.3683
   79CHL1   C13 8278   5.284   6.539   7.370 -0.2791 -0.3308  0.3172
   79CHL1   C18 8279   5.200   6.673   7.380 -0.5413  1.4150  0.1055
   79CHL1  H18A 8280   5.268   6.751   7.418 -0.0416  0.3819  1.3919
   79CHL1  H18B 8281   5.170   6.708   7.279 -1.9173  4.1202  1.3415
   79CHL1  H18C 8282   5.106   6.668   7.439 -0.7748  0.4231 -0.3318
   79CHL1   C12 8283   5.423   6.539   7.305 -0.7528 -0.6528  0.2323
   79CHL1  H12A 8284   5.491   6.614   7.351  0.8758 -1.0879 -1.3122
   79CHL1  H12B 8285   5.462   6.435   7.305  0.0204 -0.3739  0.9760
   79CHL1   C11 8286   5.423   6.573   7.157  0.1710  0.0669  0.4467
   79CHL1  H11A 8287   5.386   6.677   7.149 -1.4002 -0.5028 -0.0426
   79CHL1  H11B 8288   5.525   6.569   7.111 -0.1108 -3.0673 -0.1669
   79CHL1    C9 8289   5.318   6.483   7.080 -0.3151  0.2995  0.8279
   79CHL1    H9 8290   5.368   6.384   7.093  1.0605  1.1080  1.9026
   79CHL1   C10 8291   5.314   6.506   6.926  0.4049 -0.2020  0.2658
   79CHL1   C19 8292   5.321   6.663   6.901  0.3748  0.6527 -0.0998
   79CHL1  H19A 8293   5.408   6.718   6.941  1.3251  1.9484 -3.6521
   79CHL1  H19B 8294   5.316   6.689   6.793 -1.7138  0.1769 -0.1622
   79CHL1  H19C 8295   5.227   6.694   6.952  0.9520 -0.1362  1.5186
   79CHL1    C1 8296   5.441   6.448   6.864  0.4570 -0.0560 -0.1588
   79CHL1   H1A 8297   5.531   6.505   6.896  0.4200  0.1135 -0.3581
   79CHL1   H1B 8298   5.470   6.351   6.910 -0.2422 -0.3886 -0.4155
   79CHL1    C2 8299   5.452   6.438   6.709  0.0092  0.8680 -0.1100
   79CHL1   H2A 8300   5.532   6.367   6.680 -1.4010 -1.2328  0.9312
   79CHL1   H2B 8301   5.463   6.539   6.663  1.2293  0.9590  0.3625
   79CHL1   C20 8302   5.313   6.550   7.640  0.0000  0.3821  0.8895
   79CHL1   H20 8303   5.228   6.620   7.650 -3.0803 -2.9563  0.3457
   79CHL1   C21 8304   5.447   6.628   7.629 -0.2948  0.4854 -0.3915
   79CHL1  H21A 8305   5.472   6.687   7.720  0.8400  0.4716 -0.6736
   79CHL1  H21B 8306   5.439   6.706   7.551  0.8935  1.1341  0.1095
   79CHL1  H21C 8307   5.531   6.560   7.604  0.8004  0.7124  2.2492
   79CHL1   C22 8308   5.302   6.473   7.772 -0.0070  0.2462  0.1684
   79CHL1  H22A 8309   5.203   6.421   7.767  0.1264  0.0707 -3.8176
   79CHL1  H22B 8310   5.378   6.392   7.769  2.6919  2.6575 -1.0667
   79CHL1   C23 8311   5.334   6.564   7.893  0.4228  0.0485 -0.1106
   79CHL1  H23A 8312   5.444   6.580   7.888  0.3665  0.6412  0.3691
   79CHL1  H23B 8313   5.293   6.667   7.888 -0.2606  0.0266  3.0639
   79CHL1   C24 8314   5.287   6.513   8.026  0.1539 -0.5019 -0.1587
   79CHL1  H24A 8315   5.177   6.523   8.016  0.2257  0.6905  0.0427
   79CHL1  H24B 8316   5.325   6.410   8.040 -1.4653 -1.0809  0.2164
   79CHL1   C25 8317   5.325   6.601   8.149 -0.5561  0.3334 -0.5474
   79CHL1   H25 8318   5.303   6.708   8.132 -2.6074 -0.2366 -1.8799
   79CHL1   C26 8319   5.253   6.561   8.275  0.1439 -0.1424 -0.7865
   79CHL1  H26A 8320   5.290   6.625   8.358 -2.0563  0.8439 -0.4994
   79CHL1  H26B 8321   5.146   6.591   8.270  0.0071 -0.5876 -0.5334
   79CHL1  H26C 8322   5.251   6.457   8.312 -1.7221  0.3247  0.5627
   79CHL1   C27 8323   5.480   6.606   8.181 -0.1661  0.4074 -0.5779
   79CHL1  H27A 8324   5.542   6.619   8.090 -0.6941 -0.1250 -1.0219
   79CHL1  H27B 8325   5.500   6.696   8.242  0.4084 -0.3248  0.3376
   79CHL1  H27C 8326   5.522   6.519   8.235  1.5357  1.2818 -0.4429
   80CHL1    C3 8327   0.398   3.895   6.886  0.3485  0.3956 -0.6563
   80CHL1    H3 8328   0.303   3.859   6.840 -0.2864 -0.4121  1.2023
   80CHL1    O3 8329   0.466   3.965   6.781 -0.3209  0.2352 -0.0127
   80CHL1   H3' 8330   0.476   3.903   6.709 -1.5148  0.1727 -0.1452
   80CHL1    C4 8331   0.377   3.989   7.006 -0.1790  0.4569  0.7235
   80CHL1   H4A 8332   0.477   4.035   7.023 -0.7546  0.9943  2.9978
   80CHL1   H4B 8333   0.317   4.081   6.988  1.4836  1.8280  1.8137
   80CHL1    C5 8334   0.328   3.919   7.132 -0.0359 -0.2838 -0.8123
   80CHL1    C6 8335   0.219   3.972   7.194 -0.2187  0.4892 -0.5272
   80CHL1    H6 8336   0.155   4.044   7.140 -2.4496  1.1543  2.6963
   80CHL1    C7 8337   0.172   3.918   7.319 -0.5113 -0.1388  0.6487
   80CHL1   H7A 8338   0.153   4.006   7.385 -0.9177 -1.2596  2.0923
   80CHL1   H7B 8339   0.081   3.855   7.310  0.6405 -1.7308 -0.1536
   80CHL1    C8 8340   0.282   3.834   7.387  0.5777  0.8086 -0.7705
   80CHL1    H8 8341   0.368   3.893   7.427  0.7602  0.5524 -0.7850
   80CHL1   C14 8342   0.228   3.763   7.512  0.4382  0.9856  0.0157
   80CHL1   H14 8343   0.152   3.690   7.478  0.8041  0.3871  0.4729
   80CHL1   C15 8344   0.147   3.844   7.609  0.0368 -0.7235  0.1744
   80CHL1  H15A 8345   0.188   3.947   7.622  1.0322 -1.0722 -0.0707
   80CHL1  H15B 8346   0.043   3.869   7.580  0.7197  0.5443 -1.3590
   80CHL1   C16 8347   0.149   3.759   7.735  0.6325  0.4751 -0.4277
   80CHL1  H16A 8348   0.205   3.816   7.812  0.6095  2.0878 -1.5671
   80CHL1  H16B 8349   0.050   3.740   7.782  1.3686  0.9326  1.4060
   80CHL1   C17 8350   0.238   3.633   7.708  1.5351  1.3711  0.6094
   80CHL1   H17 8351   0.178   3.550   7.667  3.7644 -0.5729  1.0775
   80CHL1   C13 8352   0.326   3.675   7.586  0.5130 -0.2180 -0.1714
   80CHL1   C18 8353   0.448   3.757   7.648 -0.0481 -0.1509  0.1290
   80CHL1  H18A 8354   0.502   3.811   7.567  0.1409  2.1047  1.6618
   80CHL1  H18B 8355   0.408   3.832   7.719 -0.5563  0.5211 -0.8486
   80CHL1  H18C 8356   0.521   3.686   7.691  0.9635  0.1942 -0.9444
   80CHL1   C12 8357   0.366   3.564   7.480 -0.4538  0.1400 -0.1858
   80CHL1  H12A 8358   0.440   3.491   7.519 -1.2676 -0.2816  0.5919
   80CHL1  H12B 8359   0.276   3.503   7.460 -1.2335  0.4414  2.1049
   80CHL1   C11 8360   0.421   3.624   7.354 -0.0780  0.0432 -0.2152
   80CHL1  H11A 8361   0.520   3.663   7.387  0.1812 -0.6031 -0.2066
   80CHL1  H11B 8362   0.442   3.540   7.284 -1.0986 -0.3547 -0.0593
   80CHL1    C9 8363   0.333   3.731   7.288 -0.2042  0.4348 -0.1788
   80CHL1    H9 8364   0.246   3.674   7.247  0.5363  0.1046 -1.3392
   80CHL1   C10 8365   0.407   3.798   7.180 -0.3352  0.2491 -0.0415
   80CHL1   C19 8366   0.537   3.872   7.220 -0.0920  0.4307 -0.1189
   80CHL1  H19A 8367   0.590   3.923   7.136  0.5560  2.1442  1.2732
   80CHL1  H19B 8368   0.521   3.953   7.294  0.4230  1.3747 -1.0112
   80CHL1  H19C 8369   0.610   3.794   7.251 -0.9684 -0.5613 -0.4691
   80CHL1    C1 8370   0.431   3.707   7.059 -0.1453 -0.0728  0.7714
   80CHL1   H1A 8371   0.514   3.637   7.082 -1.6317 -1.8613  0.9340
   80CHL1   H1B 8372   0.334   3.661   7.030 -1.0759  2.3889 -0.3466
   80CHL1    C2 8373   0.485   3.781   6.932  0.2058 -0.1290  0.0621
   80CHL1   H2A 8374   0.503   3.708   6.851  1.8927 -1.2129  1.3480
   80CHL1   H2B 8375   0.579   3.838   6.952  0.3383 -0.0975 -0.6298
   80CHL1   C20 8376   0.307   3.568   7.826  0.1964 -0.5589  0.1304
   80CHL1   H20 8377   0.380   3.639   7.869 -1.0856 -0.3307  2.0837
   80CHL1   C21 8378   0.387   3.439   7.782  0.3592 -0.0841 -0.4038
   80CHL1  H21A 8379   0.425   3.386   7.872 -0.0374  0.1578 -0.0896
   80CHL1  H21B 8380   0.475   3.466   7.720  1.5155 -2.7085 -0.0248
   80CHL1  H21C 8381   0.319   3.373   7.724 -0.4887  1.5761 -1.3784
   80CHL1   C22 8382   0.215   3.529   7.947 -0.1711  0.5262 -0.1705
   80CHL1  H22A 8383   0.276   3.487   8.029  0.0703  1.5653  0.1987
   80CHL1  H22B 8384   0.177   3.630   7.976  0.0467  1.6084 -3.2370
   80CHL1   C23 8385   0.094   3.431   7.907  0.0261  0.1073 -0.0338
   80CHL1  H23A 8386   0.037   3.487   7.830  1.0696  2.5580  0.8849
   80CHL1  H23B 8387   0.131   3.338   7.859  1.0735  1.5412 -2.2013
   80CHL1   C24 8388  -0.002   3.412   8.022 -0.2435  0.9404  0.1716
   80CHL1  H24A 8389   0.044   3.352   8.104 -0.8045  1.2308  0.7033
   80CHL1  H24B 8390  -0.011   3.510   8.073 -1.5162  0.3368  1.1639
   80CHL1   C25 8391  -0.145   3.368   7.988  0.6011  1.1389  0.1329
   80CHL1   H25 8392  -0.185   3.443   7.915  0.0068  1.2326  0.5428
   80CHL1   C26 8393  -0.144   3.232   7.904  0.6980 -0.2295  0.1523
   80CHL1  H26A 8394  -0.248   3.193   7.897 -0.2406  1.7938  1.6954
   80CHL1  H26B 8395  -0.115   3.252   7.799 -0.0783  1.0932  0.1710
   80CHL1  H26C 8396  -0.079   3.162   7.961 -0.3518 -1.6382 -0.3137
   80CHL1   C27 8397  -0.229   3.365   8.118  0.4138  0.7770 -0.0594
   80CHL1  H27A 8398  -0.333   3.343   8.086  0.8240 -1.8955  0.2241
   80CHL1  H27B 8399  -0.197   3.278   8.179 -0.5605  0.4261 -0.0322
   80CHL1  H27C 8400  -0.214   3.460   8.174  1.2273  0.1242  0.8585
   81CHL1    C3 8401   5.717   2.220   6.877 -0.2184 -0.0047 -0.4457
   81CHL1    H3 8402   5.612   2.184   6.877 -0.3088  0.2400 -1.0387
   81CHL1    O3 8403   5.744   2.258   6.744 -0.1850  0.8846  0.4306
   81CHL1   H3' 8404   5.837   2.283   6.752  0.0258  1.1624 -2.1674
   81CHL1    C4 8405   5.723   2.334   6.979  0.2998 -0.4008 -0.7161
   81CHL1   H4A 8406   5.815   2.395   6.962  0.7209 -0.9311 -0.3897
   81CHL1   H4B 8407   5.653   2.413   6.945 -0.3080  0.6676  2.5937
   81CHL1    C5 8408   5.715   2.293   7.117 -0.3381 -0.4570 -1.1008
   81CHL1    C6 8409   5.623   2.351   7.198 -0.4118 -0.3505  0.4701
   81CHL1    H6 8410   5.553   2.427   7.160  1.2033  0.2084 -1.5574
   81CHL1    C7 8411   5.633   2.316   7.348  0.1599  0.1671  0.5970
   81CHL1   H7A 8412   5.630   2.416   7.397  0.5620 -0.2792  1.5561
   81CHL1   H7B 8413   5.539   2.262   7.375  0.5810 -0.3573  1.0370
   81CHL1    C8 8414   5.761   2.240   7.397 -0.7113 -0.8327 -0.0699
   81CHL1    H8 8415   5.845   2.312   7.403 -0.2233 -1.3665 -0.3875
   81CHL1   C14 8416   5.739   2.180   7.548 -0.0269  0.3148  0.0690
   81CHL1   H14 8417   5.652   2.111   7.547  0.4526 -0.3004  0.3182
   81CHL1   C15 8418   5.701   2.278   7.667 -0.0075 -0.6690  0.0381
   81CHL1  H15A 8419   5.769   2.366   7.667 -2.4153  1.3009 -0.1467
   81CHL1  H15B 8420   5.594   2.309   7.668  0.3980  0.9030 -1.2082
   81CHL1   C16 8421   5.732   2.195   7.794 -0.1352 -0.2498 -0.0888
   81CHL1  H16A 8422   5.791   2.261   7.861 -1.6229 -0.1708  1.2037
   81CHL1  H16B 8423   5.647   2.167   7.860  0.9138  0.4131  1.6033
   81CHL1   C17 8424   5.809   2.065   7.749 -0.8235 -0.7778 -0.3757
   81CHL1   H17 8425   5.743   1.980   7.721 -1.7990  0.2919 -1.4134
   81CHL1   C13 8426   5.854   2.102   7.604  0.2298 -0.2013 -0.7189
   81CHL1   C18 8427   5.974   2.196   7.605 -0.1514 -0.0427 -0.1602
   81CHL1  H18A 8428   6.059   2.148   7.657  0.3591  1.3683  0.3439
   81CHL1  H18B 8429   6.013   2.232   7.508  0.8785  0.0253  0.2674
   81CHL1  H18C 8430   5.955   2.289   7.664  1.0767  0.4088 -0.4585
   81CHL1   C12 8431   5.879   1.986   7.500 -0.3682  0.1245 -0.2846
   81CHL1  H12A 8432   5.968   1.927   7.531  0.0381 -0.1105 -1.8040
   81CHL1  H12B 8433   5.782   1.932   7.508 -1.0036  1.2645 -0.2435
   81CHL1   C11 8434   5.914   2.036   7.364 -0.2568 -0.1041 -0.1346
   81CHL1  H11A 8435   6.011   2.088   7.378 -1.0250  0.8725  1.9083
   81CHL1  H11B 8436   5.924   1.952   7.291 -0.3981  0.6873 -1.0906
   81CHL1    C9 8437   5.797   2.129   7.310 -0.5333  0.7737 -0.1866
   81CHL1    H9 8438   5.706   2.067   7.304  1.3696 -2.4733  1.6444
   81CHL1   C10 8439   5.820   2.189   7.165 -0.4635 -0.0642 -0.0358
   81CHL1   C19 8440   5.962   2.250   7.155 -0.0446 -0.2421 -0.4848
   81CHL1  H19A 8441   6.048   2.184   7.177  0.3447  0.2879 -0.4208
   81CHL1  H19B 8442   5.971   2.284   7.049 -2.5174  0.0029 -0.6901
   81CHL1  H19C 8443   5.967   2.338   7.222 -1.2738 -0.2704 -0.3292
   81CHL1    C1 8444   5.813   2.064   7.063  0.4983  0.3296  0.4566
   81CHL1   H1A 8445   5.902   2.003   7.091  1.9522  0.7387 -2.7946
   81CHL1   H1B 8446   5.718   2.017   7.096  1.4203 -0.7091  1.7887
   81CHL1    C2 8447   5.817   2.098   6.910 -0.0724 -0.3106 -0.2355
   81CHL1   H2A 8448   5.792   2.015   6.842 -1.3900 -1.1305  1.1858
   81CHL1   H2B 8449   5.921   2.122   6.878  0.1683 -1.6142 -0.4848
   81CHL1   C20 8450   5.913   2.015   7.850 -0.6122  0.2018  0.2621
   81CHL1   H20 8451   5.982   2.101   7.847 -1.8682  1.2181 -0.4989
   81CHL1   C21 8452   5.976   1.881   7.816 -0.5073 -0.5602 -0.7943
   81CHL1  H21A 8453   6.040   1.852   7.901 -3.6940 -1.7879  1.3762
   81CHL1  H21B 8454   6.025   1.874   7.716  1.3860  0.4830  0.0146
   81CHL1  H21C 8455   5.898   1.801   7.809  0.5703 -1.5019 -4.5890
   81CHL1   C22 8456   5.853   2.007   8.000  0.2772  0.0094 -0.0755
   81CHL1  H22A 8457   5.770   2.077   8.025 -1.3535 -1.9023  0.1331
   81CHL1  H22B 8458   5.799   1.909   8.000  1.3356 -0.5843 -0.8771
   81CHL1   C23 8459   5.956   1.997   8.117  0.0721  0.1440  0.1047
   81CHL1  H23A 8460   5.910   1.972   8.215 -0.1543  2.3817  0.6183
   81CHL1  H23B 8461   6.021   1.909   8.100  0.5661  0.4411  0.4244
   81CHL1   C24 8462   6.038   2.126   8.135  0.3021  0.1055  0.6481
   81CHL1  H24A 8463   6.080   2.158   8.037  0.0005 -0.3284  0.3741
   81CHL1  H24B 8464   5.974   2.209   8.170 -0.3564 -0.5517  1.0346
   81CHL1   C25 8465   6.158   2.107   8.220  0.4829  0.2058 -0.0371
   81CHL1   H25 8466   6.210   2.018   8.178  0.0437 -1.0122  1.8639
   81CHL1   C26 8467   6.242   2.231   8.214  0.1287 -0.2447  0.3916
   81CHL1  H26A 8468   6.223   2.302   8.297  1.1631 -1.0545  1.3466
   81CHL1  H26B 8469   6.346   2.193   8.226 -0.1744 -0.7589  1.5001
   81CHL1  H26C 8470   6.231   2.280   8.115 -0.0082 -0.0025  0.5258
   81CHL1   C27 8471   6.125   2.080   8.366  0.3293  0.0057  0.0633
   81CHL1  H27A 8472   6.227   2.078   8.411  1.1735 -1.1036 -1.7680
   81CHL1  H27B 8473   6.067   2.157   8.421  0.2107 -0.6471  0.8745
   81CHL1  H27C 8474   6.088   1.976   8.378  1.1577 -0.3530 -0.4511
   82CHL1    C3 8475   2.712   3.442   6.755  0.1749  0.3238  0.6256
   82CHL1    H3 8476   2.821   3.429   6.743 -0.0369 -0.3708 -0.6341
   82CHL1    O3 8477   2.651   3.447   6.622 -0.3683 -0.1361  0.0057
   82CHL1   H3' 8478   2.556   3.450   6.631 -0.4811  1.6203 -1.1224
   82CHL1    C4 8479   2.653   3.325   6.840 -0.1211 -0.1976 -0.1431
   82CHL1   H4A 8480   2.543   3.317   6.829 -0.0339 -0.7278 -0.7102
   82CHL1   H4B 8481   2.690   3.231   6.793  0.6363  0.3174 -0.5778
   82CHL1    C5 8482   2.700   3.321   6.983  0.2636  0.0043 -0.7114
   82CHL1    C6 8483   2.756   3.211   7.035 -0.4115 -1.0911 -1.0162
   82CHL1    H6 8484   2.762   3.121   6.973  0.5363 -0.4472 -1.9011
   82CHL1    C7 8485   2.798   3.205   7.174  0.2060 -0.6372 -1.0095
   82CHL1   H7A 8486   2.769   3.105   7.211  3.4764 -1.5325 -0.6145
   82CHL1   H7B 8487   2.907   3.221   7.182  0.0850  1.0596 -2.1152
   82CHL1    C8 8488   2.739   3.319   7.264  0.0336 -0.0357  0.6786
   82CHL1    H8 8489   2.633   3.299   7.289 -0.5664  1.4364 -0.5418
   82CHL1   C14 8490   2.810   3.331   7.404  0.7154 -0.2339  0.6676
   82CHL1   H14 8491   2.911   3.362   7.370  0.5696  0.0740  0.5140
   82CHL1   C15 8492   2.827   3.193   7.481  0.1574  0.1338 -0.8489
   82CHL1  H15A 8493   2.729   3.141   7.470  0.1110 -0.1553  0.7592
   82CHL1  H15B 8494   2.911   3.123   7.461 -1.6240 -2.2083 -0.5184
   82CHL1   C16 8495   2.845   3.244   7.628 -0.3420 -0.4188  0.3818
   82CHL1  H16A 8496   2.764   3.195   7.687 -1.8637 -2.8219 -3.3456
   82CHL1  H16B 8497   2.946   3.213   7.661  0.1865 -1.8654 -2.3336
   82CHL1   C17 8498   2.838   3.403   7.623  0.2215  0.5374  0.2847
   82CHL1   H17 8499   2.940   3.433   7.592  0.0222 -0.5874 -1.6388
   82CHL1   C13 8500   2.749   3.427   7.503 -0.6127 -0.1899 -0.2625
   82CHL1   C18 8501   2.601   3.400   7.539  0.5532 -0.1420 -0.3526
   82CHL1  H18A 8502   2.541   3.410   7.446  1.4370  0.5742 -0.8692
   82CHL1  H18B 8503   2.592   3.294   7.572  0.5771 -0.1597 -0.4017
   82CHL1  H18C 8504   2.564   3.464   7.621  1.0003  0.2771 -0.4701
   82CHL1   C12 8505   2.765   3.564   7.436  0.2717  0.3520 -0.0656
   82CHL1  H12A 8506   2.711   3.644   7.491  1.6951  1.8901 -0.7990
   82CHL1  H12B 8507   2.874   3.583   7.429  0.5779 -0.9945  0.6846
   82CHL1   C11 8508   2.702   3.568   7.294  0.1702 -0.7860  0.1362
   82CHL1  H11A 8509   2.595   3.557   7.319 -0.3279  2.3194 -0.1693
   82CHL1  H11B 8510   2.706   3.670   7.248  1.4170 -0.6156  0.5646
   82CHL1    C9 8511   2.744   3.458   7.195 -1.5233 -0.5333  0.2260
   82CHL1    H9 8512   2.851   3.482   7.182 -1.2059 -2.0307 -0.1453
   82CHL1   C10 8513   2.676   3.460   7.049  0.0884  0.6741  0.2329
   82CHL1   C19 8514   2.526   3.475   7.071  1.2090  0.9051  0.5196
   82CHL1  H19A 8515   2.484   3.480   6.968  0.5716  0.1515  0.7367
   82CHL1  H19B 8516   2.468   3.400   7.128 -0.0977  1.1574 -0.4331
   82CHL1  H19C 8517   2.491   3.566   7.125 -2.6720 -0.3718  0.4746
   82CHL1    C1 8518   2.724   3.578   6.962 -0.2863  0.0010  0.2820
   82CHL1   H1A 8519   2.691   3.673   7.008 -0.1353  1.0266 -1.5935
   82CHL1   H1B 8520   2.834   3.577   6.977 -0.0819  3.0056 -0.4323
   82CHL1    C2 8521   2.689   3.576   6.815 -0.1782 -0.4752 -0.1638
   82CHL1   H2A 8522   2.741   3.657   6.759 -0.5768 -0.3184 -0.3106
   82CHL1   H2B 8523   2.581   3.600   6.804 -0.1123 -0.8142 -1.8983
   82CHL1   C20 8524   2.804   3.470   7.757  0.0574  0.5112 -0.1838
   82CHL1   H20 8525   2.698   3.447   7.778  0.4831 -0.3614  1.1331
   82CHL1   C21 8526   2.812   3.621   7.739 -0.5131 -0.6447 -0.3802
   82CHL1  H21A 8527   2.897   3.649   7.673 -1.7292  0.1730 -1.6334
   82CHL1  H21B 8528   2.813   3.655   7.845 -0.7772 -2.5743  0.2868
   82CHL1  H21C 8529   2.723   3.665   7.690 -0.5386  0.2389  0.4299
   82CHL1   C22 8530   2.896   3.416   7.869  0.1031 -0.1288 -0.4688
   82CHL1  H22A 8531   2.888   3.306   7.882  0.6930  0.0918  2.2927
   82CHL1  H22B 8532   2.999   3.435   7.834  0.9688  0.8478  2.3556
   82CHL1   C23 8533   2.882   3.463   8.014  0.0663  0.6309  0.8635
   82CHL1  H23A 8534   2.897   3.574   8.012 -0.3391  0.7024 -2.3248
   82CHL1  H23B 8535   2.784   3.436   8.058 -0.7981  3.1344  0.6699
   82CHL1   C24 8536   3.007   3.421   8.088  0.4185 -0.4809 -0.0524
   82CHL1  H24A 8537   3.019   3.311   8.098 -0.0316 -0.8782 -3.1280
   82CHL1  H24B 8538   3.098   3.457   8.036 -0.9956  2.4168 -0.7079
   82CHL1   C25 8539   3.000   3.470   8.229 -0.0261  0.0385 -0.3346
   82CHL1   H25 8540   2.896   3.454   8.264  0.2311  0.1057  0.4761
   82CHL1   C26 8541   3.110   3.398   8.310  0.3184 -0.0914  0.3378
   82CHL1  H26A 8542   3.213   3.421   8.277  0.8937  1.4563  2.9295
   82CHL1  H26B 8543   3.101   3.435   8.415  1.5070  2.0902 -0.2687
   82CHL1  H26C 8544   3.092   3.288   8.309 -1.1731  0.1361 -0.9365
   82CHL1   C27 8545   3.028   3.618   8.229 -0.3303 -0.1967  1.0462
   82CHL1  H27A 8546   3.116   3.641   8.166 -2.2436 -1.8478 -2.4887
   82CHL1  H27B 8547   2.936   3.657   8.180 -0.6988 -3.0421 -0.7345
   82CHL1  H27C 8548   3.036   3.662   8.331 -0.7905 -0.3454  1.1451
   83CHL1    C3 8549   3.719   0.210   6.787 -0.0411 -0.2033 -0.7365
   83CHL1    H3 8550   3.705   0.101   6.801 -0.4824 -0.0339  0.1994
   83CHL1    O3 8551   3.765   0.214   6.653  0.3276  0.4908  0.3525
   83CHL1   H3' 8552   3.818   0.294   6.648  0.1517  0.5992  0.1917
   83CHL1    C4 8553   3.582   0.277   6.803 -0.3165  0.2798 -0.0050
   83CHL1   H4A 8554   3.602   0.378   6.761  1.5167  0.1963  0.5391
   83CHL1   H4B 8555   3.513   0.218   6.740  1.0926 -1.4435 -0.0220
   83CHL1    C5 8556   3.534   0.302   6.944 -0.3157  0.3402 -0.4311
   83CHL1    C6 8557   3.412   0.257   6.981  0.8582  0.5986  0.0722
   83CHL1    H6 8558   3.345   0.218   6.903 -0.0619 -0.5793  1.4134
   83CHL1    C7 8559   3.357   0.255   7.125 -0.8984  0.3035  0.4515
   83CHL1   H7A 8560   3.250   0.284   7.128 -0.8754  0.3629  0.7641
   83CHL1   H7B 8561   3.356   0.158   7.179  1.2166  0.2190  0.4066
   83CHL1    C8 8562   3.443   0.356   7.213  0.1984  0.7266 -0.2076
   83CHL1    H8 8563   3.426   0.457   7.171 -1.4240 -0.4005 -2.5157
   83CHL1   C14 8564   3.405   0.344   7.362  0.2885 -0.3402  0.1141
   83CHL1   H14 8565   3.449   0.247   7.394  1.9776  0.6962  1.0923
   83CHL1   C15 8566   3.259   0.328   7.406 -0.3247  0.1977  1.0717
   83CHL1  H15A 8567   3.200   0.410   7.359  0.6914  0.2933 -0.0916
   83CHL1  H15B 8568   3.205   0.238   7.369 -1.1270  0.8244  0.6864
   83CHL1   C16 8569   3.261   0.359   7.554  0.1621  0.7224  0.3070
   83CHL1  H16A 8570   3.195   0.447   7.572 -0.9573  0.0603 -0.3868
   83CHL1  H16B 8571   3.235   0.278   7.625  1.5520 -1.0120 -1.0507
   83CHL1   C17 8572   3.410   0.397   7.585  0.9477 -0.2777 -0.5369
   83CHL1   H17 8573   3.457   0.303   7.619  3.1828  0.3326 -1.7455
   83CHL1   C13 8574   3.478   0.441   7.456 -0.5880 -0.4393 -0.2944
   83CHL1   C18 8575   3.456   0.587   7.425  0.3241  0.6334 -0.1400
   83CHL1  H18A 8576   3.353   0.619   7.454  0.5354 -1.2350  3.1262
   83CHL1  H18B 8577   3.511   0.664   7.483  2.1353  0.2330 -1.2486
   83CHL1  H18C 8578   3.473   0.615   7.318  1.9219 -0.5406 -0.2174
   83CHL1   C12 8579   3.625   0.400   7.441 -0.0558 -0.7132 -0.4453
   83CHL1  H12A 8580   3.693   0.463   7.502 -2.2033  0.7845  0.5300
   83CHL1  H12B 8581   3.632   0.294   7.471 -1.3857 -0.7948 -0.3912
   83CHL1   C11 8582   3.678   0.421   7.295 -0.4213 -0.1933 -0.2836
   83CHL1  H11A 8583   3.669   0.527   7.262 -1.6874  0.1037  0.8915
   83CHL1  H11B 8584   3.786   0.397   7.298 -0.6703 -1.3043  0.5776
   83CHL1    C9 8585   3.594   0.335   7.196 -0.3390  0.3100  0.1535
   83CHL1    H9 8586   3.599   0.229   7.227 -0.5978  0.0292 -0.7401
   83CHL1   C10 8587   3.638   0.343   7.047  0.1469  0.0455 -0.4616
   83CHL1   C19 8588   3.660   0.492   7.009  0.7068 -0.0915 -0.0423
   83CHL1  H19A 8589   3.750   0.531   7.062  3.1046 -1.8148 -2.5256
   83CHL1  H19B 8590   3.676   0.514   6.901 -0.3971 -1.1307 -0.4383
   83CHL1  H19C 8591   3.588   0.565   7.051  0.7572 -0.3967  0.5844
   83CHL1    C1 8592   3.768   0.261   7.027  0.0184 -0.1810  0.2529
   83CHL1   H1A 8593   3.851   0.275   7.099 -2.4458  0.3533  3.2089
   83CHL1   H1B 8594   3.749   0.152   7.032 -0.6220 -0.1211 -0.5325
   83CHL1    C2 8595   3.824   0.271   6.884  0.0058  0.4260  0.3765
   83CHL1   H2A 8596   3.912   0.204   6.879 -0.8557 -0.7940  1.1024
   83CHL1   H2B 8597   3.851   0.373   6.850 -1.2282  0.8241  0.5446
   83CHL1   C20 8598   3.408   0.497   7.706  0.3988 -0.0057 -0.4235
   83CHL1   H20 8599   3.347   0.587   7.683  2.1630  1.4276  0.2960
   83CHL1   C21 8600   3.550   0.545   7.743 -0.7133 -0.6152 -0.6533
   83CHL1  H21A 8601   3.623   0.462   7.754  0.0898  0.1335 -0.2556
   83CHL1  H21B 8602   3.552   0.614   7.830 -0.4522 -1.7554  0.2793
   83CHL1  H21C 8603   3.592   0.604   7.659 -0.1935 -0.9691 -0.6450
   83CHL1   C22 8604   3.337   0.435   7.827  0.0623 -0.9909  0.1787
   83CHL1  H22A 8605   3.234   0.400   7.802  0.1108 -1.4693  0.6263
   83CHL1  H22B 8606   3.394   0.348   7.866  0.6761 -0.5495  0.2708
   83CHL1   C23 8607   3.310   0.530   7.949  0.2386  0.2103 -0.3155
   83CHL1  H23A 8608   3.408   0.562   7.992  0.9331 -1.0445 -0.9138
   83CHL1  H23B 8609   3.248   0.618   7.919 -2.4425 -1.1615  0.8363
   83CHL1   C24 8610   3.244   0.449   8.063  0.7661 -0.2277  0.0562
   83CHL1  H24A 8611   3.160   0.398   8.012  1.1794 -1.7082  0.7995
   83CHL1  H24B 8612   3.317   0.377   8.105  2.6809  0.2659 -2.1521
   83CHL1   C25 8613   3.176   0.522   8.181 -0.0735 -0.5512 -0.0378
   83CHL1   H25 8614   3.141   0.619   8.141  1.5745  0.5535  1.0591
   83CHL1   C26 8615   3.049   0.444   8.224 -0.4366 -0.3940 -0.3651
   83CHL1  H26A 8616   3.074   0.355   8.285  1.2411  0.4747  0.2897
   83CHL1  H26B 8617   2.985   0.503   8.291  0.0493  0.1957 -0.4102
   83CHL1  H26C 8618   2.999   0.401   8.135  1.4914 -3.0271 -0.3123
   83CHL1   C27 8619   3.271   0.532   8.300 -0.6896  0.2306 -0.3356
   83CHL1  H27A 8620   3.231   0.609   8.368 -2.5029 -0.8647 -0.0949
   83CHL1  H27B 8621   3.298   0.437   8.352 -0.2847  1.1294  1.1363
   83CHL1  H27C 8622   3.365   0.574   8.257  1.8287 -1.9149  2.6040
   84CHL1    C3 8623   4.287   2.010   6.689  0.1636 -0.0647 -0.3316
   84CHL1    H3 8624   4.233   2.100   6.727 -0.8319 -0.7262 -0.1584
   84CHL1    O3 8625   4.300   2.032   6.551  0.8237 -0.1129 -0.3580
   84CHL1   H3' 8626   4.332   1.951   6.512  1.4185 -0.1835  0.2583
   84CHL1    C4 8627   4.429   1.994   6.748 -0.0769  0.0934  0.9139
   84CHL1   H4A 8628   4.475   1.915   6.685 -2.1541  0.5508 -1.3798
   84CHL1   H4B 8629   4.491   2.082   6.722 -2.7322  0.8142 -4.4077
   84CHL1    C5 8630   4.423   1.966   6.892 -0.0960  0.1019 -0.7038
   84CHL1    C6 8631   4.482   2.048   6.986 -0.3137  0.6935  0.4176
   84CHL1    H6 8632   4.546   2.134   6.962 -0.3517  1.3426  2.4304
   84CHL1    C7 8633   4.472   2.025   7.133 -0.1400  0.2539  0.2047
   84CHL1   H7A 8634   4.565   2.046   7.190 -0.0523  1.5803 -0.3831
   84CHL1   H7B 8635   4.392   2.088   7.178 -0.8436 -0.7751  0.4495
   84CHL1    C8 8636   4.447   1.879   7.163  0.2145 -0.2796 -0.4537
   84CHL1    H8 8637   4.538   1.817   7.144 -0.1973 -0.9957 -0.1260
   84CHL1   C14 8638   4.412   1.866   7.316 -0.0711  0.2961 -0.4085
   84CHL1   H14 8639   4.314   1.914   7.336 -0.1973 -0.1384  0.0428
   84CHL1   C15 8640   4.504   1.928   7.431  0.0288  0.0779  0.0381
   84CHL1  H15A 8641   4.607   1.907   7.395 -0.7623  1.1700 -3.1286
   84CHL1  H15B 8642   4.495   2.039   7.434 -0.5119  0.0221  0.8146
   84CHL1   C16 8643   4.460   1.858   7.557  0.1807  0.3325 -0.1612
   84CHL1  H16A 8644   4.549   1.817   7.609 -1.7060 -1.9337  1.5001
   84CHL1  H16B 8645   4.413   1.936   7.620  0.4468 -0.7261  1.4227
   84CHL1   C17 8646   4.363   1.742   7.520  0.2045 -0.0113  0.3088
   84CHL1   H17 8647   4.257   1.773   7.528  0.2614 -0.0043  1.1492
   84CHL1   C13 8648   4.383   1.725   7.367 -0.7198  0.4791 -0.1893
   84CHL1   C18 8649   4.506   1.636   7.341 -0.0927 -0.0393 -0.7943
   84CHL1  H18A 8650   4.478   1.533   7.372 -0.8671  0.1736 -0.7616
   84CHL1  H18B 8651   4.546   1.630   7.237  1.2273  0.3670 -0.3271
   84CHL1  H18C 8652   4.578   1.667   7.420 -1.0992 -0.4217  0.2964
   84CHL1   C12 8653   4.258   1.678   7.289  0.3106  0.6670  0.4483
   84CHL1  H12A 8654   4.246   1.573   7.322  1.3069  1.1214  2.4184
   84CHL1  H12B 8655   4.168   1.739   7.315 -0.5552  0.2023 -1.3390
   84CHL1   C11 8656   4.277   1.693   7.133  0.4700  0.9750  1.1891
   84CHL1  H11A 8657   4.357   1.623   7.102  0.0479  1.6288 -1.6241
   84CHL1  H11B 8658   4.181   1.657   7.092  0.3393  0.0042  2.2951
   84CHL1    C9 8659   4.330   1.830   7.081  0.5879  0.3365  0.4359
   84CHL1    H9 8660   4.255   1.908   7.103  0.5257  0.2680  0.4673
   84CHL1   C10 8661   4.344   1.838   6.928 -0.1854 -0.8853 -0.3144
   84CHL1   C19 8662   4.428   1.728   6.870 -0.3447  0.1295  0.8705
   84CHL1  H19A 8663   4.423   1.719   6.759 -0.0553 -0.4432  0.8966
   84CHL1  H19B 8664   4.535   1.730   6.901  0.4943 -3.2690 -1.2326
   84CHL1  H19C 8665   4.392   1.627   6.901 -1.4000 -1.3062 -4.0709
   84CHL1    C1 8666   4.207   1.859   6.863 -0.4595 -0.1563 -0.0559
   84CHL1   H1A 8667   4.141   1.774   6.889  1.1817 -1.4648  0.0432
   84CHL1   H1B 8668   4.159   1.950   6.905 -1.7202  0.0651 -1.8818
   84CHL1    C2 8669   4.196   1.889   6.710 -0.0727  0.0964  0.0973
   84CHL1   H2A 8670   4.098   1.922   6.670 -0.4957 -0.2882  0.7939
   84CHL1   H2B 8671   4.229   1.795   6.660 -1.5553  0.3485 -1.4252
   84CHL1   C20 8672   4.367   1.613   7.605  0.4810 -0.1483 -0.0180
   84CHL1   H20 8673   4.471   1.575   7.594  0.2597 -0.7919  0.0507
   84CHL1   C21 8674   4.250   1.518   7.578  0.0527 -0.0086 -0.2711
   84CHL1  H21A 8675   4.161   1.578   7.552 -1.0928 -1.4501  0.1998
   84CHL1  H21B 8676   4.220   1.453   7.663 -3.5497 -0.3370 -1.6191
   84CHL1  H21C 8677   4.261   1.457   7.485 -1.4207  0.9701 -1.1335
   84CHL1   C22 8678   4.353   1.659   7.753  0.1975 -0.3965  0.1912
   84CHL1  H22A 8679   4.405   1.754   7.777  1.4313 -0.5673 -1.6011
   84CHL1  H22B 8680   4.243   1.668   7.765 -0.0736  0.1875 -2.1804
   84CHL1   C23 8681   4.405   1.541   7.844  0.0685 -0.0977 -0.1232
   84CHL1  H23A 8682   4.339   1.452   7.833  1.0499 -0.8908  0.2758
   84CHL1  H23B 8683   4.501   1.494   7.814 -0.8085 -2.4893  0.6102
   84CHL1   C24 8684   4.395   1.570   7.995 -0.6794 -0.3233  0.0775
   84CHL1  H24A 8685   4.442   1.485   8.050  0.7205 -1.9653 -3.3867
   84CHL1  H24B 8686   4.453   1.661   8.021  2.2008 -1.4920 -1.7237
   84CHL1   C25 8687   4.251   1.589   8.051 -0.0549 -0.0316 -0.1906
   84CHL1   H25 8688   4.202   1.665   7.987 -0.9387  0.4095  0.9746
   84CHL1   C26 8689   4.168   1.458   8.057 -0.6195  0.3612  0.0636
   84CHL1  H26A 8690   4.162   1.403   7.961  3.4206 -2.0941  0.9964
   84CHL1  H26B 8691   4.212   1.390   8.134 -2.5912  0.5684  1.4667
   84CHL1  H26C 8692   4.062   1.477   8.088 -0.7711 -1.5515  0.8846
   84CHL1   C27 8693   4.254   1.660   8.193 -0.2069  0.3180 -0.3582
   84CHL1  H27A 8694   4.344   1.726   8.199  1.5621 -2.0695  3.3121
   84CHL1  H27B 8695   4.160   1.714   8.217  1.8302  2.1201  5.1418
   84CHL1  H27C 8696   4.287   1.593   8.275  2.1784  2.4429  0.5758
   85CHL1    C3 8697   0.228   5.366   6.737 -0.0185 -0.3359  0.2714
   85CHL1    H3 8698   0.330   5.394   6.771  0.9442 -3.7616  0.6013
   85CHL1    O3 8699   0.220   5.382   6.596 -0.5019  0.4170  0.0739
   85CHL1   H3' 8700   0.137   5.341   6.571 -0.4009  0.1012  0.2599
   85CHL1    C4 8701   0.208   5.216   6.770  0.1625 -0.3873 -0.9894
   85CHL1   H4A 8702   0.115   5.170   6.730  0.2758 -2.0274  0.5319
   85CHL1   H4B 8703   0.293   5.167   6.719  2.4001  1.8639  0.3731
   85CHL1    C5 8704   0.204   5.198   6.919  0.1156 -0.0006 -0.4501
   85CHL1    C6 8705   0.303   5.123   6.977  0.6836 -0.0972  0.3498
   85CHL1    H6 8706   0.371   5.071   6.909 -0.4684  0.9773 -1.7084
   85CHL1    C7 8707   0.304   5.091   7.124 -0.1529 -0.0222  0.3476
   85CHL1   H7A 8708   0.325   4.984   7.146  1.1181  0.2784  0.7250
   85CHL1   H7B 8709   0.392   5.136   7.176  0.5986 -1.9626  0.8674
   85CHL1    C8 8710   0.176   5.131   7.203 -1.0269 -0.3609  0.2062
   85CHL1    H8 8711   0.099   5.055   7.176 -1.9323 -0.1087  1.9468
   85CHL1   C14 8712   0.217   5.141   7.354  0.3993 -0.3038 -0.7071
   85CHL1   H14 8713   0.292   5.223   7.360 -0.4259  0.3944  0.4008
   85CHL1   C15 8714   0.277   5.018   7.421  0.3484 -0.0769  0.3027
   85CHL1  H15A 8715   0.216   4.929   7.396  1.5763 -1.0050  0.5358
   85CHL1  H15B 8716   0.382   5.001   7.391  0.3665  0.3884  0.0931
   85CHL1   C16 8717   0.253   5.057   7.574 -0.3329 -0.7205  0.8172
   85CHL1  H16A 8718   0.210   4.970   7.628  0.0118 -0.1778  2.0117
   85CHL1  H16B 8719   0.346   5.093   7.622 -0.2042 -0.3924  0.3275
   85CHL1   C17 8720   0.163   5.190   7.576  0.2435 -0.3641 -0.0151
   85CHL1   H17 8721   0.233   5.276   7.575 -1.4167  1.1394 -3.5887
   85CHL1   C13 8722   0.097   5.192   7.441 -0.1742 -0.3357  0.9891
   85CHL1   C18 8723  -0.013   5.082   7.432 -0.4056 -0.5037  0.1420
   85CHL1  H18A 8724  -0.102   5.125   7.483  0.5066  0.5237  0.9329
   85CHL1  H18B 8725  -0.049   5.062   7.329 -1.0507 -2.1904  0.6619
   85CHL1  H18C 8726   0.014   4.990   7.488 -1.0058 -0.2829  0.8061
   85CHL1   C12 8727   0.056   5.334   7.386  0.8966 -0.1137 -0.3195
   85CHL1  H12A 8728  -0.035   5.375   7.434  1.5719  0.6539  0.3307
   85CHL1  H12B 8729   0.137   5.409   7.403 -0.1053  0.9708 -0.2061
   85CHL1   C11 8730   0.017   5.326   7.241  0.1512 -0.2377  0.5808
   85CHL1  H11A 8731  -0.079   5.273   7.227 -0.1936  0.2217  1.1921
   85CHL1  H11B 8732   0.001   5.428   7.199  3.4125 -0.2705 -1.0858
   85CHL1    C9 8733   0.131   5.269   7.157  0.1910 -0.3562  0.0953
   85CHL1    H9 8734   0.212   5.343   7.178 -0.3140  0.7090 -1.4785
   85CHL1   C10 8735   0.109   5.285   7.006 -0.0653 -0.1911  0.2709
   85CHL1   C19 8736  -0.033   5.224   6.981  0.2112 -0.5989  0.6938
   85CHL1  H19A 8737  -0.066   5.225   6.875  1.0431 -2.3397  0.3770
   85CHL1  H19B 8738  -0.047   5.124   7.027 -3.1894 -0.5580 -0.0149
   85CHL1  H19C 8739  -0.104   5.290   7.036  0.0290 -3.3274  4.1308
   85CHL1    C1 8740   0.120   5.434   6.960  0.3480 -0.0337  0.2545
   85CHL1   H1A 8741   0.032   5.485   7.005 -0.8500 -3.1147  1.6741
   85CHL1   H1B 8742   0.222   5.475   6.978  0.1482  0.8668 -0.5571
   85CHL1    C2 8743   0.126   5.460   6.805 -0.1300 -0.8170  0.2782
   85CHL1   H2A 8744   0.140   5.568   6.780 -0.5445 -0.5588  1.1224
   85CHL1   H2B 8745   0.028   5.428   6.764  1.6721 -2.5308 -3.0962
   85CHL1   C20 8746   0.089   5.202   7.708 -0.0753 -0.0228  0.1118
   85CHL1   H20 8747   0.016   5.118   7.710  2.0695 -1.9979 -0.7722
   85CHL1   C21 8748   0.011   5.338   7.705 -0.3628 -0.6217 -0.3691
   85CHL1  H21A 8749  -0.072   5.320   7.633 -0.5987 -2.0106  0.2212
   85CHL1  H21B 8750   0.074   5.423   7.670  0.6516 -1.7350 -1.3085
   85CHL1  H21C 8751  -0.034   5.359   7.805 -2.0440 -2.8733 -0.5721
   85CHL1   C22 8752   0.185   5.202   7.833  1.0375 -0.2495 -0.8212
   85CHL1  H22A 8753   0.116   5.207   7.920 -0.5396  1.9831 -2.0962
   85CHL1  H22B 8754   0.255   5.116   7.839  0.8508 -0.4049 -0.8117
   85CHL1   C23 8755   0.269   5.333   7.846 -0.2075  0.3342  0.5416
   85CHL1  H23A 8756   0.351   5.316   7.774 -1.2350  0.3154 -0.6608
   85CHL1  H23B 8757   0.219   5.426   7.812  2.5219  0.8558 -2.5546
   85CHL1   C24 8758   0.312   5.353   7.992 -0.3243 -0.3232  0.6819
   85CHL1  H24A 8759   0.219   5.348   8.052 -1.2987 -1.5243 -0.8534
   85CHL1  H24B 8760   0.371   5.263   8.019  1.6734  0.5127 -0.6824
   85CHL1   C25 8761   0.394   5.484   8.028  0.2993  0.4438 -0.1267
   85CHL1   H25 8762   0.487   5.486   7.967 -0.0827  2.1432 -0.7034
   85CHL1   C26 8763   0.311   5.615   7.998  0.5930 -0.0929 -0.2776
   85CHL1  H26A 8764   0.382   5.692   8.034  1.8744 -1.8893  1.2048
   85CHL1  H26B 8765   0.285   5.615   7.890 -0.0033  1.1813 -0.1568
   85CHL1  H26C 8766   0.218   5.624   8.058  0.2380 -2.7309 -0.3062
   85CHL1   C27 8767   0.436   5.480   8.171  0.3054 -0.1211 -0.8236
   85CHL1  H27A 8768   0.354   5.475   8.246 -0.7468 -0.1933 -1.9477
   85CHL1  H27B 8769   0.497   5.392   8.199  1.2123  0.5199 -0.7429
   85CHL1  H27C 8770   0.496   5.572   8.188 -1.6893  1.0729  0.0693
   86CHL1    C3 8771   6.185   2.747   6.820  0.2653 -0.1104 -0.1531
   86CHL1    H3 8772   6.293   2.763   6.839  0.4256 -0.2513 -0.9215
   86CHL1    O3 8773   6.171   2.758   6.678 -0.1973 -0.3866  0.2509
   86CHL1   H3' 8774   6.104   2.699   6.643 -0.5100  1.0608 -1.7012
   86CHL1    C4 8775   6.142   2.614   6.873 -0.4603  0.0072 -0.3487
   86CHL1   H4A 8776   6.033   2.607   6.854 -0.5372  0.0025  0.0880
   86CHL1   H4B 8777   6.189   2.533   6.813  1.3745 -1.0646  2.3626
   86CHL1    C5 8778   6.159   2.602   7.025 -0.3630 -0.2532 -0.0446
   86CHL1    C6 8779   6.253   2.525   7.077  0.2597  0.1634  0.2390
   86CHL1    H6 8780   6.316   2.458   7.017  0.0226  0.3545 -0.2256
   86CHL1    C7 8781   6.262   2.499   7.222  0.0881  0.3258  0.0482
   86CHL1   H7A 8782   6.250   2.393   7.250 -3.0162  0.6828  0.3598
   86CHL1   H7B 8783   6.368   2.521   7.250 -0.4896  1.9597  1.1609
   86CHL1    C8 8784   6.153   2.574   7.310  0.4565 -0.3563  0.0928
   86CHL1    H8 8785   6.060   2.513   7.304 -0.1868  0.7322 -2.7148
   86CHL1   C14 8786   6.197   2.586   7.458 -0.1305  0.7831 -0.3420
   86CHL1   H14 8787   6.289   2.647   7.456 -0.2993  1.1775  1.7349
   86CHL1   C15 8788   6.232   2.460   7.538  0.6013 -0.2841  0.5286
   86CHL1  H15A 8789   6.168   2.377   7.502 -0.0580  0.6743 -0.5710
   86CHL1  H15B 8790   6.337   2.426   7.529  0.5541 -0.2548 -0.1310
   86CHL1   C16 8791   6.219   2.506   7.687 -0.4972 -0.3175 -0.4315
   86CHL1  H16A 8792   6.140   2.439   7.727 -0.5096  0.0081  0.0970
   86CHL1  H16B 8793   6.308   2.501   7.753 -2.1593 -2.6996  1.8059
   86CHL1   C17 8794   6.169   2.657   7.688  0.3084 -0.0872 -0.4131
   86CHL1   H17 8795   6.262   2.718   7.689  0.4931 -0.3522  1.5454
   86CHL1   C13 8796   6.098   2.658   7.551  0.1704 -0.2120  0.6550
   86CHL1   C18 8797   5.961   2.584   7.567  0.9337 -0.3641  0.3020
   86CHL1  H18A 8798   5.888   2.642   7.628 -0.5169 -0.3477 -1.3621
   86CHL1  H18B 8799   5.899   2.578   7.475 -0.2775 -2.7613  1.1847
   86CHL1  H18C 8800   5.960   2.478   7.599  0.5683 -1.2582 -2.4479
   86CHL1   C12 8801   6.076   2.802   7.498  0.3466 -0.1169  0.7800
   86CHL1  H12A 8802   5.999   2.862   7.552  1.6882 -0.8831  3.7291
   86CHL1  H12B 8803   6.171   2.856   7.514  1.5784 -1.9085 -0.2305
   86CHL1   C11 8804   6.033   2.804   7.349  1.0138 -0.3752 -0.4354
   86CHL1  H11A 8805   5.929   2.764   7.345  0.7453  0.1638  0.6905
   86CHL1  H11B 8806   6.032   2.909   7.312  0.3863  0.3075  1.3865
   86CHL1    C9 8807   6.115   2.714   7.253 -0.4279  0.5429 -0.5270
   86CHL1    H9 8808   6.215   2.761   7.254 -0.3871  0.4586 -0.5866
   86CHL1   C10 8809   6.078   2.707   7.106  0.6125  0.7196 -0.1107
   86CHL1   C19 8810   5.930   2.667   7.101  0.6293 -0.3766  0.0894
   86CHL1  H19A 8811   5.865   2.750   7.134 -0.0348 -0.0403 -1.9171
   86CHL1  H19B 8812   5.900   2.642   6.997  2.1675  0.2709 -0.5444
   86CHL1  H19C 8813   5.915   2.577   7.165  0.3432 -0.9563 -0.7666
   86CHL1    C1 8814   6.103   2.848   7.038  0.2475 -0.4788 -0.1905
   86CHL1   H1A 8815   6.041   2.926   7.087  2.7066 -0.2202  2.8550
   86CHL1   H1B 8816   6.197   2.891   7.077  0.2963  0.8984 -1.7544
   86CHL1    C2 8817   6.095   2.852   6.880 -0.3152 -0.0780 -0.1457
   86CHL1   H2A 8818   6.126   2.955   6.854 -0.0537  0.2777  1.4694
   86CHL1   H2B 8819   5.993   2.840   6.838  0.1207  0.9074 -1.5380
   86CHL1   C20 8820   6.095   2.696   7.816  0.8267  0.1386  0.2601
   86CHL1   H20 8821   6.012   2.624   7.832  1.3867 -0.6159 -0.1726
   86CHL1   C21 8822   6.039   2.841   7.812 -0.0116 -0.0441 -0.6700
   86CHL1  H21A 8823   6.024   2.869   7.919 -0.0287 -0.5128 -0.5476
   86CHL1  H21B 8824   5.949   2.843   7.747 -0.5109 -0.9874 -0.0346
   86CHL1  H21C 8825   6.111   2.915   7.770 -0.2904  0.6036 -0.0372
   86CHL1   C22 8826   6.172   2.672   7.947 -0.5838  0.2561  1.0477
   86CHL1  H22A 8827   6.119   2.719   8.033  0.1766  0.9142  1.1668
   86CHL1  H22B 8828   6.194   2.564   7.956 -2.1225 -0.0335  1.7266
   86CHL1   C23 8829   6.312   2.734   7.943 -0.2982  0.3073  0.1835
   86CHL1  H23A 8830   6.392   2.671   7.898 -1.1806 -1.5276  1.0829
   86CHL1  H23B 8831   6.320   2.831   7.889 -0.8970  1.1949  1.6368
   86CHL1   C24 8832   6.352   2.767   8.087 -0.3151  0.4761 -0.0765
   86CHL1  H24A 8833   6.280   2.838   8.134  0.0876 -0.2727  1.7510
   86CHL1  H24B 8834   6.347   2.678   8.153  0.4132  1.8155  1.8956
   86CHL1   C25 8835   6.490   2.842   8.094 -0.3503 -0.7814  0.4606
   86CHL1   H25 8836   6.506   2.860   8.203  2.2805 -0.1755  0.0553
   86CHL1   C26 8837   6.603   2.770   8.024  0.0643  0.4603 -0.4459
   86CHL1  H26A 8838   6.706   2.796   8.055  0.2647 -1.5192  0.7158
   86CHL1  H26B 8839   6.596   2.661   8.043 -0.0756  0.5712  0.1503
   86CHL1  H26C 8840   6.587   2.782   7.915 -1.1576 -0.7233 -0.4294
   86CHL1   C27 8841   6.485   2.984   8.038  0.2485  0.0666 -0.3918
   86CHL1  H27A 8842   6.573   3.040   8.077  1.2159 -1.6687 -0.0003
   86CHL1  H27B 8843   6.483   2.991   7.927  2.2879 -0.5942 -0.5105
   86CHL1  H27C 8844   6.402   3.043   8.084  0.9936 -0.5119  1.8363
   87CHL1    C3 8845   0.049   0.957   6.997  0.1589 -0.2769 -0.0394
   87CHL1    H3 8846   0.108   1.040   7.040  1.8111 -1.6297  0.4289
   87CHL1    O3 8847   0.018   0.995   6.868  0.3767 -0.5715 -0.2000
   87CHL1   H3' 8848   0.099   1.024   6.824  0.2140 -0.5386 -0.4846
   87CHL1    C4 8849   0.132   0.826   6.989 -0.1013 -0.5367 -0.1421
   87CHL1   H4A 8850   0.077   0.738   6.947 -0.6509  0.5690 -1.8516
   87CHL1   H4B 8851   0.217   0.840   6.918 -1.6312 -2.3804 -2.5087
   87CHL1    C5 8852   0.176   0.795   7.135 -0.4712  0.7099 -0.4481
   87CHL1    C6 8853   0.301   0.774   7.175  0.4599 -0.5029 -0.4190
   87CHL1    H6 8854   0.383   0.793   7.103  0.3705  0.2212 -0.3290
   87CHL1    C7 8855   0.344   0.745   7.315  0.1288  0.1644  0.5078
   87CHL1   H7A 8856   0.417   0.661   7.312  3.0748  2.5260  0.7504
   87CHL1   H7B 8857   0.407   0.829   7.352  0.1789  0.8805 -1.1059
   87CHL1    C8 8858   0.231   0.709   7.415 -0.3649 -0.5450 -0.3403
   87CHL1    H8 8859   0.217   0.599   7.406 -0.5759 -0.8299  2.4863
   87CHL1   C14 8860   0.270   0.750   7.560 -0.1204 -0.3525 -0.2853
   87CHL1   H14 8861   0.263   0.861   7.554 -1.5024 -0.2267  2.3429
   87CHL1   C15 8862   0.410   0.720   7.616  0.8920 -0.3604  0.1638
   87CHL1  H15A 8863   0.427   0.617   7.577 -0.7183 -0.1407 -1.2414
   87CHL1  H15B 8864   0.483   0.798   7.584 -1.8262  2.7193  0.9181
   87CHL1   C16 8865   0.388   0.723   7.768 -0.1963 -0.2351  0.3135
   87CHL1  H16A 8866   0.409   0.625   7.816 -0.0821  0.3340  1.4766
   87CHL1  H16B 8867   0.449   0.798   7.825  3.1528 -2.6480  0.2174
   87CHL1   C17 8868   0.231   0.759   7.791 -0.3149 -0.1921 -0.5235
   87CHL1   H17 8869   0.230   0.870   7.797  0.1860 -0.2292  0.6947
   87CHL1   C13 8870   0.163   0.709   7.670 -0.0226 -0.3509 -0.0535
   87CHL1   C18 8871   0.159   0.555   7.666 -0.3297  0.1875 -0.2397
   87CHL1  H18A 8872   0.260   0.514   7.686 -0.9377 -0.3234  1.9915
   87CHL1  H18B 8873   0.095   0.528   7.752  0.4307  0.4764  0.4330
   87CHL1  H18C 8874   0.127   0.511   7.569  0.6424 -0.1675 -0.4172
   87CHL1   C12 8875   0.027   0.769   7.627  0.3029 -0.5915 -0.4658
   87CHL1  H12A 8876  -0.057   0.729   7.688 -0.4626 -0.7178 -1.5834
   87CHL1  H12B 8877   0.025   0.877   7.653 -2.9796 -0.0542 -2.3157
   87CHL1   C11 8878  -0.012   0.738   7.482 -0.5698  0.3604 -0.3015
   87CHL1  H11A 8879  -0.033   0.628   7.480 -3.0116  0.7707 -0.1740
   87CHL1  H11B 8880  -0.111   0.784   7.462 -1.2731 -0.4697  1.1280
   87CHL1    C9 8881   0.099   0.775   7.377  0.3147  0.1772 -0.0905
   87CHL1    H9 8882   0.112   0.884   7.398 -1.1342  0.1699  1.0445
   87CHL1   C10 8883   0.056   0.771   7.230  0.0230 -0.4206 -0.3962
   87CHL1   C19 8884  -0.001   0.634   7.195  0.0139  0.6944  0.4159
   87CHL1  H19A 8885  -0.054   0.633   7.097  1.1307 -0.3899 -0.2078
   87CHL1  H19B 8886   0.083   0.562   7.203 -0.2021  0.4026  0.0877
   87CHL1  H19C 8887  -0.091   0.604   7.254 -0.2066 -0.7451 -0.5811
   87CHL1    C1 8888  -0.050   0.881   7.210  0.4731 -0.6591  0.7497
   87CHL1   H1A 8889  -0.146   0.849   7.256 -0.0964 -0.2508 -0.1257
   87CHL1   H1B 8890  -0.009   0.973   7.258  1.3608 -0.3451 -0.5479
   87CHL1    C2 8891  -0.086   0.933   7.068  0.6457  0.1343 -0.3569
   87CHL1   H2A 8892  -0.155   1.020   7.067  0.6851  0.1606 -0.7570
   87CHL1   H2B 8893  -0.141   0.847   7.022 -0.4550 -0.3564  1.7194
   87CHL1   C20 8894   0.183   0.729   7.928 -0.0785 -0.3509  0.0731
   87CHL1   H20 8895   0.167   0.619   7.931 -1.6445 -0.2541 -2.2780
   87CHL1   C21 8896   0.060   0.811   7.956 -1.0255 -0.3088  0.2258
   87CHL1  H21A 8897   0.033   0.801   8.063 -3.2799 -2.4699 -0.4527
   87CHL1  H21B 8898  -0.035   0.777   7.910  0.6598 -1.9713 -2.3356
   87CHL1  H21C 8899   0.063   0.920   7.937  0.3359 -0.5898 -1.3974
   87CHL1   C22 8900   0.284   0.742   8.040 -0.7272 -0.7043 -0.2267
   87CHL1  H22A 8901   0.249   0.706   8.138  2.0166 -1.4457  0.5816
   87CHL1  H22B 8902   0.382   0.693   8.022  0.6751  2.0764 -0.8888
   87CHL1   C23 8903   0.320   0.893   8.074  0.1888  0.0511 -0.1448
   87CHL1  H23A 8904   0.326   0.945   7.975  0.1094 -1.8514 -1.1831
   87CHL1  H23B 8905   0.243   0.939   8.139  0.7093  1.5393 -0.5217
   87CHL1   C24 8906   0.461   0.907   8.134 -0.6670 -0.4165  0.0507
   87CHL1  H24A 8907   0.467   0.865   8.236  0.9334 -0.7197 -0.1453
   87CHL1  H24B 8908   0.533   0.857   8.065  2.1025  3.0833  0.1250
   87CHL1   C25 8909   0.517   1.053   8.159  0.5491 -0.3265 -0.0128
   87CHL1   H25 8910   0.581   1.082   8.072 -1.1885  2.2165 -0.5564
   87CHL1   C26 8911   0.404   1.162   8.168  0.6123 -0.1349  0.0649
   87CHL1  H26A 8912   0.326   1.134   8.241  0.9789 -0.4309  0.3431
   87CHL1  H26B 8913   0.449   1.263   8.183  1.8801 -0.4017 -1.6100
   87CHL1  H26C 8914   0.346   1.177   8.075 -0.8640 -1.1211  0.7996
   87CHL1   C27 8915   0.622   1.070   8.278 -0.4981 -0.0155 -0.5795
   87CHL1  H27A 8916   0.707   0.999   8.264 -0.8510 -0.7327  0.7758
   87CHL1  H27B 8917   0.654   1.176   8.265  1.3462 -0.4022  0.4035
   87CHL1  H27C 8918   0.570   1.056   8.375 -0.5741  1.6112 -0.3554
   88CHL1    C3 8919   6.692   0.136   6.629 -0.4761 -1.0136 -0.1346
   88CHL1    H3 8920   6.643   0.037   6.623 -1.8765 -0.3605  0.1860
   88CHL1    O3 8921   6.687   0.184   6.498  0.0571  0.2838 -0.0450
   88CHL1   H3' 8922   6.604   0.145   6.468  0.3352  1.1057 -2.0547
   88CHL1    C4 8923   6.618   0.237   6.721  0.2121  0.2913  0.6693
   88CHL1   H4A 8924   6.660   0.340   6.712 -1.1200  1.1216  3.0613
   88CHL1   H4B 8925   6.519   0.255   6.673  0.7466  1.3194 -0.1112
   88CHL1    C5 8926   6.629   0.211   6.871  0.5577  0.0806  1.2382
   88CHL1    C6 8927   6.515   0.185   6.938 -0.2255 -0.1733 -0.6822
   88CHL1    H6 8928   6.420   0.203   6.886 -1.7826  0.9321  2.3256
   88CHL1    C7 8929   6.509   0.160   7.082 -0.2589 -0.3507 -0.3288
   88CHL1   H7A 8930   6.425   0.220   7.122 -0.6244 -0.3797 -1.0296
   88CHL1   H7B 8931   6.467   0.059   7.107  0.3961 -0.8158 -1.0863
   88CHL1    C8 8932   6.643   0.191   7.153  1.0637 -0.1221 -0.2685
   88CHL1    H8 8933   6.655   0.301   7.145 -2.1361  0.7251  3.4985
   88CHL1   C14 8934   6.642   0.142   7.299 -0.1248  0.4637 -0.3880
   88CHL1   H14 8935   6.647   0.032   7.290 -0.3789  0.5283 -1.4340
   88CHL1   C15 8936   6.525   0.193   7.381  0.9261 -0.9827  0.2200
   88CHL1  H15A 8937   6.514   0.300   7.357  1.2589 -1.1036 -0.4953
   88CHL1  H15B 8938   6.428   0.143   7.361 -0.6157  1.1493  1.9461
   88CHL1   C16 8939   6.572   0.174   7.526  0.1107 -0.3676  0.1173
   88CHL1  H16A 8940   6.568   0.279   7.561 -1.6241 -1.0536  2.1433
   88CHL1  H16B 8941   6.506   0.097   7.571 -1.0489 -0.7270 -2.0557
   88CHL1   C17 8942   6.725   0.129   7.513 -0.2863  0.3643  0.1422
   88CHL1   H17 8943   6.717   0.018   7.518 -0.3546  0.3746  0.2881
   88CHL1   C13 8944   6.779   0.175   7.373 -0.6962  0.9216  0.3360
   88CHL1   C18 8945   6.805   0.322   7.366  0.1390 -0.4141  0.3841
   88CHL1  H18A 8946   6.901   0.355   7.411  1.0325 -0.2258 -1.5463
   88CHL1  H18B 8947   6.818   0.354   7.260  0.8884 -1.3168  0.1851
   88CHL1  H18C 8948   6.721   0.378   7.412 -1.0607 -0.4092 -1.7068
   88CHL1   C12 8949   6.887   0.096   7.303 -0.4770  0.0636 -0.9184
   88CHL1  H12A 8950   6.981   0.116   7.359  0.7983  1.7369 -3.4463
   88CHL1  H12B 8951   6.869  -0.012   7.322  0.5941  0.0847  0.3127
   88CHL1   C11 8952   6.889   0.124   7.154 -0.2213 -0.3036  0.2424
   88CHL1  H11A 8953   6.926   0.228   7.149 -0.0530 -0.4064 -1.9134
   88CHL1  H11B 8954   6.957   0.055   7.098 -0.3796  1.1417 -1.8654
   88CHL1    C9 8955   6.758   0.125   7.071  0.7765 -0.2342 -0.6885
   88CHL1    H9 8956   6.713   0.024   7.058  0.4777  0.1116 -2.8334
   88CHL1   C10 8957   6.767   0.187   6.924 -0.0859 -0.4152  0.0726
   88CHL1   C19 8958   6.835   0.327   6.922 -0.5153  0.1710 -0.2314
   88CHL1  H19A 8959   6.784   0.411   6.975  1.5908  0.3374  1.7143
   88CHL1  H19B 8960   6.938   0.317   6.964 -0.7635 -0.4862  0.2340
   88CHL1  H19C 8961   6.842   0.361   6.817 -0.9823  1.1439  0.0397
   88CHL1    C1 8962   6.843   0.088   6.827 -0.5364  0.0141  0.4295
   88CHL1   H1A 8963   6.953   0.088   6.841 -0.6894  0.0826  1.7299
   88CHL1   H1B 8964   6.818  -0.019   6.841  4.0158 -1.2764  0.2600
   88CHL1    C2 8965   6.827   0.121   6.678 -0.4795  0.2725 -0.2510
   88CHL1   H2A 8966   6.886   0.057   6.609 -0.8436  1.5730 -1.8304
   88CHL1   H2B 8967   6.881   0.218   6.666 -1.0795  0.4198 -2.0703
   88CHL1   C20 8968   6.805   0.159   7.638 -0.5600 -0.3531 -0.4512
   88CHL1   H20 8969   6.793   0.267   7.662 -3.1280 -0.9291  1.3188
   88CHL1   C21 8970   6.953   0.127   7.619  0.2969 -0.3273  0.7009
   88CHL1  H21A 8971   6.999   0.195   7.545 -0.5191 -0.6177 -0.0886
   88CHL1  H21B 8972   6.973   0.022   7.589 -0.0765  0.0089 -0.7971
   88CHL1  H21C 8973   7.021   0.147   7.705  0.3146  0.0514  0.6013
   88CHL1   C22 8974   6.761   0.088   7.773  0.3694 -0.8022 -0.7856
   88CHL1  H22A 8975   6.650   0.096   7.771  0.0808 -3.6410 -1.0761
   88CHL1  H22B 8976   6.808  -0.013   7.776 -0.7593 -1.3379  1.9392
   88CHL1   C23 8977   6.814   0.160   7.899  0.4389  0.6833 -0.4371
   88CHL1  H23A 8978   6.923   0.175   7.891  0.9412 -0.3847  2.7636
   88CHL1  H23B 8979   6.754   0.254   7.901  0.6020  0.7816 -0.1562
   88CHL1   C24 8980   6.795   0.086   8.035  0.2204  0.2898 -0.5347
   88CHL1  H24A 8981   6.688   0.057   8.047  0.2992 -0.7935 -2.0958
   88CHL1  H24B 8982   6.851  -0.009   8.027 -1.1975 -0.6387  0.1606
   88CHL1   C25 8983   6.844   0.166   8.153  0.2533 -0.2097  0.2661
   88CHL1   H25 8984   6.929   0.225   8.114 -2.2076  1.1967 -3.5214
   88CHL1   C26 8985   6.740   0.273   8.192 -0.3760  0.5711 -0.9566
   88CHL1  H26A 8986   6.730   0.347   8.110 -3.8742  0.6924 -0.5812
   88CHL1  H26B 8987   6.647   0.220   8.224  0.2595  0.1632  0.2855
   88CHL1  H26C 8988   6.782   0.326   8.280 -0.1389 -2.6800  1.0643
   88CHL1   C27 8989   6.881   0.067   8.265 -0.0084 -0.1322  0.0702
   88CHL1  H27A 8990   6.918   0.122   8.353 -2.1215 -1.0376  1.6037
   88CHL1  H27B 8991   6.793   0.005   8.294  0.2653  0.9135  3.5200
   88CHL1  H27C 8992   6.963   0.002   8.227 -0.9246 -0.5076 -1.3892
   89CHL1    C3 8993   0.297   2.221   6.992 -0.2014  0.8926 -0.7127
   89CHL1    H3 8994   0.361   2.311   6.983  0.6554  0.9366  3.6739
   89CHL1    O3 8995   0.206   2.212   6.880  0.5692 -0.4898 -0.5361
   89CHL1   H3' 8996   0.263   2.220   6.804 -0.0030  2.2890 -0.7724
   89CHL1    C4 8997   0.394   2.097   7.000  0.8418 -0.1614  0.4782
   89CHL1   H4A 8998   0.335   2.004   6.990 -0.6864  1.0021 -2.1604
   89CHL1   H4B 8999   0.460   2.092   6.911  0.3487 -2.3022  0.1817
   89CHL1    C5 9000   0.472   2.108   7.127 -0.1473 -0.1100  0.1691
   89CHL1    C6 9001   0.602   2.100   7.110 -0.2036  0.2692  0.3529
   89CHL1    H6 9002   0.643   2.078   7.010 -0.9932 -1.9822  0.4744
   89CHL1    C7 9003   0.704   2.109   7.214 -0.5978  0.0668 -0.3861
   89CHL1   H7A 9004   0.776   2.025   7.207 -0.3990  0.2443 -0.4935
   89CHL1   H7B 9005   0.761   2.203   7.200  1.2671 -1.2578 -2.2924
   89CHL1    C8 9006   0.644   2.088   7.357  0.0645 -0.4544 -0.1688
   89CHL1    H8 9007   0.618   1.980   7.354 -0.3975 -0.3299 -1.0626
   89CHL1   C14 9008   0.745   2.108   7.462 -0.4189  0.1133 -0.1552
   89CHL1   H14 9009   0.786   2.211   7.461 -0.2035  0.0335  0.0609
   89CHL1   C15 9010   0.874   2.021   7.457 -0.5297  0.4313  0.1231
   89CHL1  H15A 9011   0.836   1.918   7.442 -1.9304  0.9597 -0.0627
   89CHL1  H15B 9012   0.925   2.064   7.368 -3.0513  1.3377 -0.9643
   89CHL1   C16 9013   0.942   2.046   7.598  0.1128  0.2196 -0.4004
   89CHL1  H16A 9014   0.974   1.956   7.654 -0.7977 -0.0940 -0.3700
   89CHL1  H16B 9015   1.035   2.108   7.597 -0.0456  0.5847  1.7320
   89CHL1   C17 9016   0.830   2.118   7.683  0.0423 -0.2028 -0.1030
   89CHL1   H17 9017   0.850   2.227   7.677  0.3364 -0.1044  1.9144
   89CHL1   C13 9018   0.695   2.101   7.611 -0.0836  0.3196 -0.1306
   89CHL1   C18 9019   0.644   1.962   7.637 -0.0734  0.0020  0.0141
   89CHL1  H18A 9020   0.591   1.961   7.735 -0.2314  0.1227 -0.0690
   89CHL1  H18B 9021   0.569   1.936   7.559  0.9851 -2.0182 -0.3865
   89CHL1  H18C 9022   0.716   1.878   7.635  1.6932  1.4047  1.3573
   89CHL1   C12 9023   0.581   2.199   7.625 -1.0895  1.0760 -0.3223
   89CHL1  H12A 9024   0.541   2.199   7.729  2.2289 -0.4035  1.1020
   89CHL1  H12B 9025   0.614   2.303   7.601 -3.1209  2.4895  2.3720
   89CHL1   C11 9026   0.463   2.185   7.531  0.2173  1.0340  0.2446
   89CHL1  H11A 9027   0.416   2.089   7.561  0.4261  0.1032 -2.1722
   89CHL1  H11B 9028   0.408   2.282   7.536  0.1479  1.0430 -0.6047
   89CHL1    C9 9029   0.520   2.172   7.380  0.2930  0.5794 -0.2632
   89CHL1    H9 9030   0.546   2.278   7.359 -2.9652  1.0087 -2.9231
   89CHL1   C10 9031   0.413   2.139   7.266  0.7184  0.2402  0.2179
   89CHL1   C19 9032   0.337   2.012   7.312  0.3288  0.0229  0.3801
   89CHL1  H19A 9033   0.411   1.938   7.349  1.5164  1.7076  1.5146
   89CHL1  H19B 9034   0.274   2.037   7.401 -1.5335 -0.7520 -0.6654
   89CHL1  H19C 9035   0.261   1.971   7.242 -0.6469 -0.6479  1.7853
   89CHL1    C1 9036   0.302   2.248   7.247 -0.1350 -0.3853  0.6697
   89CHL1   H1A 9037   0.244   2.263   7.341 -1.9568  1.0871 -0.6166
   89CHL1   H1B 9038   0.370   2.331   7.220  1.2112 -1.8100 -0.4582
   89CHL1    C2 9039   0.211   2.239   7.121  0.8042 -0.2015 -0.6597
   89CHL1   H2A 9040   0.147   2.328   7.101  2.3443  1.5123  1.5536
   89CHL1   H2B 9041   0.147   2.148   7.123  0.4193  0.0585 -1.0066
   89CHL1   C20 9042   0.843   2.086   7.826  0.5282 -0.4492 -0.6698
   89CHL1   H20 9043   0.835   1.975   7.830  1.0075 -0.4796 -0.4298
   89CHL1   C21 9044   0.738   2.155   7.923 -0.0959 -0.4047  0.5448
   89CHL1  H21A 9045   0.634   2.125   7.898 -0.5874  1.3491  0.3615
   89CHL1  H21B 9046   0.752   2.265   7.913  0.6005 -0.4590  0.8487
   89CHL1  H21C 9047   0.765   2.119   8.025  1.4254 -1.4710 -0.1949
   89CHL1   C22 9048   0.986   2.121   7.871  0.3762 -0.7703 -0.2720
   89CHL1  H22A 9049   1.069   2.075   7.813 -0.4499 -0.4754 -1.7398
   89CHL1  H22B 9050   0.994   2.231   7.870  1.1809 -0.8229 -1.8175
   89CHL1   C23 9051   1.017   2.069   8.015  0.0642  0.0789 -0.4332
   89CHL1  H23A 9052   0.958   2.126   8.089  1.4984  1.0427  0.0173
   89CHL1  H23B 9053   0.986   1.962   8.022 -0.1808  0.0033 -2.0695
   89CHL1   C24 9054   1.160   2.091   8.068  0.2669  0.0565  0.2602
   89CHL1  H24A 9055   1.229   2.080   7.981 -0.3082 -1.4019 -0.0317
   89CHL1  H24B 9056   1.168   2.192   8.114 -2.5042  0.4224  0.0790
   89CHL1   C25 9057   1.206   1.983   8.166  0.6604 -0.5355 -0.0337
   89CHL1   H25 9058   1.181   1.879   8.136 -0.6116 -1.2639  3.0942
   89CHL1   C26 9059   1.362   2.000   8.174  0.4580 -0.4516  0.3121
   89CHL1  H26A 9060   1.409   1.987   8.075 -0.9320  1.0432 -0.5968
   89CHL1  H26B 9061   1.387   2.101   8.215  2.0647 -1.6405  2.4834
   89CHL1  H26C 9062   1.396   1.922   8.246  1.3257 -0.9443 -0.6106
   89CHL1   C27 9063   1.132   2.003   8.298  0.0825 -0.0512 -0.0469
   89CHL1  H27A 9064   1.141   2.102   8.346  1.6448 -1.5176  2.9518
   89CHL1  H27B 9065   1.025   1.978   8.282  0.9750 -4.2657 -0.6043
   89CHL1  H27C 9066   1.173   1.930   8.371 -3.2892 -1.2602  0.8251
   90CHL1    C3 9067   2.895   3.907   7.250 -0.0093  0.2221  0.2932
   90CHL1    H3 9068   2.875   3.807   7.295 -0.3950  0.3921  0.5135
   90CHL1    O3 9069   2.860   3.904   7.112 -0.2069  0.5460 -0.3816
   90CHL1   H3' 9070   2.847   3.998   7.093 -1.5393  0.5029  0.2512
   90CHL1    C4 9071   2.816   4.022   7.332 -0.4115  0.1866  0.7289
   90CHL1   H4A 9072   2.847   4.116   7.282  0.1460  0.6173  1.8567
   90CHL1   H4B 9073   2.707   4.011   7.316 -0.3518 -0.3323  0.6544
   90CHL1    C5 9074   2.859   4.029   7.473  0.2642  0.2134 -0.7750
   90CHL1    C6 9075   2.768   4.028   7.575 -1.0367 -0.4716  0.1189
   90CHL1    H6 9076   2.662   4.027   7.545 -0.7899  1.6002 -1.0726
   90CHL1    C7 9077   2.810   4.037   7.717  0.0330 -0.1116 -0.3057
   90CHL1   H7A 9078   2.739   4.093   7.781 -1.2636  2.0167 -3.3272
   90CHL1   H7B 9079   2.799   3.936   7.762 -0.6552  0.3154  0.5179
   90CHL1    C8 9080   2.951   4.086   7.748 -0.5748 -0.3947  1.0848
   90CHL1    H8 9081   2.961   4.196   7.738 -1.4766 -0.3796  0.2077
   90CHL1   C14 9082   2.990   4.041   7.889 -0.0833 -0.4828 -0.4547
   90CHL1   H14 9083   2.986   3.931   7.901  1.8953 -0.7282 -1.5754
   90CHL1   C15 9084   2.917   4.102   8.006  0.1453 -0.2208  0.1692
   90CHL1  H15A 9085   2.896   4.210   7.993  0.2843 -0.2266 -0.1100
   90CHL1  H15B 9086   2.825   4.039   8.005  0.4360 -0.6443 -0.7625
   90CHL1   C16 9087   3.003   4.059   8.131  0.0209  0.7484  0.3876
   90CHL1  H16A 9088   3.006   4.140   8.207 -1.3196  0.9046  0.2890
   90CHL1  H16B 9089   2.965   3.972   8.187  0.0402  1.1754  1.0758
   90CHL1   C17 9090   3.141   4.016   8.072 -0.5726  0.0542  0.9153
   90CHL1   H17 9091   3.137   3.905   8.059 -1.2941  0.1596  0.0847
   90CHL1   C13 9092   3.135   4.065   7.924 -0.5723 -0.4562  0.4334
   90CHL1   C18 9093   3.163   4.222   7.931  1.0311  0.0622 -0.8246
   90CHL1  H18A 9094   3.102   4.268   7.849 -1.3229  1.0576  1.3309
   90CHL1  H18B 9095   3.125   4.257   8.029 -1.1322 -1.7349 -0.9445
   90CHL1  H18C 9096   3.271   4.245   7.931  0.5261  2.8648 -0.4052
   90CHL1   C12 9097   3.233   4.001   7.823  0.0947  0.4735 -0.6968
   90CHL1  H12A 9098   3.338   4.038   7.832  0.2472  0.2178 -1.3792
   90CHL1  H12B 9099   3.225   3.891   7.837 -1.6267  0.4359 -1.7036
   90CHL1   C11 9100   3.195   4.036   7.680  0.4078 -0.6025 -0.2977
   90CHL1  H11A 9101   3.214   4.145   7.665 -2.3105 -0.0284 -0.1787
   90CHL1  H11B 9102   3.262   3.981   7.610  1.6483  2.1148 -1.4178
   90CHL1    C9 9103   3.043   4.015   7.652 -0.2011 -0.2947 -0.4870
   90CHL1    H9 9104   3.014   3.908   7.665 -0.8189  0.0772  1.5691
   90CHL1   C10 9105   3.009   4.039   7.503  0.2614  0.0313 -0.3986
   90CHL1   C19 9106   3.053   4.188   7.469 -0.5266  0.0292  0.3060
   90CHL1  H19A 9107   3.013   4.213   7.368 -1.4710 -1.9400  0.1377
   90CHL1  H19B 9108   3.019   4.263   7.543 -1.1815 -0.7037  0.7575
   90CHL1  H19C 9109   3.164   4.187   7.461 -0.5030 -3.5303 -0.9687
   90CHL1    C1 9110   3.088   3.939   7.414  0.2893  0.5137  0.1082
   90CHL1   H1A 9111   3.198   3.940   7.424  0.2020 -0.0518  1.3658
   90CHL1   H1B 9112   3.069   3.838   7.456  0.8593  0.3539 -0.0192
   90CHL1    C2 9113   3.042   3.938   7.270  0.7082  0.3404 -0.1639
   90CHL1   H2A 9114   3.094   3.858   7.212 -0.3254 -1.6037  1.4494
   90CHL1   H2B 9115   3.061   4.039   7.229 -0.1551  1.6374  2.4404
   90CHL1   C20 9116   3.261   4.060   8.160  0.2626  0.4207  1.5291
   90CHL1   H20 9117   3.248   4.163   8.200  1.4482  1.5726 -0.8345
   90CHL1   C21 9118   3.400   4.064   8.100  0.1084  0.6354 -0.2103
   90CHL1  H21A 9119   3.470   4.100   8.178  0.7646  0.6599 -0.8046
   90CHL1  H21B 9120   3.402   4.128   8.009 -2.3110 -1.5843 -1.9712
   90CHL1  H21C 9121   3.430   3.960   8.075  0.5568  1.0589 -1.5214
   90CHL1   C22 9122   3.262   3.983   8.297  0.7500 -0.2567 -0.8628
   90CHL1  H22A 9123   3.158   3.972   8.335  1.5471  1.5103  2.1449
   90CHL1  H22B 9124   3.308   3.882   8.297 -1.0647 -1.1533  1.2197
   90CHL1   C23 9125   3.334   4.061   8.416 -0.1283  0.1005 -0.4377
   90CHL1  H23A 9126   3.440   4.042   8.388  0.5133  1.0470  1.2317
   90CHL1  H23B 9127   3.312   4.169   8.429  1.0054  0.1568  1.3686
   90CHL1   C24 9128   3.291   3.998   8.551  0.0114  1.0763 -1.3532
   90CHL1  H24A 9129   3.183   3.973   8.543 -0.2128  0.9885  0.9998
   90CHL1  H24B 9130   3.332   3.897   8.577 -0.1084  1.6313  1.2358
   90CHL1   C25 9131   3.308   4.094   8.674  0.2664 -0.1533 -0.4277
   90CHL1   H25 9132   3.266   4.192   8.643  0.4037  0.1170  0.2173
   90CHL1   C26 9133   3.240   4.034   8.793 -0.7119  0.5614 -0.0259
   90CHL1  H26A 9134   3.138   3.997   8.768 -1.2182  1.3887  0.7378
   90CHL1  H26B 9135   3.302   3.952   8.834 -1.5782  1.3813  3.1972
   90CHL1  H26C 9136   3.234   4.116   8.868  0.5654 -0.9477  1.8124
   90CHL1   C27 9137   3.456   4.102   8.709  0.2271  0.1756  0.0311
   90CHL1  H27A 9138   3.496   3.999   8.720 -2.4693 -0.9470 -0.1106
   90CHL1  H27B 9139   3.516   4.154   8.631  4.6754 -1.1506  2.2065
   90CHL1  H27C 9140   3.470   4.162   8.801 -2.1023  0.6544  0.1343
   91CHL1    C3 9141   3.616   6.040   7.105  0.8060  0.0997  0.2867
   91CHL1    H3 9142   3.540   5.990   7.168  1.2942  0.5574  1.2600
   91CHL1    O3 9143   3.597   6.004   6.973  0.3335 -0.3505  0.3017
   91CHL1   H3' 9144   3.675   6.040   6.931 -0.1246  2.9994  1.9695
   91CHL1    C4 9145   3.603   6.194   7.115 -0.4287  0.0472  0.0577
   91CHL1   H4A 9146   3.676   6.240   7.044 -0.2062 -2.9593 -1.8091
   91CHL1   H4B 9147   3.508   6.242   7.084 -0.6271  0.2832  0.9741
   91CHL1    C5 9148   3.641   6.241   7.256  0.0348  0.3624  0.0835
   91CHL1    C6 9149   3.562   6.306   7.341  0.2632 -0.4886 -0.3881
   91CHL1    H6 9150   3.458   6.334   7.315 -0.2826 -1.6353  0.4668
   91CHL1    C7 9151   3.602   6.352   7.480  0.0991  0.2760  0.3271
   91CHL1   H7A 9152   3.570   6.455   7.503 -3.8246 -1.2524  2.6456
   91CHL1   H7B 9153   3.551   6.294   7.560  0.7244  1.7020  1.8224
   91CHL1    C8 9154   3.760   6.354   7.499 -0.6397  0.4330 -0.0868
   91CHL1    H8 9155   3.802   6.431   7.432  0.7260 -1.8783 -2.0127
   91CHL1   C14 9156   3.797   6.372   7.648 -0.5917  0.4367  0.5308
   91CHL1   H14 9157   3.742   6.287   7.693 -2.1489  0.2689 -1.5541
   91CHL1   C15 9158   3.747   6.492   7.714 -0.6257 -0.1333 -1.5184
   91CHL1  H15A 9159   3.761   6.574   7.641  3.0911 -1.5867 -2.6584
   91CHL1  H15B 9160   3.641   6.489   7.749 -0.1110  0.7099  0.2598
   91CHL1   C16 9161   3.829   6.510   7.842  0.3210  0.4845 -0.1060
   91CHL1  H16A 9162   3.884   6.605   7.826  0.6970  0.2654 -0.1346
   91CHL1  H16B 9163   3.782   6.504   7.942  1.4661  2.4826  0.6134
   91CHL1   C17 9164   3.934   6.396   7.840  0.1607  0.7911  0.0292
   91CHL1   H17 9165   3.891   6.306   7.888  2.7023 -0.7062 -0.3362
   91CHL1   C13 9166   3.939   6.355   7.686 -0.4079  0.4700 -0.4231
   91CHL1   C18 9167   4.024   6.455   7.610  0.6680 -1.0155 -0.3519
   91CHL1  H18A 9168   4.117   6.398   7.587  0.1197 -3.0919  2.0141
   91CHL1  H18B 9169   3.976   6.473   7.512 -0.6602  2.3210  0.7953
   91CHL1  H18C 9170   4.049   6.550   7.662 -0.0332 -2.5384  3.0340
   91CHL1   C12 9171   3.982   6.207   7.648  0.0873 -0.3434  0.2207
   91CHL1  H12A 9172   4.085   6.182   7.680 -0.0374 -0.2653  0.6816
   91CHL1  H12B 9173   3.904   6.146   7.699 -1.4725  0.7379 -0.7738
   91CHL1   C11 9174   3.964   6.199   7.493 -0.1881 -0.2915  0.2466
   91CHL1  H11A 9175   4.027   6.275   7.441 -0.6198  0.9133  1.3982
   91CHL1  H11B 9176   4.003   6.102   7.455 -2.3553 -1.6542  1.3178
   91CHL1    C9 9177   3.817   6.216   7.453  0.6036  0.4566 -0.0115
   91CHL1    H9 9178   3.750   6.144   7.506  1.7305  0.1330  1.0148
   91CHL1   C10 9179   3.787   6.193   7.300 -0.2299  0.5165 -0.4896
   91CHL1   C19 9180   3.901   6.260   7.221 -0.4064  0.3880  0.1304
   91CHL1  H19A 9181   3.895   6.368   7.247  0.1121  0.9798 -2.0117
   91CHL1  H19B 9182   3.997   6.209   7.245 -0.6936 -0.1588  0.1427
   91CHL1  H19C 9183   3.887   6.245   7.112  1.1738 -1.2756  0.0975
   91CHL1    C1 9184   3.801   6.042   7.281  0.3278  0.6930  0.1849
   91CHL1   H1A 9185   3.904   6.005   7.300  0.2305  0.3028 -0.0233
   91CHL1   H1B 9186   3.754   5.979   7.359 -0.4965 -1.1155 -1.6813
   91CHL1    C2 9187   3.754   5.989   7.144  0.0969  0.3587  0.0840
   91CHL1   H2A 9188   3.758   5.878   7.153  0.7120  0.3594 -0.1008
   91CHL1   H2B 9189   3.822   6.011   7.059  1.5907 -1.0247  0.8495
   91CHL1   C20 9190   4.062   6.429   7.916 -0.8279  0.3899  0.0852
   91CHL1   H20 9191   4.113   6.511   7.860  1.8436 -0.5105  1.0343
   91CHL1   C21 9192   4.162   6.306   7.928  0.1350  0.4650  0.1050
   91CHL1  H21A 9193   4.129   6.219   7.988  2.4818  0.9071  2.2722
   91CHL1  H21B 9194   4.263   6.340   7.960  1.2178  0.1090 -2.6922
   91CHL1  H21C 9195   4.188   6.276   7.824  2.3108 -2.5465  1.3673
   91CHL1   C22 9196   4.035   6.475   8.060  0.7073  0.2699 -0.1018
   91CHL1  H22A 9197   3.974   6.568   8.053 -0.5806 -0.6018 -0.8589
   91CHL1  H22B 9198   3.968   6.403   8.112  0.7575  0.4814  0.2664
   91CHL1   C23 9199   4.160   6.498   8.152  0.0274  0.3099 -0.1932
   91CHL1  H23A 9200   4.208   6.403   8.181  0.2238  0.5633  0.3187
   91CHL1  H23B 9201   4.226   6.556   8.084  0.5147 -2.0842 -1.8908
   91CHL1   C24 9202   4.108   6.570   8.274 -0.2585  0.9609 -0.3060
   91CHL1  H24A 9203   4.058   6.664   8.242 -0.3379  1.1462  0.3549
   91CHL1  H24B 9204   4.030   6.509   8.323  0.2740  0.4590 -0.0802
   91CHL1   C25 9205   4.210   6.603   8.382 -0.1038  0.0712 -0.1558
   91CHL1   H25 9206   4.251   6.508   8.421 -1.9414 -1.0601 -0.8834
   91CHL1   C26 9207   4.330   6.683   8.333  0.0594 -0.4609 -0.0776
   91CHL1  H26A 9208   4.369   6.648   8.235 -0.0467  1.9032 -1.0344
   91CHL1  H26B 9209   4.312   6.791   8.315 -0.0113 -0.3904  0.4027
   91CHL1  H26C 9210   4.403   6.686   8.416 -2.9064 -0.3991  2.7216
   91CHL1   C27 9211   4.144   6.682   8.493 -0.3394 -0.1695 -0.9347
   91CHL1  H27A 9212   4.067   6.614   8.536  0.7313 -0.8916 -0.1097
   91CHL1  H27B 9213   4.221   6.712   8.568 -0.0454  2.2538 -2.1107
   91CHL1  H27C 9214   4.094   6.772   8.452 -0.3225  0.3657  0.1604
   92CHL1    C3 9215   6.307   2.063   6.765  0.4221  0.7288  0.0710
   92CHL1    H3 9216   6.292   2.170   6.742  1.2728  0.7393 -0.4837
   92CHL1    O3 9217   6.287   1.999   6.646  0.4009  0.0039  0.2164
   92CHL1   H3' 9218   6.203   1.954   6.658 -2.1025  4.3686  1.0042
   92CHL1    C4 9219   6.453   2.021   6.800 -0.9632 -0.7897 -0.6618
   92CHL1   H4A 9220   6.463   1.911   6.788  0.6061 -0.5907 -1.3831
   92CHL1   H4B 9221   6.525   2.066   6.729 -1.5404  0.5994 -0.4052
   92CHL1    C5 9222   6.484   2.067   6.943  0.0133  0.7363 -0.5262
   92CHL1    C6 9223   6.596   2.135   6.969 -0.0396 -0.9329  0.3326
   92CHL1    H6 9224   6.662   2.170   6.888  0.2538  1.1006  1.3899
   92CHL1    C7 9225   6.650   2.178   7.104  0.1405  1.1599  0.4763
   92CHL1   H7A 9226   6.757   2.148   7.112 -0.3391 -1.2490 -1.1832
   92CHL1   H7B 9227   6.643   2.289   7.102 -0.2751  1.1323 -0.9697
   92CHL1    C8 9228   6.565   2.103   7.214 -0.3778 -0.0419 -0.0012
   92CHL1    H8 9229   6.601   1.999   7.228  2.2801  0.8812  0.6526
   92CHL1   C14 9230   6.587   2.169   7.344 -0.2764  0.0671 -0.5141
   92CHL1   H14 9231   6.558   2.274   7.324  1.3006  0.3807 -1.2994
   92CHL1   C15 9232   6.736   2.173   7.392  0.0079 -0.0077 -0.0770
   92CHL1  H15A 9233   6.778   2.071   7.381 -0.6222 -0.3683  0.7573
   92CHL1  H15B 9234   6.796   2.242   7.328 -0.1379 -0.6925 -0.9715
   92CHL1   C16 9235   6.730   2.203   7.540  0.9076  0.2321  0.3806
   92CHL1  H16A 9236   6.795   2.135   7.598  0.9302  1.4514  1.8496
   92CHL1  H16B 9237   6.770   2.305   7.561  1.0657 -0.1044  1.8196
   92CHL1   C17 9238   6.579   2.202   7.572  0.4747  0.9782  0.5731
   92CHL1   H17 9239   6.546   2.308   7.559  0.6525  0.6949 -3.0944
   92CHL1   C13 9240   6.511   2.118   7.460 -0.1275 -1.0059  0.9535
   92CHL1   C18 9241   6.535   1.969   7.487  0.2930 -0.1635 -0.1753
   92CHL1  H18A 9242   6.476   1.924   7.570  0.0981 -0.9243 -0.7193
   92CHL1  H18B 9243   6.509   1.911   7.396 -3.2580  0.9348 -0.0182
   92CHL1  H18C 9244   6.642   1.946   7.508 -0.0639  0.7080  3.2741
   92CHL1   C12 9245   6.362   2.140   7.425  0.3067  1.1016  0.5433
   92CHL1  H12A 9246   6.306   2.099   7.511 -0.7316 -0.5347 -0.8588
   92CHL1  H12B 9247   6.340   2.249   7.424 -3.2464  0.4816 -0.9867
   92CHL1   C11 9248   6.322   2.064   7.296  0.8660 -0.1291  0.1175
   92CHL1  H11A 9249   6.312   1.956   7.322  0.1566 -0.1282 -0.1357
   92CHL1  H11B 9250   6.220   2.104   7.279  1.0112  0.3832  0.4108
   92CHL1    C9 9251   6.413   2.101   7.180  0.4932 -0.0788 -0.3210
   92CHL1    H9 9252   6.393   2.209   7.168 -0.5559 -0.1723  0.4214
   92CHL1   C10 9253   6.385   2.031   7.050  0.1507  0.4259 -0.0212
   92CHL1   C19 9254   6.403   1.877   7.067  0.3969  0.0284  0.4965
   92CHL1  H19A 9255   6.392   1.817   6.974  1.2209 -1.3684  1.2605
   92CHL1  H19B 9256   6.503   1.850   7.106  0.4713  0.0879  0.3458
   92CHL1  H19C 9257   6.321   1.846   7.136  0.9015 -0.8344  0.7261
   92CHL1    C1 9258   6.248   2.062   7.007  0.3154 -0.5281  0.2674
   92CHL1   H1A 9259   6.180   2.008   7.077  0.2698 -0.4744  0.2645
   92CHL1   H1B 9260   6.215   2.168   7.006 -2.6408 -1.2616  2.7481
   92CHL1    C2 9261   6.205   2.008   6.866  0.1700  0.2072 -0.2601
   92CHL1   H2A 9262   6.103   2.042   6.840 -0.4132 -2.4282 -1.6247
   92CHL1   H2B 9263   6.222   1.899   6.866  1.3002  0.3455 -1.9480
   92CHL1   C20 9264   6.554   2.158   7.720  0.1202  0.2010  0.4555
   92CHL1   H20 9265   6.566   2.047   7.725 -0.4994 -0.0570 -2.3682
   92CHL1   C21 9266   6.409   2.193   7.770 -0.3873  0.0819 -0.6629
   92CHL1  H21A 9267   6.368   2.116   7.839 -0.9068  0.7291 -0.2442
   92CHL1  H21B 9268   6.335   2.199   7.687 -1.1842 -0.0364  0.0230
   92CHL1  H21C 9269   6.415   2.292   7.819  1.8776 -0.6835  0.7305
   92CHL1   C22 9270   6.653   2.215   7.821 -0.4468 -0.3864  0.0876
   92CHL1  H22A 9271   6.755   2.200   7.781 -0.2914  1.8338 -0.4760
   92CHL1  H22B 9272   6.649   2.326   7.833  0.2281 -0.3444 -0.0120
   92CHL1   C23 9273   6.649   2.148   7.966 -0.5407 -0.3633  0.3169
   92CHL1  H23A 9274   6.542   2.163   7.995 -0.4572 -0.1714  0.5212
   92CHL1  H23B 9275   6.672   2.041   7.951  1.3027  0.4100 -3.5273
   92CHL1   C24 9276   6.741   2.209   8.064 -0.8455 -0.1948 -0.3032
   92CHL1  H24A 9277   6.716   2.156   8.158 -2.2681  1.6519  0.4306
   92CHL1  H24B 9278   6.842   2.179   8.031 -1.2422 -1.6332 -0.2659
   92CHL1   C25 9279   6.726   2.356   8.100  1.5574 -0.5161  0.5064
   92CHL1   H25 9280   6.744   2.411   8.005 -0.7170  2.4558  1.6068
   92CHL1   C26 9281   6.587   2.389   8.157 -0.5274 -0.5089 -0.2057
   92CHL1  H26A 9282   6.592   2.493   8.196  0.2133 -1.3048  1.9866
   92CHL1  H26B 9283   6.509   2.379   8.079 -0.4386  0.9262 -0.5107
   92CHL1  H26C 9284   6.555   2.329   8.245  0.2593 -0.3122  0.2247
   92CHL1   C27 9285   6.818   2.406   8.210  0.2621 -0.0879  0.0713
   92CHL1  H27A 9286   6.803   2.343   8.300 -1.7160  0.8123  0.4074
   92CHL1  H27B 9287   6.922   2.398   8.170 -0.3048 -1.9137 -1.1723
   92CHL1  H27C 9288   6.801   2.509   8.247  0.2452  0.0423 -0.2911
   93CHL1    C3 9289   4.624   6.286   6.709 -0.0943 -0.1809  0.7340
   93CHL1    H3 9290   4.585   6.182   6.709  2.7778 -1.3814  0.1461
   93CHL1    O3 9291   4.637   6.334   6.578 -0.0590  0.0485 -0.1054
   93CHL1   H3' 9292   4.729   6.347   6.554  0.4572 -0.1358  1.6529
   93CHL1    C4 9293   4.529   6.383   6.782 -0.8894  0.0111 -0.2816
   93CHL1   H4A 9294   4.555   6.490   6.767  1.3538 -0.6390 -1.4998
   93CHL1   H4B 9295   4.429   6.376   6.733 -0.9373  1.7928 -0.5158
   93CHL1    C5 9296   4.520   6.352   6.928 -0.5906  0.7713 -0.2247
   93CHL1    C6 9297   4.404   6.318   6.982  0.6405 -0.3807 -0.4588
   93CHL1    H6 9298   4.310   6.316   6.925  1.5199 -0.1530 -1.9573
   93CHL1    C7 9299   4.384   6.281   7.127 -0.4204  0.8627  0.2091
   93CHL1   H7A 9300   4.294   6.317   7.181  0.1963 -0.7115  2.4290
   93CHL1   H7B 9301   4.382   6.171   7.145  1.4552  1.1870  2.8918
   93CHL1    C8 9302   4.508   6.323   7.212  0.0201  0.4971  0.1831
   93CHL1    H8 9303   4.518   6.434   7.212  0.4619  0.4943  2.2111
   93CHL1   C14 9304   4.505   6.273   7.356 -0.1656  0.3206  0.2039
   93CHL1   H14 9305   4.498   6.163   7.343 -1.0465  0.5773 -1.7491
   93CHL1   C15 9306   4.381   6.317   7.434  0.4587  0.1467  0.0797
   93CHL1  H15A 9307   4.372   6.427   7.417  1.6135  0.5077  1.5895
   93CHL1  H15B 9308   4.295   6.256   7.401  1.4844 -0.1757 -2.1786
   93CHL1   C16 9309   4.415   6.315   7.583  0.2903 -0.2194  0.2534
   93CHL1  H16A 9310   4.407   6.422   7.613 -0.5199  0.7756 -3.1150
   93CHL1  H16B 9311   4.349   6.256   7.650  0.5413  0.6530  1.3101
   93CHL1   C17 9312   4.563   6.258   7.588  0.8633  0.1419 -0.9559
   93CHL1   H17 9313   4.564   6.147   7.588  1.8739  0.0903  1.5608
   93CHL1   C13 9314   4.627   6.301   7.453 -0.5967 -0.2318 -0.8173
   93CHL1   C18 9315   4.662   6.455   7.458  0.0685  0.2580  0.1124
   93CHL1  H18A 9316   4.760   6.466   7.508 -0.0396  0.8341  0.2017
   93CHL1  H18B 9317   4.673   6.491   7.354 -1.6821 -0.0268 -0.2127
   93CHL1  H18C 9318   4.590   6.528   7.502  0.9690  0.7249  0.8280
   93CHL1   C12 9319   4.739   6.219   7.385  0.6182  0.4850  0.2627
   93CHL1  H12A 9320   4.834   6.215   7.444 -1.0828  0.3892  3.2049
   93CHL1  H12B 9321   4.712   6.112   7.378 -0.4780  0.5235  2.7574
   93CHL1   C11 9322   4.764   6.265   7.240  0.4084 -1.0604  0.5957
   93CHL1  H11A 9323   4.813   6.365   7.241  1.1918 -1.2698 -3.2205
   93CHL1  H11B 9324   4.842   6.194   7.204 -1.1961 -1.9281 -1.3547
   93CHL1    C9 9325   4.637   6.263   7.144  0.1020 -0.1941 -0.1314
   93CHL1    H9 9326   4.622   6.154   7.128  1.2273 -0.5313  0.9942
   93CHL1   C10 9327   4.656   6.329   7.001  0.8469 -0.2958 -0.6608
   93CHL1   C19 9328   4.723   6.474   7.009 -0.6088 -0.7773  0.4957
   93CHL1  H19A 9329   4.725   6.527   6.911  0.1436 -1.6070  0.0464
   93CHL1  H19B 9330   4.670   6.536   7.085 -0.4402 -1.1947  0.9541
   93CHL1  H19C 9331   4.829   6.478   7.041 -0.1481 -0.6435 -0.9637
   93CHL1    C1 9332   4.744   6.232   6.918 -0.4068 -0.2884  0.4910
   93CHL1   H1A 9333   4.847   6.220   6.957 -0.9351 -2.2938  1.4647
   93CHL1   H1B 9334   4.688   6.135   6.917  0.1256 -0.6016 -0.6294
   93CHL1    C2 9335   4.761   6.274   6.773 -0.0582 -0.4712  0.4737
   93CHL1   H2A 9336   4.830   6.206   6.719 -1.3283 -0.9378 -0.6177
   93CHL1   H2B 9337   4.811   6.373   6.772  1.4342 -1.1219  2.7672
   93CHL1   C20 9338   4.633   6.302   7.720 -0.3459  0.0520  0.4742
   93CHL1   H20 9339   4.642   6.413   7.726 -1.9970  0.1587  1.8706
   93CHL1   C21 9340   4.767   6.228   7.723 -0.5380  0.1881  0.5921
   93CHL1  H21A 9341   4.834   6.283   7.654 -0.6872 -1.2966 -0.7814
   93CHL1  H21B 9342   4.757   6.123   7.688 -1.1801 -0.0592  1.4655
   93CHL1  H21C 9343   4.816   6.231   7.823  1.0690  0.4881 -0.1756
   93CHL1   C22 9344   4.553   6.259   7.842  0.6025 -0.8123 -0.0691
   93CHL1  H22A 9345   4.451   6.305   7.843  1.7629  2.0604  3.1212
   93CHL1  H22B 9346   4.550   6.149   7.830 -1.7753 -0.5758 -2.9030
   93CHL1   C23 9347   4.610   6.311   7.974  0.4051 -0.3369 -0.5972
   93CHL1  H23A 9348   4.721   6.303   7.972  0.3982 -0.3635 -2.3655
   93CHL1  H23B 9349   4.581   6.416   7.994  2.5807  0.2198 -0.0351
   93CHL1   C24 9350   4.573   6.220   8.095  0.1038  0.2247  0.0080
   93CHL1  H24A 9351   4.462   6.215   8.093  0.1559 -1.5466 -0.7791
   93CHL1  H24B 9352   4.612   6.118   8.076 -1.3970 -0.3407 -0.1970
   93CHL1   C25 9353   4.619   6.270   8.231  0.5651  1.4076  0.5237
   93CHL1   H25 9354   4.728   6.289   8.220  0.6244  1.4217  1.1316
   93CHL1   C26 9355   4.543   6.400   8.283 -0.1724  0.6534 -0.0878
   93CHL1  H26A 9356   4.439   6.368   8.307 -0.5273  1.0954 -0.9962
   93CHL1  H26B 9357   4.576   6.423   8.387 -3.5161 -0.5840  1.4142
   93CHL1  H26C 9358   4.528   6.487   8.215 -3.3488  0.9810  0.8417
   93CHL1   C27 9359   4.609   6.160   8.337 -0.0106 -0.1505 -0.0132
   93CHL1  H27A 9360   4.710   6.114   8.345  1.4523  2.7358 -0.4537
   93CHL1  H27B 9361   4.594   6.206   8.438 -0.8862 -1.2967  0.4035
   93CHL1  H27C 9362   4.527   6.091   8.310  2.2683 -1.6030 -3.8889
   94CHL1    C3 9363   5.280   0.905   6.640  1.2227 -0.1740 -0.1997
   94CHL1    H3 9364   5.171   0.883   6.648  1.2145  0.2222  1.0606
   94CHL1    O3 9365   5.298   0.954   6.508 -0.5431  0.0240 -0.1195
   94CHL1   H3' 9366   5.286   0.886   6.441 -0.4387  0.3460 -0.4695
   94CHL1    C4 9367   5.304   1.018   6.752  0.8886 -0.1307  1.1803
   94CHL1   H4A 9368   5.402   1.069   6.739  0.2279  1.2176  1.3459
   94CHL1   H4B 9369   5.230   1.099   6.735  0.2377 -1.1194 -1.0188
   94CHL1    C5 9370   5.300   0.959   6.892  0.0968  0.0593  0.1169
   94CHL1    C6 9371   5.217   1.003   6.986  0.0132  0.0307  0.4762
   94CHL1    H6 9372   5.149   1.085   6.957 -0.3348 -0.6192 -0.6234
   94CHL1    C7 9373   5.224   0.959   7.124  0.3031  0.8266  0.8136
   94CHL1   H7A 9374   5.206   1.049   7.187 -0.0739  1.1378  0.2766
   94CHL1   H7B 9375   5.135   0.894   7.140  0.2509  0.8935  0.7986
   94CHL1    C8 9376   5.349   0.879   7.159 -0.5981 -0.5390  0.1118
   94CHL1    H8 9377   5.433   0.951   7.169  0.6178 -1.9518  0.4390
   94CHL1   C14 9378   5.340   0.809   7.292  0.2749  0.4807 -0.7285
   94CHL1   H14 9379   5.257   0.736   7.285 -0.6829  1.0627  2.7562
   94CHL1   C15 9380   5.301   0.906   7.405  0.3201  0.1393 -0.1260
   94CHL1  H15A 9381   5.339   1.009   7.384 -0.7173  0.4076 -0.7430
   94CHL1  H15B 9382   5.190   0.903   7.397  0.3810 -0.2669 -0.8339
   94CHL1   C16 9383   5.340   0.832   7.535  0.2116  0.1528 -0.3348
   94CHL1  H16A 9384   5.418   0.896   7.581  0.2939 -0.4987  0.4740
   94CHL1  H16B 9385   5.250   0.804   7.594  0.2778  2.4799  0.9639
   94CHL1   C17 9386   5.415   0.705   7.480  0.3483 -0.2918  0.5374
   94CHL1   H17 9387   5.340   0.623   7.467 -0.3457  0.2284  1.2054
   94CHL1   C13 9388   5.465   0.734   7.336  0.5663  0.4478  0.4472
   94CHL1   C18 9389   5.579   0.832   7.343 -0.0832  0.1074 -0.4409
   94CHL1  H18A 9390   5.672   0.775   7.364 -0.1657  0.9743  2.9295
   94CHL1  H18B 9391   5.592   0.886   7.247 -0.3656  0.4569 -0.2849
   94CHL1  H18C 9392   5.586   0.907   7.425 -1.5607  0.3793 -0.5438
   94CHL1   C12 9393   5.484   0.620   7.232 -0.3625  0.4066  0.1576
   94CHL1  H12A 9394   5.578   0.561   7.244 -0.9190 -0.6850 -0.7452
   94CHL1  H12B 9395   5.389   0.564   7.242 -0.6219  1.0746  1.8695
   94CHL1   C11 9396   5.505   0.684   7.099  0.3308 -0.5216 -0.2901
   94CHL1  H11A 9397   5.601   0.740   7.097 -0.5081  0.9675  0.2606
   94CHL1  H11B 9398   5.515   0.596   7.032  1.1224 -1.3680  0.8998
   94CHL1    C9 9399   5.394   0.782   7.053  0.1814  0.2177 -0.3117
   94CHL1    H9 9400   5.306   0.716   7.041  0.7336 -0.8675  1.2127
   94CHL1   C10 9401   5.402   0.845   6.914  0.0292  0.7077 -0.3767
   94CHL1   C19 9402   5.545   0.900   6.904 -0.0031  0.1208 -0.6958
   94CHL1  H19A 9403   5.555   0.956   6.809  3.2461  1.7543  0.4551
   94CHL1  H19B 9404   5.559   0.966   6.992  2.1420 -3.4907  1.9579
   94CHL1  H19C 9405   5.626   0.825   6.894 -0.9453 -0.9608 -0.3786
   94CHL1    C1 9406   5.368   0.735   6.807 -0.4787 -0.3395  0.2159
   94CHL1   H1A 9407   5.430   0.643   6.817 -2.2945 -1.5324  0.9318
   94CHL1   H1B 9408   5.264   0.704   6.829 -1.4151  2.8902  0.7297
   94CHL1    C2 9409   5.370   0.787   6.657  0.1736 -0.2269 -0.3580
   94CHL1   H2A 9410   5.341   0.707   6.586  1.3290  0.8784 -2.1743
   94CHL1   H2B 9411   5.471   0.823   6.629  0.0724  0.2755 -0.0902
   94CHL1   C20 9412   5.517   0.655   7.575  0.3267 -0.1026 -0.9667
   94CHL1   H20 9413   5.603   0.725   7.583  1.8442 -1.8342 -1.5561
   94CHL1   C21 9414   5.581   0.525   7.514 -0.3749  0.4563 -0.3386
   94CHL1  H21A 9415   5.496   0.471   7.466  0.7957 -1.3233 -0.5054
   94CHL1  H21B 9416   5.631   0.462   7.591 -1.2985 -0.7291 -0.6649
   94CHL1  H21C 9417   5.647   0.566   7.434 -0.5808  1.3228 -0.0762
   94CHL1   C22 9418   5.457   0.632   7.718  0.0191  0.3356 -0.0505
   94CHL1  H22A 9419   5.383   0.712   7.741 -1.1599 -0.5804 -0.5367
   94CHL1  H22B 9420   5.413   0.530   7.713  2.8079 -0.9337 -0.7363
   94CHL1   C23 9421   5.548   0.648   7.839  0.0185  0.3413  0.3576
   94CHL1  H23A 9422   5.495   0.608   7.928 -0.2935  0.7925  0.3787
   94CHL1  H23B 9423   5.640   0.588   7.819  0.4281  1.2468 -0.5867
   94CHL1   C24 9424   5.607   0.794   7.868  0.4065  0.3102  0.7290
   94CHL1  H24A 9425   5.667   0.818   7.777  0.3486 -0.3923  0.5027
   94CHL1  H24B 9426   5.526   0.869   7.877 -2.0150 -1.7560 -2.1112
   94CHL1   C25 9427   5.708   0.801   7.988 -0.9369 -0.3362  0.6124
   94CHL1   H25 9428   5.788   0.735   7.949  0.6082  2.1943 -0.8444
   94CHL1   C26 9429   5.770   0.936   7.988  0.1969  0.1309  0.0842
   94CHL1  H26A 9430   5.715   1.003   8.057 -0.0026 -0.7481  0.8003
   94CHL1  H26B 9431   5.870   0.933   8.035 -0.3593 -2.4598  1.3054
   94CHL1  H26C 9432   5.778   0.969   7.883 -1.1101  0.4238  0.0550
   94CHL1   C27 9433   5.666   0.758   8.130  0.3802 -0.9284  0.6425
   94CHL1  H27A 9434   5.753   0.740   8.197  2.0756  1.8304 -0.6212
   94CHL1  H27B 9435   5.594   0.833   8.168  0.2607  0.1791 -1.5782
   94CHL1  H27C 9436   5.608   0.668   8.100 -0.2529 -0.2166 -0.3609
   95CHL1    C3 9437   5.250   1.429   6.837 -0.2988  0.2060 -0.6865
   95CHL1    H3 9438   5.249   1.318   6.836 -1.2017  0.1922  0.2513
   95CHL1    O3 9439   5.257   1.484   6.707  0.1780 -0.1128  0.1015
   95CHL1   H3' 9440   5.185   1.547   6.696 -1.1929 -1.2261  2.0622
   95CHL1    C4 9441   5.115   1.468   6.903  0.6840  0.2353 -0.6498
   95CHL1   H4A 9442   5.106   1.579   6.908  0.4025  0.1534  1.1391
   95CHL1   H4B 9443   5.025   1.435   6.846 -0.4435  1.5660  0.2584
   95CHL1    C5 9444   5.111   1.406   7.045  0.1700 -0.9173  0.2301
   95CHL1    C6 9445   5.007   1.331   7.082 -0.4022  0.4108  0.4820
   95CHL1    H6 9446   4.922   1.303   7.018  1.5912 -2.8244 -1.0360
   95CHL1    C7 9447   4.993   1.279   7.224 -0.0465 -0.3476  0.0154
   95CHL1   H7A 9448   4.890   1.302   7.258  0.3264  0.9863  0.2998
   95CHL1   H7B 9449   4.984   1.168   7.216 -2.4990 -0.1299 -1.2493
   95CHL1    C8 9450   5.101   1.334   7.321  0.0985 -0.8636  0.3831
   95CHL1    H8 9451   5.076   1.439   7.346  2.8019 -0.1693  0.4543
   95CHL1   C14 9452   5.117   1.248   7.443  0.1891  0.1509 -0.0894
   95CHL1   H14 9453   5.173   1.156   7.419  1.7783  0.5417  1.8371
   95CHL1   C15 9454   4.991   1.208   7.524 -0.5960  0.0543 -0.7524
   95CHL1  H15A 9455   4.929   1.298   7.544  0.7424  1.0807 -1.0867
   95CHL1  H15B 9456   4.930   1.135   7.466 -1.9671 -0.7653  1.5898
   95CHL1   C16 9457   5.050   1.156   7.656 -0.0401  0.3604  0.0401
   95CHL1  H16A 9458   4.984   1.190   7.738 -0.0132 -0.0279  0.2227
   95CHL1  H16B 9459   5.033   1.046   7.647 -0.0439  0.4739 -1.7444
   95CHL1   C17 9460   5.203   1.185   7.659  0.9284  0.2093  0.1970
   95CHL1   H17 9461   5.245   1.096   7.608  0.8942  0.9191 -1.1155
   95CHL1   C13 9462   5.219   1.294   7.545  0.1610 -0.0860 -0.3197
   95CHL1   C18 9463   5.168   1.426   7.609  0.4390 -0.4053 -0.2725
   95CHL1  H18A 9464   5.061   1.435   7.639  0.6433  1.3949  0.0176
   95CHL1  H18B 9465   5.235   1.466   7.687  1.0380 -2.8009  0.5355
   95CHL1  H18C 9466   5.171   1.507   7.533  0.1372 -1.1661 -1.1163
   95CHL1   C12 9467   5.356   1.306   7.479  0.1798 -0.3111  0.3571
   95CHL1  H12A 9468   5.438   1.334   7.549  1.3313 -0.1927 -1.0085
   95CHL1  H12B 9469   5.387   1.205   7.444  1.9461  1.4515 -3.8019
   95CHL1   C11 9470   5.361   1.387   7.350 -0.6725  0.6901 -0.0266
   95CHL1  H11A 9471   5.345   1.492   7.382 -0.9437  0.3774  0.9332
   95CHL1  H11B 9472   5.455   1.384   7.292  0.1061 -3.0888  1.1529
   95CHL1    C9 9473   5.241   1.352   7.257 -0.2711  0.1393  0.5189
   95CHL1    H9 9474   5.284   1.255   7.224  2.1495  1.6690 -1.1128
   95CHL1   C10 9475   5.239   1.432   7.125  0.7147  0.1385 -0.3083
   95CHL1   C19 9476   5.227   1.584   7.168 -0.5375  0.1386  1.1818
   95CHL1  H19A 9477   5.215   1.650   7.079 -1.3980 -0.6862  0.6621
   95CHL1  H19B 9478   5.155   1.607   7.249 -0.0723  0.2706  1.5627
   95CHL1  H19C 9479   5.326   1.612   7.209  0.9326 -1.6535 -0.8762
   95CHL1    C1 9480   5.374   1.410   7.047 -0.1123  0.0106  0.8887
   95CHL1   H1A 9481   5.461   1.445   7.106  1.4574 -0.8094 -0.8582
   95CHL1   H1B 9482   5.385   1.300   7.041  0.1244  0.1247 -1.2958
   95CHL1    C2 9483   5.377   1.472   6.914  0.7817  0.1697 -0.2751
   95CHL1   H2A 9484   5.465   1.437   6.855 -0.6798 -1.4698 -1.6066
   95CHL1   H2B 9485   5.385   1.582   6.926  2.3022  0.1499 -0.8928
   95CHL1   C20 9486   5.274   1.216   7.797 -0.4085 -0.2545  0.3463
   95CHL1   H20 9487   5.355   1.292   7.790  1.9225 -2.3068  2.4501
   95CHL1   C21 9488   5.336   1.084   7.846 -0.5097 -0.3659  0.3770
   95CHL1  H21A 9489   5.407   1.077   7.931  0.9755  0.3366 -0.7644
   95CHL1  H21B 9490   5.390   1.044   7.758  0.9177 -1.6295  1.7545
   95CHL1  H21C 9491   5.255   1.018   7.883  0.8157 -0.8316  2.6453
   95CHL1   C22 9492   5.193   1.280   7.906 -0.3264  0.2131 -0.6448
   95CHL1  H22A 9493   5.146   1.369   7.859  0.1456  1.0631  0.4506
   95CHL1  H22B 9494   5.120   1.203   7.939  0.2537  0.2451  0.8031
   95CHL1   C23 9495   5.263   1.313   8.036  0.0174  0.0263 -0.3322
   95CHL1  H23A 9496   5.345   1.240   8.050 -0.7460 -0.6352  0.7922
   95CHL1  H23B 9497   5.304   1.417   8.032  1.3081 -0.2042  3.4994
   95CHL1   C24 9498   5.160   1.288   8.153 -0.8177 -0.3160  0.1848
   95CHL1  H24A 9499   5.068   1.346   8.133 -1.4575 -1.4439 -0.2629
   95CHL1  H24B 9500   5.131   1.181   8.145 -0.5532 -0.2852 -1.8849
   95CHL1   C25 9501   5.228   1.316   8.292 -0.0387  0.0966  0.2290
   95CHL1   H25 9502   5.278   1.414   8.277  1.3963 -0.6817 -0.3344
   95CHL1   C26 9503   5.120   1.331   8.403 -1.0646  0.2491  1.1009
   95CHL1  H26A 9504   5.172   1.328   8.501  0.1734 -2.2282  0.4300
   95CHL1  H26B 9505   5.070   1.430   8.395 -2.9787 -0.8154 -2.4915
   95CHL1  H26C 9506   5.040   1.255   8.394  0.3148 -1.3405  1.8772
   95CHL1   C27 9507   5.336   1.209   8.346  0.8256 -0.2403  0.0592
   95CHL1  H27A 9508   5.373   1.248   8.443 -1.2533 -0.9803  1.2326
   95CHL1  H27B 9509   5.277   1.118   8.372 -0.3602  0.3491 -0.4858
   95CHL1  H27C 9510   5.408   1.190   8.265  0.8557 -1.5108  0.3651
   96CHL1    C3 9511   1.306   5.778   6.658 -0.2609  0.7836  0.9660
   96CHL1    H3 9512   1.314   5.668   6.652  1.6823  0.8559  1.4340
   96CHL1    O3 9513   1.234   5.835   6.551 -0.1349  0.0926  0.2296
   96CHL1   H3' 9514   1.263   5.925   6.567  0.7719 -0.4928  2.3338
   96CHL1    C4 9515   1.234   5.803   6.787  0.2193  0.0723  0.6908
   96CHL1   H4A 9516   1.201   5.909   6.783 -0.1812 -0.0910 -1.5381
   96CHL1   H4B 9517   1.138   5.747   6.783 -1.1542  2.2653  1.6186
   96CHL1    C5 9518   1.305   5.773   6.915  0.2564 -0.6264 -0.5366
   96CHL1    C6 9519   1.268   5.690   7.022  0.0337 -0.5251 -0.4296
   96CHL1    H6 9520   1.162   5.659   7.021 -0.8802  2.2016 -3.2520
   96CHL1    C7 9521   1.343   5.662   7.151 -0.5239  0.3667  0.7324
   96CHL1   H7A 9522   1.265   5.677   7.229 -0.1572 -1.5858  1.5662
   96CHL1   H7B 9523   1.366   5.553   7.157 -0.7776  0.1749 -1.1829
   96CHL1    C8 9524   1.465   5.750   7.169 -1.0555  0.4367 -0.0838
   96CHL1    H8 9525   1.431   5.849   7.208 -1.9840 -0.7502  2.3249
   96CHL1   C14 9526   1.562   5.690   7.273  0.0782  0.0855  0.6241
   96CHL1   H14 9527   1.588   5.596   7.219  0.0925 -0.5066  1.6463
   96CHL1   C15 9528   1.513   5.647   7.410  0.6622  0.2236 -0.1541
   96CHL1  H15A 9529   1.459   5.734   7.451  0.6729  0.8084 -1.3476
   96CHL1  H15B 9530   1.450   5.555   7.404  1.2200 -0.1154 -1.1990
   96CHL1   C16 9531   1.641   5.616   7.488 -0.6752  0.4834 -0.3331
   96CHL1  H16A 9532   1.640   5.666   7.588  0.4091  1.1617 -0.6417
   96CHL1  H16B 9533   1.659   5.508   7.502  0.5739  0.7083 -0.0797
   96CHL1   C17 9534   1.758   5.681   7.408  0.4027 -0.2954  0.0761
   96CHL1   H17 9535   1.802   5.600   7.345  1.0332  1.9587 -2.5593
   96CHL1   C13 9536   1.696   5.768   7.295  0.0450 -0.1508  0.0529
   96CHL1   C18 9537   1.656   5.906   7.347 -0.1992 -0.0738 -0.2068
   96CHL1  H18A 9538   1.751   5.961   7.365  0.8993 -2.0309  0.2802
   96CHL1  H18B 9539   1.585   5.958   7.279  0.4649  0.7187 -0.3094
   96CHL1  H18C 9540   1.600   5.904   7.443 -0.5460  0.7713 -0.3830
   96CHL1   C12 9541   1.767   5.774   7.157  0.2726  0.0203 -0.1243
   96CHL1  H12A 9542   1.851   5.846   7.167 -0.3966  0.8221 -0.0955
   96CHL1  H12B 9543   1.817   5.681   7.125  0.5247  0.5127 -1.2162
   96CHL1   C11 9544   1.682   5.829   7.045  0.4262  0.6901  0.7626
   96CHL1  H11A 9545   1.670   5.938   7.061 -0.8136  0.5641  0.7887
   96CHL1  H11B 9546   1.734   5.822   6.947 -0.8838  0.9980  0.0172
   96CHL1    C9 9547   1.536   5.767   7.037  0.5571 -0.0046 -0.2677
   96CHL1    H9 9548   1.568   5.668   6.998  2.5719  0.7618 -0.6944
   96CHL1   C10 9549   1.451   5.827   6.918 -0.1612 -0.0906  0.1401
   96CHL1   C19 9550   1.445   5.978   6.932 -0.3319  0.1411 -0.4331
   96CHL1  H19A 9551   1.545   6.021   6.908 -0.0292 -0.7665 -0.8249
   96CHL1  H19B 9552   1.384   6.035   6.859 -1.3421  0.8130  0.8796
   96CHL1  H19C 9553   1.417   6.014   7.033 -1.5343  0.3806 -0.8340
   96CHL1    C1 9554   1.524   5.796   6.783  0.2795 -0.0344  0.0011
   96CHL1   H1A 9555   1.621   5.850   6.780  1.2560 -1.7340 -0.5662
   96CHL1   H1B 9556   1.551   5.689   6.774  1.0552 -0.0109  1.5964
   96CHL1    C2 9557   1.449   5.832   6.655  0.6289 -0.2130  0.1137
   96CHL1   H2A 9558   1.511   5.801   6.568 -0.1345  1.1283 -0.9449
   96CHL1   H2B 9559   1.438   5.941   6.641  0.5535 -0.5200 -2.9044
   96CHL1   C20 9560   1.881   5.737   7.486  0.7580  0.0096  0.0683
   96CHL1   H20 9561   1.841   5.828   7.536 -4.4786 -2.6068  1.3825
   96CHL1   C21 9562   2.007   5.767   7.396 -0.8896  0.4069  0.0246
   96CHL1  H21A 9563   2.094   5.778   7.464 -1.1564 -1.2140  0.6669
   96CHL1  H21B 9564   1.993   5.856   7.331  0.7439  1.0288  0.4588
   96CHL1  H21C 9565   2.010   5.677   7.332 -1.1932  0.4623 -0.0705
   96CHL1   C22 9566   1.923   5.632   7.590 -0.3488  0.8766 -0.0298
   96CHL1  H22A 9567   1.839   5.608   7.658 -0.7510  0.4090 -0.6722
   96CHL1  H22B 9568   1.947   5.535   7.542 -0.3382  0.4965  0.7331
   96CHL1   C23 9569   2.034   5.670   7.689  0.2599  0.0523  0.8657
   96CHL1  H23A 9570   2.138   5.668   7.651  0.3231 -0.8484  1.0598
   96CHL1  H23B 9571   2.013   5.776   7.715 -1.2599  0.1134 -0.4895
   96CHL1   C24 9572   2.026   5.589   7.817  0.1103  0.4103 -0.0597
   96CHL1  H24A 9573   1.921   5.580   7.852 -1.2835  0.3800 -3.7516
   96CHL1  H24B 9574   2.068   5.491   7.787 -1.3710 -0.0086 -0.8429
   96CHL1   C25 9575   2.123   5.640   7.930  0.0978  0.0804  1.2764
   96CHL1   H25 9576   2.219   5.671   7.882 -1.0623  1.0649 -0.5218
   96CHL1   C26 9577   2.072   5.765   7.995  0.3577 -0.2105 -0.1681
   96CHL1  H26A 9578   2.135   5.802   8.078  1.4350 -1.6658 -0.2903
   96CHL1  H26B 9579   2.064   5.839   7.913 -2.7954  1.8266  1.7640
   96CHL1  H26C 9580   1.965   5.760   8.023 -0.4937  3.4859 -2.1229
   96CHL1   C27 9581   2.156   5.528   8.032  0.0923 -0.1405 -0.5009
   96CHL1  H27A 9582   2.237   5.569   8.096 -1.6663 -0.1920  1.8811
   96CHL1  H27B 9583   2.064   5.496   8.086  0.2952 -1.0512 -0.6650
   96CHL1  H27C 9584   2.193   5.438   7.978 -1.4904 -0.1303 -1.6763
   97OSM      N 9585   5.008   0.011  11.216 -1.2818  0.0228  0.0013
   97OSM    C15 9586   4.986   0.158  11.235  0.5541 -0.1054  0.7554
   97OSM   H15A 9587   5.073   0.207  11.277  0.2212 -0.1516  1.5098
   97OSM   H15B 9588   4.905   0.179  11.303  0.2641 -4.3267  1.9855
   97OSM   H15C 9589   4.974   0.208  11.140 -0.9679  1.8788  1.9047
   97OSM    C14 9590   5.041  -0.054  11.347 -0.0757  0.5784  0.8873
   97OSM   H14A 9591   5.053  -0.161  11.344 -2.0534  0.3328  0.0184
   97OSM   H14B 9592   4.949  -0.040  11.403  0.0403  3.4043  0.5400
   97OSM   H14C 9593   5.120  -0.011  11.407  1.0948 -1.1987  0.6845
   97OSM    C13 9594   4.890  -0.050  11.161  0.2170  0.6036  1.3055
   97OSM   H13A 9595   4.820  -0.066  11.242  0.1436  0.8528  1.2918
   97OSM   H13B 9596   4.917  -0.146  11.118  0.1622  0.4392  1.6286
   97OSM   H13C 9597   4.850   0.012  11.083 -1.3265 -0.3314  1.3158
   97OSM    C12 9598   5.128  -0.005  11.120  0.9048  0.4413  0.2041
   97OSM   H12A 9599   5.150  -0.110  11.129 -2.0094 -0.2214  0.4558
   97OSM   H12B 9600   5.214   0.042  11.165  0.4638 -0.6285  2.2505
   97OSM    C11 9601   5.125   0.035  10.969 -0.0416 -0.2609 -0.3306
   97OSM   H11A 9602   5.032  -0.016  10.936 -1.0893  0.6207  1.1563
   97OSM   H11B 9603   5.213  -0.005  10.913  2.4609  1.1572  2.3471
   97OSM      P 9604   5.198   0.270  10.902  0.2284 -0.1915  0.2074
   97OSM    O13 9605   5.164   0.412  10.929 -0.4285 -0.8794 -0.3455
   97OSM    O14 9606   5.329   0.217  10.950  0.1290  0.4024 -0.6244
   97OSM    O11 9607   5.198   0.246  10.746  0.1083 -0.3870 -0.3334
   97OSM    O12 9608   5.092   0.175  10.955  0.3035 -0.0248 -0.3484
   97OSM    C1S 9609   5.075   0.273  10.677 -0.0565 -0.5299  0.4928
   97OSM    H1S 9610   5.053   0.381  10.661  3.0789 -0.1573 -2.6280
   97OSM    H1T 9611   4.989   0.220  10.723  0.5240 -2.2646 -0.3310
   97OSM     NF 9612   4.989   0.275  10.434  1.1662 -0.4890 -0.0469
   97OSM    HNF 9613   4.929   0.200  10.406 -1.0268  1.1712 -0.0508
   97OSM    C2S 9614   5.088   0.232  10.528  0.5141  0.4306  0.1850
   97OSM    H2S 9615   5.181   0.276  10.486  0.5792 -0.0806 -0.2176
   97OSM    C3S 9616   5.096   0.071  10.528 -0.5878  0.3071  0.2277
   97OSM    H3S 9617   5.001   0.035  10.571 -0.7960  0.2092 -0.3070
   97OSM     O3 9618   5.187   0.011  10.620  0.7237  0.4897  0.6302
   97OSM    HO3 9619   5.199   0.078  10.687 -0.7459 -0.8972  2.4114
   97OSM    C4S 9620   5.120   0.019  10.394 -0.8832 -0.0660  0.2511
   97OSM    H4S 9621   5.225   0.041  10.370 -0.4395  0.0938  2.1414
   97OSM    C5S 9622   5.048  -0.057  10.309 -0.4617  0.4486 -0.5435
   97OSM    H5S 9623   4.950  -0.097  10.338 -0.5980  1.4798  0.4999
   97OSM    C6S 9624   5.107  -0.098  10.180 -0.1817 -0.2953  0.3761
   97OSM    H6S 9625   5.056  -0.188  10.140  0.6545 -0.6374  0.0349
   97OSM    H6T 9626   5.215  -0.121  10.198 -0.2940 -0.3789  0.9521
   97OSM    C7S 9627   5.093   0.018  10.077  0.3963  0.5877 -0.0565
   97OSM    H7S 9628   5.136   0.114  10.112 -3.3094  2.2850  0.4147
   97OSM    H7T 9629   4.982   0.031  10.070  0.0536 -1.0802  1.3402
   97OSM    C8S 9630   5.156  -0.020   9.938 -0.0803  0.1401 -0.5420
   97OSM    H8S 9631   5.112  -0.119   9.914  0.2121 -0.3754  0.8980
   97OSM    H8T 9632   5.267  -0.022   9.936 -0.0825  0.3575 -2.1425
   97OSM    C9S 9633   5.107   0.084   9.842 -0.3679  0.2229 -0.1259
   97OSM    H9S 9634   5.161   0.177   9.869  0.0754  0.7158 -2.4493
   97OSM    H9T 9635   5.000   0.102   9.866  0.4490  2.4261  2.3149
   97OSM   C10S 9636   5.131   0.041   9.696  0.2725  0.4328  0.2040
   97OSM   H10S 9637   5.060  -0.043   9.679 -1.9189  2.5310 -1.6986
   97OSM   H10T 9638   5.231  -0.009   9.695 -0.4367 -1.0498 -0.8646
   97OSM   C11S 9639   5.142   0.154   9.596  0.6617  0.1986  0.4411
   97OSM   H11S 9640   5.235   0.211   9.618  0.7025  0.4475 -0.3194
   97OSM   H11T 9641   5.051   0.216   9.604  0.3634 -0.2587  0.5713
   97OSM   C12S 9642   5.149   0.120   9.443  0.7102 -0.0947  0.1942
   97OSM   H12S 9643   5.247   0.080   9.409  0.1176 -1.0005 -0.4555
   97OSM   H12T 9644   5.150   0.211   9.380 -1.8864  0.7777  1.2935
   97OSM   C13S 9645   5.035   0.028   9.400 -0.2032  0.3454  0.3034
   97OSM   H13S 9646   4.935   0.075   9.416 -0.0509  0.4922  0.8235
   97OSM   H13T 9647   5.023  -0.054   9.474 -0.2925  1.6023  1.7507
   97OSM   C14S 9648   5.054  -0.036   9.263  0.2242  0.3823 -0.4532
   97OSM   H14S 9649   4.980  -0.118   9.264  0.2292  0.2577 -3.3590
   97OSM   H14T 9650   5.156  -0.080   9.257  0.2555  0.4651 -0.5326
   97OSM   C15S 9651   5.041   0.044   9.134  1.0774  0.2143 -0.5685
   97OSM   H15S 9652   5.119   0.123   9.127  1.5211 -0.0215  1.1953
   97OSM   H15T 9653   4.943   0.095   9.126  0.3403 -1.0842 -0.0186
   97OSM   C16S 9654   5.066  -0.052   9.021 -0.6579 -0.3113  0.5851
   97OSM   H16S 9655   4.991  -0.133   9.036 -0.7688  0.2676  3.7325
   97OSM   H16T 9656   5.168  -0.094   9.030  0.3540  2.1884  1.6875
   97OSM   C17S 9657   5.055   0.014   8.885 -0.3927 -0.0124 -0.0804
   97OSM   H17S 9658   5.128   0.098   8.898 -0.2715 -0.0004 -0.8289
   97OSM   H17T 9659   4.951   0.050   8.872 -0.8879  0.1199  3.2849
   97OSM   C18S 9660   5.095  -0.084   8.771  0.5107  0.5708 -0.3894
   97OSM   H18S 9661   5.073  -0.042   8.670  2.4001  0.0156 -1.0744
   97OSM   H18T 9662   5.046  -0.181   8.792 -1.0479  1.7219  1.7045
   97OSM   H18U 9663   5.203  -0.106   8.785  0.5886  1.4283  0.4395
   97OSM    C1F 9664   4.964   0.402  10.395  0.7030 -0.1433  0.1577
   97OSM     OF 9665   5.022   0.501  10.436 -0.6987 -0.1216 -0.9695
   97OSM    C2F 9666   4.844   0.414  10.296  0.1886 -0.4065 -0.8202
   97OSM    H2F 9667   4.848   0.519  10.261  0.9384  0.2186  1.0448
   97OSM    H2G 9668   4.749   0.386  10.345  0.0262 -2.1205 -1.9827
   97OSM    C3F 9669   4.871   0.310  10.185  0.3579 -0.1332 -0.3505
   97OSM    H3F 9670   4.782   0.308  10.119 -1.3893  0.1575  1.8745
   97OSM    H3G 9671   4.871   0.206  10.225  1.8132 -0.0812 -0.1650
   97OSM    C4F 9672   4.986   0.342  10.093 -0.0709  0.7165 -0.9505
   97OSM    H4F 9673   4.974   0.270  10.009 -1.1631 -0.9553  0.5418
   97OSM    H4G 9674   5.084   0.333  10.144 -0.9268  1.4236  0.9174
   97OSM    C5F 9675   4.980   0.480  10.037 -0.3738  0.3633 -0.1374
   97OSM    H5F 9676   5.026   0.552  10.107  0.1791 -0.7372  0.6674
   97OSM    H5G 9677   4.875   0.515  10.021  0.6957  3.1225 -1.6993
   97OSM    C6F 9678   5.046   0.486   9.897 -0.3784  0.0666  0.0515
   97OSM    H6F 9679   5.021   0.578   9.840 -1.2515 -0.2359 -0.0673
   97OSM    H6G 9680   5.004   0.398   9.843 -2.7642  0.6619  0.8077
   97OSM    C7F 9681   5.198   0.468   9.894  0.2261  0.2070  0.0318
   97OSM    H7F 9682   5.221   0.368   9.935  1.9295  0.6008  0.0862
   97OSM    H7G 9683   5.239   0.534   9.974 -0.1582 -0.2467  0.6116
   97OSM    C8F 9684   5.263   0.497   9.759 -0.1690 -0.2141 -0.0831
   97OSM    H8F 9685   5.230   0.422   9.684  1.2703 -0.0280 -0.9332
   97OSM    H8G 9686   5.369   0.467   9.775 -0.1293  0.8539  1.9445
   97OSM    C9F 9687   5.261   0.633   9.693  0.1157 -0.1365  0.1401
   97OSM    H9F 9688   5.316   0.702   9.759  2.1524  0.7628 -2.3440
   97OSM   C10F 9689   5.197   0.676   9.583 -0.4578 -0.4978  0.5301
   97OSM   H10F 9690   5.205   0.783   9.557 -3.9040  0.0922  1.4109
   97OSM   C11F 9691   5.121   0.596   9.478  0.2440 -0.3911 -0.4402
   97OSM   H11F 9692   5.019   0.636   9.461  0.0560 -1.8942 -3.5192
   97OSM   H11G 9693   5.107   0.491   9.511 -0.4410 -0.1796 -0.0526
   97OSM   C12F 9694   5.197   0.584   9.347 -0.0390 -0.4258  0.4826
   97OSM   H12F 9695   5.291   0.527   9.365  1.3512  1.2973 -0.8935
   97OSM   H12G 9696   5.227   0.683   9.307  0.9612 -1.1712 -0.7246
   97OSM   C13F 9697   5.123   0.508   9.230 -0.6706  0.1456  0.5802
   97OSM   H13F 9698   5.029   0.558   9.200  0.4950  1.7940 -0.5535
   97OSM   H13G 9699   5.105   0.411   9.282 -1.5240 -0.2694 -0.4585
   97OSM   C14F 9700   5.207   0.481   9.107  0.5586 -0.7903  0.2017
   97OSM   H14F 9701   5.300   0.423   9.125  0.3908 -1.3048 -0.5600
   97OSM   H14G 9702   5.244   0.578   9.068  0.7495 -0.3860  1.3386
   97OSM   C15F 9703   5.129   0.407   8.996 -0.0905 -0.5859 -0.0628
   97OSM   H15F 9704   5.031   0.457   8.979 -0.1186  0.4901  2.6803
   97OSM   H15G 9705   5.112   0.300   9.020 -0.2438 -0.3589  0.9027
   97OSM   C16F 9706   5.219   0.388   8.865  0.6419 -0.6863 -0.2809
   97OSM   H16F 9707   5.169   0.323   8.790  1.5951 -0.6491 -0.9740
   97OSM   H16G 9708   5.309   0.324   8.880  1.3846  0.3742 -0.0700
   97OSM   C17F 9709   5.260   0.524   8.803 -0.0918  1.0834  0.4508
   97OSM   H17F 9710   5.328   0.509   8.716  0.6506  2.0347  0.8455
   97OSM   H17G 9711   5.323   0.575   8.879 -1.8238  0.1273  2.6335
   97OSM   C18F 9712   5.139   0.602   8.762  0.1923  0.0673 -0.3847
   97OSM   H18F 9713   5.082   0.545   8.686 -0.7280  1.4291 -0.7650
   97OSM   H18G 9714   5.182   0.696   8.719  1.0303  0.3401  0.9807
   97OSM   H18H 9715   5.076   0.635   8.847  0.7179  1.8512 -0.6250
   98OSM      N 9716   3.160   6.408  10.430 -0.0684  0.5175 -0.2375
   98OSM    C15 9717   3.199   6.323  10.308 -0.0299  0.5541 -0.2647
   98OSM   H15A 9718   3.204   6.383  10.218  1.8752  0.2030 -0.4404
   98OSM   H15B 9719   3.126   6.248  10.283  3.5570 -2.7809 -1.7273
   98OSM   H15C 9720   3.291   6.265  10.313  0.2507  0.8919 -1.3387
   98OSM    C14 9721   3.042   6.486  10.381 -0.9529  0.6180 -0.1864
   98OSM   H14A 9722   3.076   6.548  10.300  3.1315 -1.0635  0.0009
   98OSM   H14B 9723   3.002   6.552  10.456 -1.3239  0.4571 -0.2405
   98OSM   H14C 9724   2.960   6.425  10.345  0.8405 -1.6069 -0.7084
   98OSM    C13 9725   3.104   6.320  10.530 -0.2469  0.2063  0.1088
   98OSM   H13A 9726   3.175   6.249  10.570 -1.0534 -1.1925 -0.8730
   98OSM   H13B 9727   3.027   6.258  10.487  0.8915 -2.2204  1.3677
   98OSM   H13C 9728   3.061   6.371  10.615  2.7380  0.7516  1.4205
   98OSM    C12 9729   3.272   6.496  10.481  0.6203  0.2632  0.4933
   98OSM   H12A 9730   3.237   6.554  10.565 -1.7029 -0.3192 -0.0056
   98OSM   H12B 9731   3.302   6.559  10.398 -2.0125  0.7506 -0.1980
   98OSM    C11 9732   3.396   6.410  10.534 -0.1837 -0.9002  0.8243
   98OSM   H11A 9733   3.484   6.476  10.551  0.7256 -2.4707  2.5736
   98OSM   H11B 9734   3.420   6.336  10.454 -1.7823 -1.0616  0.4600
   98OSM      P 9735   3.434   6.215  10.708  0.3193  0.2958 -0.4827
   98OSM    O13 9736   3.390   6.206  10.847 -0.5667  0.0585 -0.4424
   98OSM    O14 9737   3.404   6.095  10.623  0.1864 -0.6483  0.5347
   98OSM    O11 9738   3.587   6.264  10.704  0.1500  0.1872 -0.4568
   98OSM    O12 9739   3.362   6.341  10.658  0.5569 -0.3923  0.3699
   98OSM    C1S 9740   3.692   6.188  10.646 -0.2599  0.1365  0.2199
   98OSM    H1S 9741   3.656   6.087  10.620  2.0285 -0.3017 -1.6041
   98OSM    H1T 9742   3.779   6.181  10.715 -0.3356  0.2192  0.3227
   98OSM     NF 9743   3.833   6.154  10.446 -0.2025 -0.1244  0.3376
   98OSM    HNF 9744   3.932   6.164  10.444 -0.1859 -0.3205 -2.0384
   98OSM    C2S 9745   3.748   6.252  10.517 -0.0181  0.1650 -0.5506
   98OSM    H2S 9746   3.661   6.281  10.455  0.3033  0.8741 -0.6718
   98OSM    C3S 9747   3.821   6.383  10.557  0.2462  0.5562 -0.1893
   98OSM    H3S 9748   3.908   6.360  10.622  0.6896  1.8262 -0.3031
   98OSM     O3 9749   3.729   6.470  10.617 -0.3346 -0.5276  0.0597
   98OSM    HO3 9750   3.652   6.418  10.639  0.8373 -1.5168  2.1127
   98OSM    C4S 9751   3.867   6.458  10.433 -0.2089  0.0616  0.5337
   98OSM    H4S 9752   3.787   6.478  10.360  1.5015  0.3956 -1.3138
   98OSM    C5S 9753   3.995   6.476  10.396 -0.0071 -0.1700 -0.3354
   98OSM    H5S 9754   4.087   6.449  10.450  1.3891  0.8393 -2.0697
   98OSM    C6S 9755   4.037   6.533  10.263  0.3347 -0.9288  0.3750
   98OSM    H6S 9756   4.112   6.613  10.281  0.3358 -0.8388 -0.0229
   98OSM    H6T 9757   3.951   6.581  10.210  0.0308 -0.9820  0.8143
   98OSM    C7S 9758   4.116   6.427  10.177  0.9888 -0.0049  0.2010
   98OSM    H7S 9759   4.050   6.338  10.169 -2.2064  2.2005  0.5069
   98OSM    H7T 9760   4.211   6.403  10.230  2.0974  3.2455 -0.1195
   98OSM    C8S 9761   4.138   6.486  10.036  0.3738 -0.2733 -0.1284
   98OSM    H8S 9762   4.224   6.557  10.031 -0.4548  1.3077  4.0628
   98OSM    H8T 9763   4.045   6.539  10.005  0.0507 -2.5640 -3.6571
   98OSM    C9S 9764   4.155   6.377   9.923 -0.4048 -1.0951 -0.4414
   98OSM    H9S 9765   4.084   6.292   9.936 -0.6807 -1.0435 -1.5198
   98OSM    H9T 9766   4.248   6.321   9.946 -0.4694 -0.7238  0.7716
   98OSM   C10S 9767   4.144   6.438   9.788  0.3321  0.0104 -0.0616
   98OSM   H10S 9768   4.211   6.526   9.800 -0.8276  1.0252 -0.7882
   98OSM   H10T 9769   4.039   6.469   9.771 -0.2585 -0.2481  2.5794
   98OSM   C11S 9770   4.199   6.355   9.669  0.0106 -0.3193  0.1070
   98OSM   H11S 9771   4.145   6.259   9.658 -0.6225  0.0648 -0.2031
   98OSM   H11T 9772   4.308   6.340   9.683  0.6329  1.6291 -2.0201
   98OSM   C12S 9773   4.185   6.432   9.534 -0.0096  0.0284 -0.1313
   98OSM   H12S 9774   4.218   6.537   9.551 -0.3463 -0.2188  2.5143
   98OSM   H12T 9775   4.077   6.442   9.511 -0.2935  2.4770  1.8307
   98OSM   C13S 9776   4.254   6.362   9.413  0.0634 -0.2427 -0.3655
   98OSM   H13S 9777   4.225   6.255   9.411 -1.9153  0.2664 -2.2998
   98OSM   H13T 9778   4.360   6.363   9.448 -0.1135  0.9507  0.1898
   98OSM   C14S 9779   4.230   6.422   9.279  0.4103 -0.2271 -0.5715
   98OSM   H14S 9780   4.242   6.532   9.289 -0.9859 -0.0836 -0.3080
   98OSM   H14T 9781   4.125   6.399   9.249 -0.2668  1.0665  0.6950
   98OSM   C15S 9782   4.326   6.373   9.174 -0.3151  0.4808  0.2592
   98OSM   H15S 9783   4.289   6.273   9.144 -1.2356  1.0225 -0.4445
   98OSM   H15T 9784   4.427   6.367   9.220 -0.7750 -0.2904  1.2203
   98OSM   C16S 9785   4.327   6.459   9.046 -0.1270 -0.1312 -0.0615
   98OSM   H16S 9786   4.415   6.435   8.981  0.4525  0.5386  0.4595
   98OSM   H16T 9787   4.350   6.562   9.080 -0.4585 -0.4227  1.0988
   98OSM   C17S 9788   4.196   6.459   8.957 -0.1097  0.0227 -0.0058
   98OSM   H17S 9789   4.105   6.496   9.008  1.4523  0.6916  2.4343
   98OSM   H17T 9790   4.181   6.352   8.929  0.1755  0.3069 -1.3467
   98OSM   C18S 9791   4.204   6.558   8.840  0.5791  0.2436 -0.2553
   98OSM   H18S 9792   4.100   6.590   8.815  0.4065 -0.0185  0.1305
   98OSM   H18T 9793   4.244   6.508   8.749 -0.8781  0.5016 -1.0745
   98OSM   H18U 9794   4.260   6.649   8.870 -0.3397  0.8460 -0.3297
   98OSM    C1F 9795   3.790   6.039  10.396  0.7456  0.2949  0.0915
   98OSM     OF 9796   3.671   6.004  10.400  0.4140  0.0529  0.4140
   98OSM    C2F 9797   3.894   5.939  10.350 -0.1900 -0.7537 -1.3422
   98OSM    H2F 9798   3.926   5.870  10.430 -1.2979 -1.7494 -1.7401
   98OSM    H2G 9799   3.988   5.995  10.329 -1.3907  2.0116  0.2180
   98OSM    C3F 9800   3.851   5.868  10.225  0.3919  0.5505  0.3081
   98OSM    H3F 9801   3.845   5.939  10.140 -1.0327 -1.7640 -1.6757
   98OSM    H3G 9802   3.756   5.810  10.227  0.9047 -0.2711  1.8815
   98OSM    C4F 9803   3.943   5.757  10.181 -0.4700  0.1685 -0.3421
   98OSM    H4F 9804   3.948   5.686  10.267 -0.5953 -1.4141 -1.6078
   98OSM    H4G 9805   4.041   5.808  10.172 -1.6405  3.0062  1.5384
   98OSM    C5F 9806   3.890   5.682  10.060  0.3144 -0.3490 -0.0363
   98OSM    H5F 9807   3.780   5.669  10.056  0.1251  0.4184  1.9358
   98OSM    H5G 9808   3.925   5.577  10.060 -0.4986 -0.6851 -2.3944
   98OSM    C6F 9809   3.937   5.742   9.921 -0.5105  0.2581  0.0311
   98OSM    H6F 9810   4.045   5.718   9.928 -0.7581 -1.4753 -1.3115
   98OSM    H6G 9811   3.910   5.850   9.917  1.3851  0.7457 -0.7941
   98OSM    C7F 9812   3.877   5.669   9.797 -0.1477 -0.4854 -0.4014
   98OSM    H7F 9813   3.771   5.692   9.773 -0.0358  0.9286  0.4090
   98OSM    H7G 9814   3.879   5.558   9.810  0.0871 -0.3370  0.8999
   98OSM    C8F 9815   3.957   5.713   9.670  0.0708  0.1288 -0.1862
   98OSM    H8F 9816   4.056   5.749   9.705 -0.1341  0.7611 -0.2394
   98OSM    H8G 9817   3.913   5.808   9.634 -0.3502  0.8397  2.0131
   98OSM    C9F 9818   3.977   5.603   9.573 -1.0403  0.1451 -0.0365
   98OSM    H9F 9819   4.078   5.560   9.562 -0.4436  1.4898 -0.0683
   98OSM   C10F 9820   3.874   5.549   9.505  0.0712 -0.6446 -0.5122
   98OSM   H10F 9821   3.879   5.455   9.449 -3.0802 -0.5186 -1.2005
   98OSM   C11F 9822   3.735   5.598   9.492  0.4766  0.0060  0.0820
   98OSM   H11F 9823   3.735   5.707   9.512 -1.3189  0.0679 -0.1448
   98OSM   H11G 9824   3.682   5.557   9.580 -2.3482 -0.4576 -1.7129
   98OSM   C12F 9825   3.655   5.578   9.365 -0.1245  0.3116 -0.3050
   98OSM   H12F 9826   3.551   5.607   9.389 -0.0250 -2.2022  4.3629
   98OSM   H12G 9827   3.659   5.469   9.344 -0.3863 -0.6983  3.9867
   98OSM   C13F 9828   3.726   5.663   9.256 -0.5058 -0.0992 -0.1737
   98OSM   H13F 9829   3.832   5.639   9.236 -0.8342 -0.7704 -1.1387
   98OSM   H13G 9830   3.719   5.774   9.261 -0.6930 -0.0911 -0.6376
   98OSM   C14F 9831   3.652   5.624   9.130  0.6663 -0.0681  0.0212
   98OSM   H14F 9832   3.542   5.625   9.143  0.6780 -1.4357  0.3616
   98OSM   H14G 9833   3.676   5.517   9.114 -0.7597 -0.3435 -0.3927
   98OSM   C15F 9834   3.691   5.711   9.013 -0.1801 -0.0869 -0.7144
   98OSM   H15F 9835   3.797   5.692   8.983  0.4394  1.0413  0.6459
   98OSM   H15G 9836   3.671   5.820   9.017 -1.3628 -0.3257  1.0152
   98OSM   C16F 9837   3.614   5.670   8.889  0.5346  0.0556 -0.3744
   98OSM   H16F 9838   3.503   5.660   8.897  0.5782 -0.1379  0.0199
   98OSM   H16G 9839   3.657   5.575   8.852 -3.5204 -2.8810  1.7153
   98OSM   C17F 9840   3.631   5.778   8.785 -0.8473 -0.1982 -0.5830
   98OSM   H17F 9841   3.736   5.810   8.771 -0.6068  0.1910  1.6443
   98OSM   H17G 9842   3.585   5.871   8.825 -0.3550 -0.5349  0.8419
   98OSM   C18F 9843   3.558   5.733   8.658 -0.2001  0.1625 -0.0845
   98OSM   H18F 9844   3.601   5.635   8.630 -1.8995 -1.2364  1.8490
   98OSM   H18G 9845   3.567   5.811   8.579 -0.3919  0.0989 -0.1684
   98OSM   H18H 9846   3.452   5.721   8.691 -0.0305  0.8631  0.7811
   99OSM      N 9847   6.689   5.926  10.934  0.8165 -0.6333 -0.2619
   99OSM    C15 9848   6.672   6.077  10.965  0.0908 -0.4213 -0.1972
   99OSM   H15A 9849   6.594   6.123  10.906  0.0232  2.4644  1.9411
   99OSM   H15B 9850   6.764   6.127  10.938 -0.7967  0.5377 -1.5597
   99OSM   H15C 9851   6.659   6.099  11.070  0.1070  1.7756 -0.6092
   99OSM    C14 9852   6.805   5.881  11.006  0.0579  0.6152  0.4172
   99OSM   H14A 9853   6.890   5.946  10.989  0.0566  0.3040 -0.9463
   99OSM   H14B 9854   6.841   5.787  10.966 -0.6572  0.7532 -0.5888
   99OSM   H14C 9855   6.777   5.850  11.105 -0.3243  0.8272  0.3786
   99OSM    C13 9856   6.565   5.857  10.992 -0.1895  0.4405  1.0298
   99OSM   H13A 9857   6.555   5.885  11.095  0.6078 -0.5049  1.3743
   99OSM   H13B 9858   6.575   5.750  10.990 -1.2458  0.3228 -0.6805
   99OSM   H13C 9859   6.481   5.883  10.928  0.5148 -1.4696 -0.8047
   99OSM    C12 9860   6.712   5.893  10.790  0.1146  0.6736  0.3262
   99OSM   H12A 9861   6.796   5.954  10.760 -0.1462 -0.2436 -2.5971
   99OSM   H12B 9862   6.630   5.929  10.730 -0.8607  0.3400  1.4042
   99OSM    C11 9863   6.727   5.744  10.754 -0.4133  0.3612 -0.4927
   99OSM   H11A 9864   6.716   5.729  10.644  0.4992 -0.5045 -0.4767
   99OSM   H11B 9865   6.636   5.688  10.786  0.4124 -2.0183 -2.0776
   99OSM      P 9866   6.985   5.722  10.725 -0.4611  0.0507 -0.0164
   99OSM    O13 9867   7.038   5.852  10.775  0.2207 -0.0734  0.5834
   99OSM    O14 9868   7.080   5.608  10.747 -0.1977 -0.6141 -0.1797
   99OSM    O11 9869   6.947   5.743  10.573 -0.3555  0.1772 -0.0718
   99OSM    O12 9870   6.850   5.682  10.796 -0.1520 -0.6203 -0.2612
   99OSM    C1S 9871   7.044   5.771  10.475  0.6109 -0.3916 -0.3441
   99OSM    H1S 9872   7.133   5.706  10.491  0.3629 -0.5001  0.6502
   99OSM    H1T 9873   7.073   5.877  10.483  0.2408 -0.1341 -2.0100
   99OSM     NF 9874   7.089   5.757  10.231  0.5092 -0.5720  0.0318
   99OSM    HNF 9875   7.078   5.836  10.171  1.9934 -1.1305 -1.0227
   99OSM    C2S 9876   6.985   5.737  10.336  1.2633  0.1402  0.1940
   99OSM    H2S 9877   6.953   5.631  10.331 -0.4149  0.4802  2.2854
   99OSM    C3S 9878   6.853   5.827  10.313 -0.1048  0.2363  0.9616
   99OSM    H3S 9879   6.891   5.930  10.297 -0.3058  0.1026 -0.4546
   99OSM     O3 9880   6.762   5.856  10.425  0.0506  0.2730  0.4291
   99OSM    HO3 9881   6.809   5.814  10.497  0.0393 -1.7563 -0.6543
   99OSM    C4S 9882   6.770   5.796  10.192  0.0742  0.7667  0.4663
   99OSM    H4S 9883   6.734   5.694  10.208  1.9842 -0.0436 -0.1771
   99OSM    C5S 9884   6.730   5.864  10.086 -0.2009 -0.4048  0.4310
   99OSM    H5S 9885   6.770   5.966  10.072 -0.1101 -0.1622  2.2081
   99OSM    C6S 9886   6.637   5.808   9.982  0.6555 -0.2440 -0.0753
   99OSM    H6S 9887   6.594   5.709  10.007  0.1122 -0.2627 -1.0313
   99OSM    H6T 9888   6.704   5.785   9.896  0.5863 -0.0925 -0.1722
   99OSM    C7S 9889   6.517   5.899   9.932  0.6760 -0.1336 -0.2214
   99OSM    H7S 9890   6.557   5.990   9.884  2.3790 -0.6093  0.2335
   99OSM    H7T 9891   6.467   5.931  10.026  0.5089  1.2188 -0.7546
   99OSM    C8S 9892   6.414   5.829   9.836  0.0179 -0.4964 -0.0023
   99OSM    H8S 9893   6.315   5.870   9.867 -0.2836 -0.0132 -1.5197
   99OSM    H8T 9894   6.422   5.719   9.848  0.0119 -0.6436 -1.2309
   99OSM    C9S 9895   6.466   5.854   9.686  0.3189 -0.1409 -0.8118
   99OSM    H9S 9896   6.568   5.813   9.668  0.4271 -0.4829  0.4902
   99OSM    H9T 9897   6.476   5.960   9.655  1.6099 -0.3280 -1.1159
   99OSM   C10S 9898   6.362   5.794   9.584  0.7040 -0.2320 -0.0891
   99OSM   H10S 9899   6.280   5.863   9.552  0.8924  0.5911  1.1149
   99OSM   H10T 9900   6.314   5.703   9.625 -0.4426  0.5080  0.2635
   99OSM   C11S 9901   6.431   5.741   9.463 -0.4066  1.1257 -0.2093
   99OSM   H11S 9902   6.499   5.658   9.491 -1.1219  1.1810  1.8390
   99OSM   H11T 9903   6.494   5.821   9.417 -1.3726  1.9769 -0.0703
   99OSM   C12S 9904   6.340   5.695   9.347 -0.8785  0.1697 -0.4945
   99OSM   H12S 9905   6.256   5.637   9.391 -1.0884  0.5602 -0.3853
   99OSM   H12T 9906   6.298   5.781   9.291 -0.8865  0.6339  0.2048
   99OSM   C13S 9907   6.420   5.592   9.257 -0.3844 -0.4870  0.4435
   99OSM   H13S 9908   6.342   5.553   9.188 -1.0197  1.2658  0.1263
   99OSM   H13T 9909   6.455   5.502   9.311 -1.1547  0.3430  2.4346
   99OSM   C14S 9910   6.525   5.666   9.173  0.2692  0.0364 -0.5063
   99OSM   H14S 9911   6.622   5.676   9.227  0.0529 -0.9084  0.0814
   99OSM   H14T 9912   6.483   5.769   9.169 -3.3624 -1.3233 -1.0192
   99OSM   C15S 9913   6.555   5.605   9.032  0.9296 -0.6932 -0.3012
   99OSM   H15S 9914   6.457   5.598   8.979  0.9633  1.1654 -0.6913
   99OSM   H15T 9915   6.586   5.500   9.053  0.2731 -0.6608  0.8760
   99OSM   C16S 9916   6.655   5.690   8.944  0.2884  0.3102 -0.7992
   99OSM   H16S 9917   6.753   5.669   8.991  0.9900 -0.4423 -2.5130
   99OSM   H16T 9918   6.631   5.798   8.940  2.0694  0.6995 -2.3329
   99OSM   C17S 9919   6.666   5.635   8.796  0.6430 -0.3995 -0.3089
   99OSM   H17S 9920   6.677   5.524   8.792  0.1926 -0.4534 -0.1900
   99OSM   H17T 9921   6.757   5.673   8.745 -0.5195  0.6531 -1.6991
   99OSM   C18S 9922   6.539   5.657   8.713 -0.6797  0.1861  0.8401
   99OSM   H18S 9923   6.555   5.620   8.609 -0.0745  1.1411  0.5762
   99OSM   H18T 9924   6.510   5.764   8.711  0.8013  0.6315  1.7526
   99OSM   H18U 9925   6.454   5.594   8.748 -1.2551  0.5804  0.1947
   99OSM    C1F 9926   7.189   5.673  10.217 -0.3098  0.2838 -0.4308
   99OSM     OF 9927   7.189   5.578  10.295 -0.3434 -0.3814 -0.2087
   99OSM    C2F 9928   7.286   5.698  10.108  0.1043 -0.6287  0.6961
   99OSM    H2F 9929   7.379   5.748  10.143 -0.5541  0.5326  0.8053
   99OSM    H2G 9930   7.245   5.773  10.038  0.4364 -0.1913  0.9701
   99OSM    C3F 9931   7.321   5.571  10.031  0.2933  0.0467  0.7774
   99OSM    H3F 9932   7.391   5.595   9.948  0.5276  0.7836  1.1756
   99OSM    H3G 9933   7.368   5.495  10.097 -0.7473 -0.6694  0.7101
   99OSM    C4F 9934   7.196   5.484   9.990 -0.1195  0.5240 -0.2645
   99OSM    H4F 9935   7.157   5.424  10.075  1.4069  0.6588  0.5750
   99OSM    H4G 9936   7.245   5.408   9.925  1.3654  1.6274 -0.4846
   99OSM    C5F 9937   7.080   5.555   9.917  0.1905  0.0134 -0.6069
   99OSM    H5F 9938   7.036   5.631   9.985  0.1452  1.2238 -1.9392
   99OSM    H5G 9939   6.997   5.488   9.888  0.0730  0.3978 -1.1920
   99OSM    C6F 9940   7.133   5.630   9.792  0.3660  0.3774 -0.3394
   99OSM    H6F 9941   7.195   5.715   9.827 -0.7913  1.6203 -1.2225
   99OSM    H6G 9942   7.040   5.677   9.753 -0.5701 -0.5298  0.7052
   99OSM    C7F 9943   7.185   5.545   9.683  0.3730 -0.3401 -0.8779
   99OSM    H7F 9944   7.128   5.451   9.670  0.0490 -0.8302  3.0273
   99OSM    H7G 9945   7.285   5.506   9.710 -0.0464 -1.1980 -0.5420
   99OSM    C8F 9946   7.180   5.615   9.550  0.0152 -0.4248 -0.5537
   99OSM    H8F 9947   7.213   5.721   9.559 -1.6823  0.2017 -1.1361
   99OSM    H8G 9948   7.075   5.638   9.520  0.5444  2.8801 -0.3096
   99OSM    C9F 9949   7.246   5.538   9.436  0.0918  0.6802 -0.4045
   99OSM    H9F 9950   7.314   5.456   9.463  2.5939  2.7511 -0.0302
   99OSM   C10F 9951   7.234   5.559   9.304  0.1715 -0.3107 -0.0868
   99OSM   H10F 9952   7.288   5.491   9.236  0.4962  0.1393 -0.2787
   99OSM   C11F 9953   7.154   5.671   9.242 -0.2978 -0.0328  0.2863
   99OSM   H11F 9954   7.152   5.767   9.297  0.2468  0.5769 -0.7130
   99OSM   H11G 9955   7.053   5.628   9.226  0.2638 -1.1022 -0.5593
   99OSM   C12F 9956   7.225   5.707   9.109 -0.5520 -0.1799 -0.1046
   99OSM   H12F 9957   7.249   5.612   9.058  0.5443  0.2141 -0.3490
   99OSM   H12G 9958   7.318   5.766   9.121 -0.5077 -0.1993 -0.3516
   99OSM   C13F 9959   7.127   5.788   9.015  0.2785 -0.4576 -0.0314
   99OSM   H13F 9960   7.099   5.886   9.059  0.6693  0.1486 -1.0808
   99OSM   H13G 9961   7.032   5.733   9.001 -1.3783  1.8735  1.3815
   99OSM   C14F 9962   7.188   5.822   8.877 -0.1275 -0.3988 -0.2902
   99OSM   H14F 9963   7.297   5.801   8.872 -0.1596 -0.2902 -2.0348
   99OSM   H14G 9964   7.160   5.926   8.851 -1.3575 -0.6008  0.2059
   99OSM   C15F 9965   7.117   5.729   8.772 -0.6571  0.0711  0.2529
   99OSM   H15F 9966   7.012   5.760   8.759  0.4684  3.9677 -0.6228
   99OSM   H15G 9967   7.130   5.625   8.810 -0.5722  0.3255  0.9331
   99OSM   C16F 9968   7.182   5.720   8.631 -0.1188  0.1438  0.4284
   99OSM   H16F 9969   7.160   5.621   8.585  2.4231  0.2730 -1.2611
   99OSM   H16G 9970   7.290   5.726   8.655 -0.1750  0.8018  0.5310
   99OSM   C17F 9971   7.144   5.832   8.540 -0.2905  0.2419  0.3836
   99OSM   H17F 9972   7.132   5.925   8.599 -0.8799  0.3568  0.0867
   99OSM   H17G 9973   7.051   5.814   8.484  0.4858  0.4117 -1.0000
   99OSM   C18F 9974   7.242   5.848   8.422  0.5643 -0.0172  0.0420
   99OSM   H18F 9975   7.289   5.752   8.389 -0.7708 -0.8993  0.6350
   99OSM   H18G 9976   7.319   5.928   8.428  1.6083 -1.0363  0.7161
   99OSM   H18H 9977   7.188   5.890   8.334 -0.9666 -1.0655  0.4495
  100OSM      N 9978   3.125   0.651  10.688 -0.5149  0.6808  0.2394
  100OSM    C15 9979   3.013   0.713  10.762 -0.0951  0.1462 -0.0212
  100OSM   H15A 9980   3.011   0.820  10.748  1.5013  0.4457  1.5902
  100OSM   H15B 9981   3.029   0.692  10.867  0.7489 -1.5779 -0.4404
  100OSM   H15C 9982   2.916   0.681  10.728  0.5423 -2.1289  0.1085
  100OSM    C14 9983   3.107   0.675  10.539  0.0559 -0.1961  0.1863
  100OSM   H14A 9984   3.086   0.777  10.509 -1.5650 -0.9512 -1.4037
  100OSM   H14B 9985   3.017   0.622  10.513 -0.3555  0.1205  0.9384
  100OSM   H14C 9986   3.191   0.634  10.484  1.4403 -0.8456  2.6404
  100OSM    C13 9987   3.252   0.716  10.717 -0.0298 -0.3701  0.1559
  100OSM   H13A 9988   3.277   0.723  10.822 -0.0277 -1.0177  0.2017
  100OSM   H13B 9989   3.247   0.815  10.674 -1.7933 -0.6826 -0.4375
  100OSM   H13C 9990   3.337   0.666  10.674  1.0709 -0.6059  2.4280
  100OSM    C12 9991   3.130   0.502  10.718  0.7220 -0.4268  0.3689
  100OSM   H12A 9992   3.171   0.490  10.818  0.3948  1.1360  0.7211
  100OSM   H12B 9993   3.200   0.442  10.663  1.0099 -0.9747  1.3077
  100OSM    C11 9994   2.996   0.418  10.724 -0.2351  0.5583  0.6185
  100OSM   H11A 9995   2.939   0.453  10.813 -0.1015  0.5280  0.7157
  100OSM   H11B 9996   3.010   0.309  10.741 -2.3186  0.4124  1.7780
  100OSM      P 9997   2.777   0.479  10.588  0.1491 -0.3198 -0.2557
  100OSM    O13 9998   2.697   0.400  10.683 -0.5835 -0.2768 -0.5057
  100OSM    O14 9999   2.767   0.624  10.614  0.3109 -0.2358  0.4579
  100OSM    O1110000   2.727   0.445  10.443 -0.3109  0.0559  0.0548
  100OSM    O1210001   2.929   0.440  10.596 -0.3354  0.5407 -0.1485
  100OSM    C1S10002   2.720   0.307  10.413  0.1551  0.0417  0.6964
  100OSM    H1S10003   2.631   0.261  10.461 -1.0278 -0.4664 -1.8008
  100OSM    H1T10004   2.812   0.247  10.427  0.7146  0.9027  0.8208
  100OSM     NF10005   2.670   0.139  10.240  0.0996 -0.0547 -0.2697
  100OSM    HNF10006   2.749   0.079  10.233 -1.1995 -2.4941  3.2151
  100OSM    C2S10007   2.689   0.281  10.262  0.5312 -0.2892  0.3437
  100OSM    H2S10008   2.595   0.331  10.229  0.9521 -0.4417 -1.1563
  100OSM    C3S10009   2.799   0.344  10.172  0.4746  0.3917 -0.4621
  100OSM    H3S10010   2.900   0.301  10.186  0.2483 -0.5411 -1.5446
  100OSM     O310011   2.804   0.486  10.185  0.2057 -0.4365  0.5814
  100OSM    HO310012   2.763   0.505  10.269 -1.8263 -0.3454 -0.3763
  100OSM    C4S10013   2.776   0.318  10.028  0.6259  0.4396  0.6184
  100OSM    H4S10014   2.688   0.367   9.984 -0.3542 -3.0581 -1.7991
  100OSM    C5S10015   2.849   0.238   9.953 -0.3326  0.2969 -0.5322
  100OSM    H5S10016   2.946   0.205   9.993 -0.6869 -1.8149 -1.2897
  100OSM    C6S10017   2.835   0.221   9.806 -0.1752  0.0146  0.0967
  100OSM    H6S10018   2.827   0.115   9.774  0.6300  0.0093 -0.1178
  100OSM    H6T10019   2.937   0.246   9.768 -1.3415  2.6085 -1.6021
  100OSM    C7S10020   2.730   0.315   9.742  0.0101  0.4225  0.4296
  100OSM    H7S10021   2.760   0.422   9.754  0.8642  0.3392 -0.7786
  100OSM    H7T10022   2.627   0.291   9.776  0.1989 -0.4934  0.3575
  100OSM    C8S10023   2.725   0.290   9.589  0.2063  0.2903  0.8730
  100OSM    H8S10024   2.638   0.328   9.533  1.1589  0.0859 -0.8070
  100OSM    H8T10025   2.709   0.182   9.567  0.3230  0.2153  1.1407
  100OSM    C9S10026   2.843   0.347   9.510  1.2166  0.0671  0.4493
  100OSM    H9S10027   2.910   0.261   9.491 -2.3499 -3.4198  2.0138
  100OSM    H9T10028   2.893   0.428   9.568  0.4639 -0.5218  1.9773
  100OSM   C10S10029   2.805   0.403   9.372  0.2509  0.1371 -0.5365
  100OSM   H10S10030   2.757   0.320   9.316  0.1559 -0.2145  0.0566
  100OSM   H10T10031   2.904   0.437   9.335  0.4893  1.8262  1.5079
  100OSM   C11S10032   2.713   0.524   9.377 -0.4018 -0.0223  1.0439
  100OSM   H11S10033   2.634   0.512   9.454 -0.8201  0.6844  0.7310
  100OSM   H11T10034   2.660   0.545   9.282  0.0443 -1.4693  0.4442
  100OSM   C12S10035   2.794   0.656   9.408 -0.2816 -0.1114 -0.6636
  100OSM   H12S10036   2.889   0.657   9.350 -0.3259 -0.7438 -0.7483
  100OSM   H12T10037   2.805   0.654   9.518 -1.0462 -0.1606 -0.5800
  100OSM   C13S10038   2.729   0.785   9.375 -0.0937  0.3243 -0.3864
  100OSM   H13S10039   2.791   0.862   9.426 -0.2312 -0.3170  0.7884
  100OSM   H13T10040   2.632   0.789   9.429  0.9883  1.3675  1.6159
  100OSM   C14S10041   2.701   0.811   9.225 -0.3302  0.0303 -0.6561
  100OSM   H14S10042   2.663   0.915   9.215  0.2570  0.3189 -0.0233
  100OSM   H14T10043   2.617   0.745   9.194  0.3772 -0.6150 -1.2478
  100OSM   C15S10044   2.823   0.804   9.135  0.3744  0.5860  0.0724
  100OSM   H15S10045   2.852   0.697   9.133 -1.0722  0.1591 -1.7253
  100OSM   H15T10046   2.909   0.864   9.171  1.6853 -0.6174 -0.9257
  100OSM   C16S10047   2.785   0.843   8.997 -0.3460  0.1912 -0.1684
  100OSM   H16S10048   2.691   0.795   8.960 -0.2683  0.0036 -0.1263
  100OSM   H16T10049   2.871   0.807   8.936  0.2251 -1.0782  1.3293
  100OSM   C17S10050   2.768   0.999   8.973  0.5619  0.4020 -0.5302
  100OSM   H17S10051   2.850   1.053   9.025 -3.4086  3.2763  3.5263
  100OSM   H17T10052   2.671   1.023   9.022  0.1169  0.0827 -1.2413
  100OSM   C18S10053   2.771   1.030   8.827 -0.7163 -0.3414  0.2040
  100OSM   H18S10054   2.749   1.138   8.820 -1.0522 -0.4252 -0.0735
  100OSM   H18T10055   2.684   0.981   8.779 -1.2772  0.6443  0.1940
  100OSM   H18U10056   2.868   0.999   8.781 -1.7721  0.4217 -2.7893
  100OSM    C1F10057   2.564   0.075  10.284  0.4201 -0.3448  0.2457
  100OSM     OF10058   2.472   0.132  10.347 -0.9454  0.2212 -0.3555
  100OSM    C2F10059   2.562  -0.068  10.245 -0.0241  0.0652  0.2624
  100OSM    H2F10060   2.639  -0.127  10.301 -0.5534 -0.6388  0.2669
  100OSM    H2G10061   2.581  -0.078  10.136  1.1427 -4.2874  0.6443
  100OSM    C3F10062   2.425  -0.137  10.257  0.4928 -0.2182  0.1196
  100OSM    H3F10063   2.385  -0.134  10.361 -1.5767  0.1103 -0.6441
  100OSM    H3G10064   2.448  -0.243  10.231  0.2974  0.2855 -2.3013
  100OSM    C4F10065   2.330  -0.078  10.155 -0.0309  0.5954  0.2266
  100OSM    H4F10066   2.383  -0.095  10.058 -0.4506 -0.9959  0.2537
  100OSM    H4G10067   2.313   0.032  10.164 -2.9030  0.1851  0.7919
  100OSM    C5F10068   2.201  -0.151  10.154  1.4281 -0.3493  0.3908
  100OSM    H5F10069   2.154  -0.148  10.254  1.5306  0.0748  0.4280
  100OSM    H5G10070   2.215  -0.257  10.124  0.9216 -0.3835  0.2772
  100OSM    C6F10071   2.096  -0.092  10.051  0.0817 -0.3680 -0.1489
  100OSM    H6F10072   2.074   0.016  10.063  0.5986 -0.2677 -0.0822
  100OSM    H6G10073   2.002  -0.147  10.070 -0.6202 -0.3060 -3.0261
  100OSM    C7F10074   2.134  -0.108   9.904  0.0997 -0.3815 -0.4096
  100OSM    H7F10075   2.156  -0.217   9.894  0.6384 -0.3593  0.4893
  100OSM    H7G10076   2.226  -0.052   9.879 -0.9490  1.1810 -0.9465
  100OSM    C8F10077   2.034  -0.055   9.804 -0.0537  0.1601 -0.1654
  100OSM    H8F10078   2.086  -0.040   9.707 -0.2202 -2.7725 -0.8120
  100OSM    H8G10079   2.004   0.044   9.846  1.3077  1.4263 -2.0275
  100OSM    C9F10080   1.911  -0.136   9.794  0.5432 -0.3234  0.5881
  100OSM    H9F10081   1.839  -0.130   9.878 -0.5178 -0.9898 -0.2389
  100OSM   C10F10082   1.868  -0.202   9.679 -0.4991  0.1868 -1.0287
  100OSM   H10F10083   1.775  -0.261   9.682  0.2435 -0.9700 -0.0698
  100OSM   C11F10084   1.956  -0.230   9.565  0.4983  0.3328 -1.0657
  100OSM   H11F10085   1.976  -0.338   9.547  0.4998  0.3211 -0.9964
  100OSM   H11G10086   2.057  -0.183   9.578  0.2015  0.8541 -0.5782
  100OSM   C12F10087   1.897  -0.178   9.430  0.0258  0.1994  0.0816
  100OSM   H12F10088   1.787  -0.189   9.424  0.2766 -1.9400 -3.0909
  100OSM   H12G10089   1.941  -0.249   9.357 -0.9633 -0.8410  0.4706
  100OSM   C13F10090   1.960  -0.041   9.404 -0.0443  0.1038 -0.0154
  100OSM   H13F10091   2.069  -0.048   9.422  0.5942 -1.1933 -3.4966
  100OSM   H13G10092   1.923   0.034   9.477 -0.6409  1.7026 -1.8720
  100OSM   C14F10093   1.941   0.014   9.261 -0.0559 -0.2225  0.9528
  100OSM   H14F10094   1.961   0.123   9.272 -1.7074  0.0912  1.1548
  100OSM   H14G10095   1.836   0.004   9.225  0.3622 -1.8645  0.0693
  100OSM   C15F10096   2.039  -0.053   9.166  0.0906 -0.2247  0.4406
  100OSM   H15F10097   2.029  -0.164   9.166 -0.3218 -0.2055 -0.7594
  100OSM   H15G10098   2.145  -0.047   9.197 -0.2424  0.6242  1.4672
  100OSM   C16F10099   2.017  -0.016   9.018  0.0716 -0.3519  0.1829
  100OSM   H16F10100   2.054   0.088   9.000  0.7938 -0.6814 -0.2675
  100OSM   H16G10101   1.909  -0.012   8.994 -0.5351 -2.1988  2.2538
  100OSM   C17F10102   2.097  -0.098   8.923 -0.3150 -0.0818  0.2041
  100OSM   H17F10103   2.068  -0.205   8.932  2.3415 -1.2013 -2.4678
  100OSM   H17G10104   2.204  -0.100   8.953 -0.4335 -1.2951  0.6156
  100OSM   C18F10105   2.080  -0.064   8.775 -0.5068  0.2984 -0.1837
  100OSM   H18F10106   1.975  -0.077   8.740 -1.0218  1.2882  0.9435
  100OSM   H18G10107   2.146  -0.134   8.718  0.6003  1.8122 -0.8288
  100OSM   H18H10108   2.127   0.033   8.750  1.6499 -0.5771  0.2436
  101OSM      N10109   5.170   2.273  10.941  0.0069 -0.0306 -0.1891
  101OSM    C1510110   5.118   2.141  10.980 -0.4380 -0.1629 -0.1115
  101OSM   H15A10111   5.013   2.129  10.959 -1.0311  1.9429  1.3587
  101OSM   H15B10112   5.139   2.112  11.082  1.0328  0.1678 -0.2947
  101OSM   H15C10113   5.175   2.075  10.916 -1.2020 -0.2394 -0.7225
  101OSM    C1410114   5.113   2.386  11.027 -0.5447  0.4122  0.0925
  101OSM   H14A10115   5.035   2.437  10.973  0.6422  2.5410  0.2787
  101OSM   H14B10116   5.190   2.458  11.048  0.4233 -0.4958 -0.2362
  101OSM   H14C10117   5.085   2.353  11.126  0.9125 -0.8539  0.1287
  101OSM    C1310118   5.314   2.282  10.973 -0.2939  0.2636 -0.6963
  101OSM   H13A10119   5.367   2.376  10.960  1.8060 -0.4706  1.6918
  101OSM   H13B10120   5.369   2.209  10.915 -1.7439 -1.6746  0.2843
  101OSM   H13C10121   5.333   2.265  11.078  2.0417  1.9516 -0.7496
  101OSM    C1210122   5.142   2.306  10.798 -0.1388  0.4015  0.3803
  101OSM   H12A10123   5.162   2.410  10.774  1.6482  0.2565  1.0811
  101OSM   H12B10124   5.037   2.297  10.777 -0.5289  1.4575  1.7407
  101OSM    C1110125   5.200   2.212  10.687 -0.6755 -0.5156 -0.1457
  101OSM   H11A10126   5.160   2.231  10.585 -1.9844 -1.0492  0.2401
  101OSM   H11B10127   5.159   2.111  10.706 -0.8898  0.1519  4.1102
  101OSM      P10128   5.424   2.312  10.634 -0.3782 -0.1469 -0.0778
  101OSM    O1310129   5.367   2.440  10.649  0.1942  0.4916  0.0457
  101OSM    O1410130   5.563   2.287  10.679  0.0029 -0.8238  0.4019
  101OSM    O1110131   5.434   2.281  10.475 -0.7474  0.5788 -0.4550
  101OSM    O1210132   5.337   2.198  10.698  0.1653  0.0124  0.3260
  101OSM    C1S10133   5.396   2.163  10.417 -0.1213  0.0586  0.1914
  101OSM    H1S10134   5.335   2.104  10.489 -0.1736  1.9390  1.7447
  101OSM    H1T10135   5.488   2.101  10.411 -0.4960 -0.4079 -1.2672
  101OSM     NF10136   5.266   2.049  10.230 -0.3471  0.3444 -0.8474
  101OSM    HNF10137   5.309   1.991  10.161 -0.1275  0.1892 -0.5812
  101OSM    C2S10138   5.330   2.178  10.274  0.2275 -1.1192  0.0802
  101OSM    H2S10139   5.250   2.252  10.293  0.2245 -1.8649  3.6104
  101OSM    C3S10140   5.430   2.233  10.170 -0.1487 -0.0186  0.7759
  101OSM    H3S10141   5.522   2.170  10.166  0.5826  1.0591 -0.1778
  101OSM     O310142   5.493   2.352  10.208  0.5757 -0.6152 -0.0785
  101OSM    HO310143   5.498   2.347  10.304  2.5910  0.0346 -0.1118
  101OSM    C4S10144   5.372   2.251  10.032  0.4590  0.0010  0.4788
  101OSM    H4S10145   5.321   2.349  10.028  0.7456  0.1095 -1.1044
  101OSM    C5S10146   5.400   2.178   9.919 -0.8430 -0.0054 -0.0221
  101OSM    H5S10147   5.475   2.100   9.937 -0.5719  0.1987 -0.2583
  101OSM    C6S10148   5.371   2.205   9.779 -0.1591  0.0547  0.2238
  101OSM    H6S10149   5.410   2.127   9.711 -0.5540  0.6977 -0.7746
  101OSM    H6T10150   5.410   2.301   9.738 -2.7483  1.7214  1.3503
  101OSM    C7S10151   5.220   2.210   9.757  0.0516  0.4001  0.7508
  101OSM    H7S10152   5.183   2.304   9.803  0.9295  2.0570 -1.7105
  101OSM    H7T10153   5.172   2.132   9.819  1.2684  0.5491  1.9114
  101OSM    C8S10154   5.177   2.180   9.610 -0.2329  0.0743 -0.2047
  101OSM    H8S10155   5.067   2.172   9.623 -0.3184 -0.5562 -1.1493
  101OSM    H8T10156   5.229   2.090   9.569  0.5578  0.5118 -0.1907
  101OSM    C9S10157   5.204   2.293   9.513 -0.3917  0.0374 -0.6974
  101OSM    H9S10158   5.314   2.309   9.522 -0.5091  0.1559  0.9603
  101OSM    H9T10159   5.163   2.384   9.562  0.4509  0.8738 -1.5197
  101OSM   C10S10160   5.168   2.263   9.363  0.0049 -0.5552 -0.2216
  101OSM   H10S10161   5.167   2.364   9.317  1.7642  0.3829  1.6636
  101OSM   H10T10162   5.066   2.222   9.347 -0.6414  1.1357 -0.7337
  101OSM   C11S10163   5.255   2.159   9.298 -0.3789  0.0756  0.6174
  101OSM   H11S10164   5.221   2.059   9.332  1.1349 -0.3204  1.0395
  101OSM   H11T10165   5.359   2.169   9.336 -0.2321 -0.8597  0.4824
  101OSM   C12S10166   5.251   2.165   9.143  0.1636  0.0294 -0.2356
  101OSM   H12S10167   5.292   2.258   9.097  1.0199 -0.2252 -0.0143
  101OSM   H12T10168   5.146   2.144   9.114 -0.2236 -0.6168  1.5170
  101OSM   C13S10169   5.337   2.046   9.092  0.0112  0.6479  0.7934
  101OSM   H13S10170   5.310   1.950   9.141  0.6131 -0.2979 -0.6553
  101OSM   H13T10171   5.446   2.063   9.104  0.1291  0.0817  0.5447
  101OSM   C14S10172   5.302   2.020   8.941  0.2207  0.6147 -0.1156
  101OSM   H14S10173   5.353   2.104   8.888 -1.4681  1.5429 -0.3243
  101OSM   H14T10174   5.193   2.018   8.923 -0.3929 -1.6233  2.9224
  101OSM   C15S10175   5.349   1.886   8.877  0.1834 -0.0489 -0.5789
  101OSM   H15S10176   5.267   1.820   8.912  0.0524  1.1173  1.4466
  101OSM   H15T10177   5.449   1.854   8.913  0.0075 -0.5215 -0.5062
  101OSM   C16S10178   5.368   1.888   8.728  0.6151  0.1648  0.4016
  101OSM   H16S10179   5.423   1.981   8.704 -1.8479  1.3067 -1.3117
  101OSM   H16T10180   5.265   1.884   8.686 -0.3880 -1.0381  2.7835
  101OSM   C17S10181   5.443   1.773   8.664 -0.0871  0.4845 -0.2872
  101OSM   H17S10182   5.539   1.758   8.718 -0.0263 -1.9305 -0.9512
  101OSM   H17T10183   5.459   1.795   8.556  0.3965 -1.0006 -0.5384
  101OSM   C18S10184   5.382   1.632   8.668  0.6842 -0.3979  0.1782
  101OSM   H18S10185   5.395   1.584   8.767  0.4711  0.0102  0.4048
  101OSM   H18T10186   5.441   1.557   8.611  1.2647 -0.9909  1.5276
  101OSM   H18U10187   5.277   1.626   8.631  0.3707  2.4705  0.3938
  101OSM    C1F10188   5.150   2.026  10.285 -0.3456  0.8575 -0.5741
  101OSM     OF10189   5.108   2.084  10.382  0.0048 -0.5294  0.4280
  101OSM    C2F10190   5.073   1.911  10.220  0.1049 -0.5320 -1.1102
  101OSM    H2F10191   5.071   1.825  10.290  1.7580  0.1370 -0.1937
  101OSM    H2G10192   5.119   1.875  10.126 -0.1145 -3.4719 -0.1828
  101OSM    C3F10193   4.924   1.954  10.185 -0.7651 -0.4419 -0.1581
  101OSM    H3F10194   4.931   2.057  10.145  2.9655  0.6154  2.7348
  101OSM    H3G10195   4.864   1.964  10.277 -0.0473 -0.5608  0.3333
  101OSM    C4F10196   4.855   1.868  10.082  0.2155  0.1283  0.8108
  101OSM    H4F10197   4.824   1.767  10.116  2.1181 -0.9565 -0.4363
  101OSM    H4G10198   4.941   1.852  10.013  0.1781  0.1991  0.7483
  101OSM    C5F10199   4.739   1.938  10.009 -0.4785  0.0136  0.7474
  101OSM    H5F10200   4.776   2.036   9.972  1.1957 -0.9039 -0.1312
  101OSM    H5G10201   4.655   1.953  10.080 -0.8846 -0.5121  0.3943
  101OSM    C6F10202   4.689   1.852   9.894 -0.5413  0.0736 -0.1009
  101OSM    H6F10203   4.658   1.749   9.922 -0.5763 -0.1283 -0.8552
  101OSM    H6G10204   4.592   1.900   9.868 -0.0982  0.5919 -0.8493
  101OSM    C7F10205   4.777   1.843   9.768  0.5704 -0.1928 -0.2585
  101OSM    H7F10206   4.716   1.781   9.698 -1.0913 -0.5918  1.4461
  101OSM    H7G10207   4.875   1.792   9.781  0.2019 -0.6965  0.7136
  101OSM    C8F10208   4.786   1.983   9.697 -0.2669 -0.2612 -0.3616
  101OSM    H8F10209   4.840   2.045   9.771 -0.0720  0.0248 -0.7363
  101OSM    H8G10210   4.682   2.022   9.687 -0.0872 -0.1957 -2.4359
  101OSM    C9F10211   4.871   1.987   9.567  0.4259  0.5953  0.2961
  101OSM    H9F10212   4.976   1.953   9.571 -0.1373 -1.2167  0.7313
  101OSM   C10F10213   4.827   2.043   9.451 -0.0435 -0.0703 -0.2763
  101OSM   H10F10214   4.893   2.038   9.363 -1.0014 -0.5135 -0.9979
  101OSM   C11F10215   4.710   2.137   9.421 -0.7614  0.8542  0.1813
  101OSM   H11F10216   4.682   2.180   9.519 -0.0685 -1.9271  1.7303
  101OSM   H11G10217   4.629   2.071   9.383 -1.5652 -0.5765  3.8927
  101OSM   C12F10218   4.744   2.249   9.322  0.7385 -0.1819 -0.4262
  101OSM   H12F10219   4.822   2.322   9.354 -0.9190  1.4917 -0.0139
  101OSM   H12G10220   4.653   2.311   9.311  0.7313  0.2329  1.5290
  101OSM   C13F10221   4.779   2.190   9.183  0.0563 -0.6049 -0.1294
  101OSM   H13F10222   4.702   2.114   9.157 -0.3421 -0.8875  1.7878
  101OSM   H13G10223   4.875   2.135   9.182 -0.4706 -1.5462 -0.4540
  101OSM   C14F10224   4.801   2.298   9.082  0.2916 -0.2387 -0.1980
  101OSM   H14F10225   4.876   2.367   9.124 -0.9003  0.1769  1.3728
  101OSM   H14G10226   4.711   2.354   9.048  1.1798  0.0343 -2.2613
  101OSM   C15F10227   4.858   2.237   8.948 -0.4432  0.7293  0.4999
  101OSM   H15F10228   4.804   2.145   8.917 -0.6142  1.2975 -0.9601
  101OSM   H15G10229   4.964   2.209   8.967 -0.0864  1.2981 -0.5643
  101OSM   C16F10230   4.850   2.336   8.837 -0.6588  0.3938 -0.2313
  101OSM   H16F10231   4.844   2.439   8.877 -1.2130 -0.7087  2.8013
  101OSM   H16G10232   4.749   2.314   8.795 -0.3886 -0.8870 -0.2426
  101OSM   C17F10233   4.956   2.326   8.722  0.0900  0.6743 -0.1711
  101OSM   H17F10234   5.060   2.308   8.755 -0.2608  0.7709  1.0270
  101OSM   H17G10235   4.966   2.429   8.681  3.5122  1.3913  2.0583
  101OSM   C18F10236   4.919   2.213   8.630  0.2525  0.2206  0.6333
  101OSM   H18F10237   4.960   2.219   8.527  0.4751 -0.1419  0.6965
  101OSM   H18G10238   4.809   2.214   8.616  0.4378  0.7603 -0.9752
  101OSM   H18H10239   4.928   2.115   8.682 -1.9186  0.0607  0.7897
  102OSM      N10240   1.374   2.948  11.029 -0.3488  0.1693 -0.2751
  102OSM    C1510241   1.338   2.951  11.179 -0.7204  0.5168  0.6942
  102OSM   H15A10242   1.266   3.026  11.206 -1.0724  0.2583  0.4760
  102OSM   H15B10243   1.425   2.980  11.237 -1.0241  3.9515 -0.3687
  102OSM   H15C10244   1.303   2.852  11.205 -0.7649  0.2571 -0.3062
  102OSM    C1410245   1.476   2.847  11.003 -0.6567 -0.1279 -0.2265
  102OSM   H14A10246   1.563   2.851  11.068 -0.8061  0.5169 -0.0541
  102OSM   H14B10247   1.513   2.863  10.903 -0.3688  0.1523 -0.0792
  102OSM   H14C10248   1.442   2.745  11.006 -0.6122 -0.2004 -1.6755
  102OSM    C1310249   1.245   2.923  10.967 -0.3111  0.7917  0.7444
  102OSM   H13A10250   1.168   2.991  11.001 -2.4387 -1.8645  1.6364
  102OSM   H13B10251   1.218   2.821  10.987 -0.5099  1.0107  1.6110
  102OSM   H13C10252   1.251   2.941  10.860  1.6232 -2.5087  0.1749
  102OSM    C1210253   1.429   3.086  11.001 -0.1950 -0.2360 -0.9073
  102OSM   H12A10254   1.503   3.102  11.078 -1.6407  0.9953  0.2913
  102OSM   H12B10255   1.348   3.157  11.014  1.6032  1.4961  1.8441
  102OSM    C1110256   1.486   3.104  10.865 -0.0766 -0.0123  0.1308
  102OSM   H11A10257   1.572   3.044  10.829  1.5700  1.6621  1.1034
  102OSM   H11B10258   1.515   3.211  10.864  0.5057 -0.0971  2.5951
  102OSM      P10259   1.290   3.209  10.713 -0.3105 -0.0035  0.0442
  102OSM    O1310260   1.177   3.155  10.637 -0.0212  0.2225 -0.2398
  102OSM    O1410261   1.258   3.302  10.827  0.3464 -0.0109  0.1808
  102OSM    O1110262   1.384   3.285  10.601 -0.1014 -0.3311 -0.4718
  102OSM    O1210263   1.381   3.089  10.767 -0.5416 -0.0503 -0.0980
  102OSM    C1S10264   1.428   3.214  10.486  0.0927 -0.2107 -0.1964
  102OSM    H1S10265   1.345   3.150  10.450  0.0306 -0.4441  0.3451
  102OSM    H1T10266   1.522   3.156  10.499 -0.2155 -0.9899 -1.3063
  102OSM     NF10267   1.502   3.224  10.246 -0.0979 -0.5407 -0.3340
  102OSM    HNF10268   1.591   3.189  10.218  0.2975  0.4603 -0.3511
  102OSM    C2S10269   1.468   3.307  10.365  0.2951 -0.0880  0.4798
  102OSM    H2S10270   1.375   3.365  10.345 -0.0232  0.2817  2.6824
  102OSM    C3S10271   1.585   3.398  10.405  0.6497  1.0734  0.2071
  102OSM    H3S10272   1.681   3.343  10.414  0.6724  1.2847  1.3599
  102OSM     O310273   1.565   3.470  10.529  0.6372 -0.1310 -0.4894
  102OSM    HO310274   1.501   3.408  10.566  1.0314 -1.1722 -1.5007
  102OSM    C4S10275   1.603   3.488  10.289  0.3318  0.1758 -0.7254
  102OSM    H4S10276   1.659   3.435  10.211 -0.3087 -0.0761 -1.0200
  102OSM    C5S10277   1.552   3.611  10.272 -0.1129 -0.7490  0.0130
  102OSM    H5S10278   1.507   3.650  10.364 -0.6330 -0.5644 -0.3140
  102OSM    C6S10279   1.572   3.704  10.150  0.1347 -0.1238 -0.0326
  102OSM    H6S10280   1.633   3.792  10.179 -0.7419 -0.0906  1.8518
  102OSM    H6T10281   1.474   3.740  10.114  0.0003  0.2649  0.6973
  102OSM    C7S10282   1.647   3.630  10.036 -0.1796 -0.0394  0.1457
  102OSM    H7S10283   1.593   3.540   9.999 -2.0103  0.7891  0.7449
  102OSM    H7T10284   1.740   3.590  10.084 -1.1590 -0.7961  1.4863
  102OSM    C8S10285   1.696   3.721   9.927 -0.2023  0.3476 -0.0326
  102OSM    H8S10286   1.753   3.814   9.946  2.1697 -0.5452 -2.1873
  102OSM    H8T10287   1.607   3.767   9.879  0.9644  1.5893 -1.0697
  102OSM    C9S10288   1.770   3.649   9.815 -0.2823  0.7324 -0.0234
  102OSM    H9S10289   1.697   3.578   9.768 -0.8810  0.5994  1.0756
  102OSM    H9T10290   1.855   3.587   9.851 -1.6695 -0.1905  1.8201
  102OSM   C10S10291   1.821   3.751   9.714  1.1469  0.2100 -0.0480
  102OSM   H10S10292   1.904   3.812   9.755  2.8042 -0.5975 -2.0200
  102OSM   H10T10293   1.734   3.818   9.697  1.4914 -0.3074 -5.6639
  102OSM   C11S10294   1.855   3.679   9.580 -0.2683  0.1571 -0.7570
  102OSM   H11S10295   1.862   3.752   9.496 -1.0324  0.9622 -0.1432
  102OSM   H11T10296   1.772   3.608   9.563  1.1666 -1.2055 -2.5486
  102OSM   C12S10297   1.989   3.601   9.580  0.3220 -0.8271  0.9559
  102OSM   H12S10298   1.983   3.526   9.661  0.0412 -2.3816 -0.4512
  102OSM   H12T10299   2.077   3.662   9.610  0.8233 -1.2673  0.3985
  102OSM   C13S10300   2.004   3.528   9.445  0.0231  0.6145  0.4072
  102OSM   H13S10301   1.903   3.486   9.423  1.0471 -0.5494 -2.6274
  102OSM   H13T10302   2.077   3.447   9.463  1.5163  1.6031 -0.9485
  102OSM   C14S10303   2.041   3.611   9.322  0.1702  0.3622 -0.0289
  102OSM   H14S10304   2.141   3.654   9.342  0.0725  0.2523  0.7296
  102OSM   H14T10305   1.971   3.696   9.306 -0.0785  0.2274  0.3263
  102OSM   C15S10306   2.048   3.520   9.202  0.3312  0.7961 -0.0365
  102OSM   H15S10307   1.946   3.477   9.191  0.5011  0.6348 -1.1314
  102OSM   H15T10308   2.096   3.423   9.227 -1.8792 -0.6934 -1.2309
  102OSM   C16S10309   2.101   3.590   9.079  0.1805  0.3253 -0.4329
  102OSM   H16S10310   2.206   3.624   9.094 -0.1516  1.8900 -1.4690
  102OSM   H16T10311   2.049   3.687   9.064  0.8522  1.0758  1.6780
  102OSM   C17S10312   2.100   3.493   8.959  0.0290  0.1333 -1.1813
  102OSM   H17S10313   1.994   3.462   8.943 -0.9567  1.1734  2.4720
  102OSM   H17T10314   2.161   3.402   8.978 -2.9116 -1.3061  2.5943
  102OSM   C18S10315   2.148   3.561   8.836  0.3437 -0.1994 -0.0043
  102OSM   H18S10316   2.080   3.645   8.809  0.2277 -0.6088 -1.0246
  102OSM   H18T10317   2.139   3.503   8.742 -0.7653  0.1825 -0.1450
  102OSM   H18U10318   2.254   3.593   8.844  0.2381 -0.2517  2.4672
  102OSM    C1F10319   1.404   3.155  10.181 -0.6244 -0.0701 -0.2448
  102OSM     OF10320   1.294   3.159  10.215  0.1001  0.8742  0.0762
  102OSM    C2F10321   1.434   3.087  10.056 -1.2021  0.5225 -0.0149
  102OSM    H2F10322   1.455   2.981  10.085  0.9835  0.8767 -0.1350
  102OSM    H2G10323   1.527   3.125  10.011 -0.6309 -1.7333 -0.8839
  102OSM    C3F10324   1.312   3.080   9.953  0.1503 -0.1637 -0.2447
  102OSM    H3F10325   1.281   3.180   9.915 -1.7168 -0.8610 -0.6811
  102OSM    H3G10326   1.216   3.063  10.006  0.5771  0.4686  0.7520
  102OSM    C4F10327   1.337   2.969   9.845  0.5985 -0.8854 -0.2366
  102OSM    H4F10328   1.239   2.946   9.799  0.5216 -1.7668  0.3487
  102OSM    H4G10329   1.388   2.881   9.890  0.2606 -0.2894  1.3883
  102OSM    C5F10330   1.429   3.025   9.729 -0.4376  0.7621  0.5392
  102OSM    H5F10331   1.532   3.012   9.766  0.7095  1.3974 -2.2072
  102OSM    H5G10332   1.408   3.134   9.719  1.7361  1.0302 -1.9041
  102OSM    C6F10333   1.412   2.951   9.595 -0.1220  0.1302 -0.2712
  102OSM    H6F10334   1.303   2.938   9.578  0.0301 -0.8760 -0.5496
  102OSM    H6G10335   1.455   2.848   9.600 -2.2774 -0.8208 -0.4027
  102OSM    C7F10336   1.477   3.031   9.482 -0.4133  0.3493  0.7209
  102OSM    H7F10337   1.587   3.049   9.488  0.3916 -2.3166 -2.7537
  102OSM    H7G10338   1.441   3.134   9.506  1.5896  1.9051 -2.2553
  102OSM    C8F10339   1.429   2.995   9.336  0.2925  0.4221 -0.5933
  102OSM    H8F10340   1.427   3.090   9.278  1.7935  1.2268  0.6158
  102OSM    H8G10341   1.323   2.968   9.354  0.9293 -0.0756  3.3888
  102OSM    C9F10342   1.509   2.883   9.279 -0.9728  0.5201  0.1551
  102OSM    H9F10343   1.528   2.800   9.348  1.8381 -0.8007 -1.9793
  102OSM   C10F10344   1.561   2.884   9.151 -0.1103  0.6794 -0.4917
  102OSM   H10F10345   1.590   2.790   9.102 -1.6716  0.4657 -1.0752
  102OSM   C11F10346   1.550   2.989   9.039  0.1668 -0.7323  0.2126
  102OSM   H11F10347   1.652   3.019   9.006 -0.4263  0.5903 -0.4853
  102OSM   H11G10348   1.490   3.072   9.082 -2.0177 -2.6074  0.9543
  102OSM   C12F10349   1.481   2.928   8.918  0.4928  0.3354 -0.0120
  102OSM   H12F10350   1.371   2.932   8.935  0.6587 -0.7534  1.4759
  102OSM   H12G10351   1.517   2.824   8.901  4.6066  1.9343 -2.6261
  102OSM   C13F10352   1.520   3.005   8.792 -0.4897 -0.7036 -0.1554
  102OSM   H13F10353   1.626   2.990   8.762 -0.2869 -0.5906  0.4954
  102OSM   H13G10354   1.511   3.112   8.817  0.8862 -1.0531  2.1805
  102OSM   C14F10355   1.439   2.972   8.663 -0.6678  0.4620 -0.1238
  102OSM   H14F10356   1.331   2.995   8.674 -0.9616 -0.3710 -1.0838
  102OSM   H14G10357   1.439   2.861   8.658  1.9450  0.3268  1.1502
  102OSM   C15F10358   1.479   3.037   8.527  0.9315 -0.0475  0.5016
  102OSM   H15F10359   1.590   3.044   8.521  0.9260 -0.7722 -0.7127
  102OSM   H15G10360   1.452   3.144   8.530 -0.5585 -0.4121  0.7623
  102OSM   C16F10361   1.413   2.975   8.399 -0.1258  0.0849 -0.6004
  102OSM   H16F10362   1.307   2.961   8.429  1.1858 -1.5154  4.2234
  102OSM   H16G10363   1.448   2.872   8.379 -2.1051 -0.7320 -0.0855
  102OSM   C17F10364   1.410   3.068   8.282  0.1601  0.0236  0.0745
  102OSM   H17F10365   1.512   3.107   8.262 -0.5970  1.9148 -0.3280
  102OSM   H17G10366   1.347   3.152   8.321  1.5462  0.0142  2.5118
  102OSM   C18F10367   1.345   3.006   8.160 -0.7510  0.2517 -0.4419
  102OSM   H18F10368   1.250   2.953   8.179 -1.2398  1.4482  0.5826
  102OSM   H18G10369   1.421   2.944   8.107 -1.9232  1.1281 -3.3934
  102OSM   H18H10370   1.323   3.085   8.084 -2.9434  0.6182  0.4980
  103OSM      N10371   6.400   6.768  11.082  0.6582  0.2033 -0.4918
  103OSM    C1510372   6.287   6.833  11.159  0.3386  0.2802 -0.7614
  103OSM   H15A10373   6.272   6.940  11.148 -1.4740  0.4582  2.2922
  103OSM   H15B10374   6.297   6.818  11.265 -2.2189  1.7341 -0.2381
  103OSM   H15C10375   6.193   6.791  11.126 -0.3953  0.0399  1.4479
  103OSM    C1410376   6.516   6.863  11.111 -0.1200 -0.1730  0.4613
  103OSM   H14A10377   6.598   6.846  11.042 -0.2875  2.0791 -0.3609
  103OSM   H14B10378   6.563   6.837  11.205 -3.5201 -0.6546  2.1629
  103OSM   H14C10379   6.495   6.968  11.113  1.7864  0.2685 -0.1116
  103OSM    C1310380   6.421   6.628  11.148 -0.0904 -0.3315 -0.2398
  103OSM   H13A10381   6.419   6.640  11.256 -0.4754 -1.7555 -0.0538
  103OSM   H13B10382   6.520   6.592  11.124  2.2165  3.0180  3.0826
  103OSM   H13C10383   6.337   6.563  11.128  0.3660 -1.5756  1.6116
  103OSM    C1210384   6.367   6.746  10.938  0.2946 -0.4750  0.3134
  103OSM   H12A10385   6.447   6.696  10.886 -1.1663 -1.7743 -0.7881
  103OSM   H12B10386   6.354   6.837  10.880 -0.4460 -2.7248 -3.3716
  103OSM    C1110387   6.234   6.669  10.913 -0.3725 -0.0429  1.0657
  103OSM   H11A10388   6.249   6.568  10.956  2.5485 -0.9420 -1.6318
  103OSM   H11B10389   6.230   6.655  10.802  0.4484  0.5143  0.9595
  103OSM      P10390   5.978   6.678  10.906  0.3817 -0.2976 -0.0850
  103OSM    O1310391   5.946   6.558  10.986 -0.1364 -0.2510 -0.1135
  103OSM    O1410392   5.872   6.782  10.925 -0.5742 -0.3278  0.0964
  103OSM    O1110393   5.991   6.651  10.749 -0.1075 -1.0627  0.6601
  103OSM    O1210394   6.117   6.736  10.956 -0.3556 -0.0906  0.3224
  103OSM    C1S10395   5.976   6.769  10.659 -0.1299 -0.1301  0.2021
  103OSM    H1S10396   6.036   6.853  10.699  0.5798 -1.2043  1.4651
  103OSM    H1T10397   5.869   6.798  10.654  0.1470  0.9040 -0.0674
  103OSM     NF10398   6.001   6.842  10.421  0.8222 -0.6171 -0.7257
  103OSM    HNF10399   5.911   6.847  10.377  0.9246  0.5336 -0.8133
  103OSM    C2S10400   6.029   6.735  10.515 -0.0890  0.3409 -0.4965
  103OSM    H2S10401   6.137   6.718  10.535 -0.2989  1.7264  2.3696
  103OSM    C3S10402   5.964   6.603  10.464 -0.4792  0.2770  0.3378
  103OSM    H3S10403   5.854   6.614  10.473 -0.5098 -0.0459  0.3602
  103OSM     O310404   6.000   6.488  10.540 -0.3787  0.1445  0.0384
  103OSM    HO310405   6.049   6.528  10.612  0.0427  0.1849 -0.2687
  103OSM    C4S10406   6.018   6.578  10.320 -0.1393  0.7099 -0.2077
  103OSM    H4S10407   6.127   6.573  10.307 -0.4366  0.7920 -3.6741
  103OSM    C5S10408   5.944   6.575  10.207  0.9307  0.0218  0.1344
  103OSM    H5S10409   5.839   6.606  10.204  1.2776  1.2048 -1.8447
  103OSM    C6S10410   5.992   6.573  10.066 -0.6757 -0.1222 -0.4243
  103OSM    H6S10411   5.951   6.494   9.999 -1.7456  1.4085 -1.6420
  103OSM    H6T10412   6.103   6.567  10.063 -0.5771 -1.5328  2.6648
  103OSM    C7S10413   5.956   6.706  10.006 -0.1107  0.2223 -0.7299
  103OSM    H7S10414   6.004   6.791  10.059 -1.0749  0.6869 -0.5907
  103OSM    H7T10415   5.848   6.729  10.019 -0.2518  0.2269 -1.7810
  103OSM    C8S10416   5.980   6.726   9.853 -1.2540 -0.4153 -0.0252
  103OSM    H8S10417   5.971   6.831   9.818 -1.0861 -0.3144  0.2308
  103OSM    H8T10418   5.917   6.652   9.798 -0.7421  0.8010 -2.3552
  103OSM    C9S10419   6.125   6.679   9.807 -0.0386 -0.1639  0.0065
  103OSM    H9S10420   6.118   6.568   9.804 -1.7679 -0.0763 -2.3629
  103OSM    H9T10421   6.193   6.708   9.890  0.9354 -3.2821  0.4015
  103OSM   C10S10422   6.161   6.743   9.680 -0.4714  0.4138  0.2616
  103OSM   H10S10423   6.271   6.728   9.667 -0.3731  0.1207  1.3424
  103OSM   H10T10424   6.156   6.853   9.663  1.1600  0.2138 -2.1948
  103OSM   C11S10425   6.083   6.673   9.566 -0.3322  0.4331  0.0957
  103OSM   H11S10426   6.047   6.572   9.597  1.3616 -0.8044 -1.7123
  103OSM   H11T10427   6.149   6.665   9.478 -1.8970 -1.8432 -0.9810
  103OSM   C12S10428   5.964   6.760   9.525 -0.0832  0.4430  0.4303
  103OSM   H12S10429   6.008   6.849   9.476 -1.4789  1.2451  0.5786
  103OSM   H12T10430   5.898   6.787   9.609 -0.5021  1.0159 -0.0741
  103OSM   C13S10431   5.871   6.699   9.412  0.2485 -0.4971  0.0831
  103OSM   H13S10432   5.828   6.791   9.366  1.8652  0.9999  1.4397
  103OSM   H13T10433   5.787   6.646   9.461 -1.9171  2.5942  0.0228
  103OSM   C14S10434   5.935   6.617   9.297 -0.8518 -0.9122 -0.8890
  103OSM   H14S10435   5.971   6.520   9.337 -1.9595 -1.2344 -0.6404
  103OSM   H14T10436   6.028   6.665   9.259 -0.6381 -1.2901 -0.8554
  103OSM   C15S10437   5.848   6.572   9.182  0.7588 -0.1043  0.4190
  103OSM   H15S10438   5.818   6.657   9.116  0.6454 -0.9932 -0.7067
  103OSM   H15T10439   5.754   6.537   9.231  0.1445  0.0506 -0.6067
  103OSM   C16S10440   5.919   6.463   9.099 -0.4230  0.2157 -0.1382
  103OSM   H16S10441   5.955   6.393   9.178  4.9598  2.9982  0.3636
  103OSM   H16T10442   6.003   6.505   9.039 -0.4181  2.3693  1.2648
  103OSM   C17S10443   5.828   6.390   8.996 -0.2236 -0.4392 -0.5551
  103OSM   H17S10444   5.902   6.342   8.928  0.3778 -0.2508 -0.0491
  103OSM   H17T10445   5.786   6.466   8.926  1.5007 -3.3024 -5.1517
  103OSM   C18S10446   5.730   6.290   9.056 -0.7054 -0.0134 -0.1819
  103OSM   H18S10447   5.659   6.240   8.986 -1.7217 -0.8595  1.3959
  103OSM   H18T10448   5.667   6.348   9.127  1.1482  0.5833  1.0580
  103OSM   H18U10449   5.782   6.216   9.121 -1.3528  1.6419  2.3371
  103OSM    C1F10450   6.085   6.949  10.413  0.2771 -0.1971  0.1021
  103OSM     OF10451   6.179   6.966  10.488 -0.2647 -0.0245  0.1122
  103OSM    C2F10452   6.053   7.046  10.299  0.8307 -0.3007 -0.7528
  103OSM    H2F10453   6.033   7.139  10.357  2.6353 -0.4996  0.2480
  103OSM    H2G10454   5.959   7.021  10.245 -0.3439  1.8916  0.1011
  103OSM    C3F10455   6.168   7.087  10.203  0.0124 -0.4040 -0.0965
  103OSM    H3F10456   6.200   7.001  10.141  1.9658  0.9485 -1.0719
  103OSM    H3G10457   6.262   7.107  10.260  0.1762  0.0181 -0.5061
  103OSM    C4F10458   6.131   7.205  10.113 -0.2202 -0.1165  0.5763
  103OSM    H4F10459   6.221   7.246  10.062 -0.8704  3.4023  1.9842
  103OSM    H4G10460   6.104   7.292  10.176  0.5870  0.3791  0.2606
  103OSM    C5F10461   6.018   7.168  10.017  0.1231  0.3308 -0.0528
  103OSM    H5F10462   5.922   7.166  10.074  1.2197  0.2768  1.8677
  103OSM    H5G10463   6.046   7.072   9.968  2.9667  1.7056 -1.3553
  103OSM    C6F10464   6.011   7.258   9.895 -0.3605  0.7232 -0.6268
  103OSM    H6F10465   6.046   7.359   9.925 -0.2174  0.1586  1.2382
  103OSM    H6G10466   5.908   7.240   9.856 -0.0327 -1.7645 -0.5308
  103OSM    C7F10467   6.106   7.219   9.773  0.4688 -0.0021 -0.3029
  103OSM    H7F10468   6.068   7.125   9.729 -1.1064  0.7466 -0.6158
  103OSM    H7G10469   6.208   7.212   9.815  0.3860 -3.4188 -0.4623
  103OSM    C8F10470   6.124   7.340   9.676  0.8225 -0.4218 -0.7296
  103OSM    H8F10471   6.179   7.418   9.733  1.0848 -1.0968 -0.0369
  103OSM    H8G10472   6.024   7.381   9.648  0.8846  1.7239  1.8678
  103OSM    C9F10473   6.215   7.300   9.562 -0.2078 -0.1406  0.6496
  103OSM    H9F10474   6.324   7.313   9.570 -0.2627  1.2849 -0.4734
  103OSM   C10F10475   6.166   7.265   9.441 -0.4705 -0.2029 -0.2794
  103OSM   H10F10476   6.233   7.232   9.360  0.7393  2.6708 -0.5550
  103OSM   C11F10477   6.026   7.262   9.395 -0.7972 -0.0553 -0.4832
  103OSM   H11F10478   6.020   7.365   9.355  2.4044  1.0314  1.4351
  103OSM   H11G10479   5.951   7.259   9.477 -0.8443  1.2868 -0.4709
  103OSM   C12F10480   5.988   7.157   9.283  1.0528 -0.0156 -0.0791
  103OSM   H12F10481   5.880   7.166   9.257  1.2759 -2.2173 -2.1193
  103OSM   H12G10482   6.003   7.057   9.329  2.3455  0.3246  0.2651
  103OSM   C13F10483   6.054   7.173   9.144 -0.0813 -0.5881 -0.0197
  103OSM   H13F10484   6.158   7.134   9.154 -0.7572 -2.5324 -0.1002
  103OSM   H13G10485   6.062   7.277   9.107  2.0299 -0.5263  0.4885
  103OSM   C14F10486   5.993   7.083   9.036  0.1954 -0.4917 -0.3432
  103OSM   H14F10487   5.896   7.132   9.015 -1.4946 -2.1607  2.7681
  103OSM   H14G10488   5.978   6.984   9.085 -1.1308  0.2020  0.7269
  103OSM   C15F10489   6.081   7.069   8.912  0.4830 -0.5313  0.0488
  103OSM   H15F10490   6.180   7.033   8.948  0.4371 -0.0693  0.6538
  103OSM   H15G10491   6.098   7.171   8.871 -1.0604 -0.4653 -0.4754
  103OSM   C16F10492   6.012   6.982   8.804  0.9971  0.5505  0.2844
  103OSM   H16F10493   6.048   7.010   8.703  0.6300 -2.0055 -0.6370
  103OSM   H16G10494   5.904   7.007   8.816  0.4067 -1.3557 -0.7606
  103OSM   C17F10495   6.035   6.831   8.818  0.3294  0.1073 -0.6048
  103OSM   H17F10496   6.007   6.795   8.919  0.8024  2.4126  0.4110
  103OSM   H17G10497   6.144   6.808   8.810  0.3913  0.6321 -1.4890
  103OSM   C18F10498   5.952   6.745   8.725  0.0653  0.7606  0.5964
  103OSM   H18F10499   6.003   6.739   8.626  0.1780 -1.0316  0.7311
  103OSM   H18G10500   5.850   6.787   8.715 -0.8807 -1.3549  0.8058
  103OSM   H18H10501   5.948   6.647   8.778  2.8227 -1.1765 -2.3099
  104OSM      N10502   0.266   4.148  10.824 -0.1733  0.1765  0.2455
  104OSM    C1510503   0.231   4.184  10.962  0.0025 -0.7530 -0.1628
  104OSM   H15A10504   0.305   4.240  11.017  1.0013  0.5209 -2.6311
  104OSM   H15B10505   0.212   4.095  11.020 -0.3474 -1.0351 -0.7054
  104OSM   H15C10506   0.141   4.244  10.967 -0.0903 -0.9137  0.1113
  104OSM    C1410507   0.367   4.034  10.831 -0.5986  0.1827  0.1355
  104OSM   H14A10508   0.396   4.018  10.728 -2.8028  1.6750 -0.7850
  104OSM   H14B10509   0.325   3.945  10.876  4.7862 -3.5460 -1.2224
  104OSM   H14C10510   0.445   4.073  10.894  0.0647 -0.7016 -0.1266
  104OSM    C1310511   0.148   4.090  10.745 -0.1777  0.2587 -0.3764
  104OSM   H13A10512   0.074   4.168  10.734  3.5697  4.0173 -1.6371
  104OSM   H13B10513   0.115   4.002  10.799  3.2509 -0.0758  1.3946
  104OSM   H13C10514   0.181   4.049  10.651 -0.7846 -1.7825  0.2522
  104OSM    C1210515   0.324   4.270  10.745 -0.2321 -0.3056  0.2110
  104OSM   H12A10516   0.261   4.357  10.744  1.2782  0.8220 -1.0399
  104OSM   H12B10517   0.336   4.237  10.643 -2.2135  1.0503 -0.5064
  104OSM    C1110518   0.470   4.314  10.783  0.4067 -0.9248  0.3269
  104OSM   H11A10519   0.472   4.324  10.894 -2.7861 -1.0218  0.4685
  104OSM   H11B10520   0.493   4.418  10.751  2.1032 -1.1354  0.7478
  104OSM      P10521   0.709   4.225  10.787 -0.0927  0.3511  0.0293
  104OSM    O1310522   0.725   4.339  10.882 -0.3320  0.1063  0.1948
  104OSM    O1410523   0.741   4.091  10.840 -0.2111  0.0370 -0.8507
  104OSM    O1110524   0.800   4.248  10.663  0.5170 -0.4382  0.0549
  104OSM    O1210525   0.569   4.226  10.731  0.1800  0.1433 -0.2773
  104OSM    C1S10526   0.786   4.191  10.537  0.5597  0.0996 -0.7581
  104OSM    H1S10527   0.686   4.211  10.493  1.2809  1.7555 -1.7698
  104OSM    H1T10528   0.792   4.083  10.558  1.0746  0.4092  0.8153
  104OSM     NF10529   0.881   4.200  10.306 -0.4717 -0.3642  0.0962
  104OSM    HNF10530   0.953   4.164  10.247 -2.2947  0.0318 -2.5865
  104OSM    C2S10531   0.901   4.232  10.446 -0.2780  0.6512  0.2820
  104OSM    H2S10532   0.904   4.343  10.443 -1.2047  0.8159  2.8373
  104OSM    C3S10533   1.039   4.189  10.508  0.3254  0.1163 -0.5454
  104OSM    H3S10534   1.041   4.078  10.517  1.0262  0.1819  0.2698
  104OSM     O310535   1.053   4.228  10.644 -0.8692  0.0197 -0.2777
  104OSM    HO310536   0.964   4.259  10.662 -1.0148 -0.4144 -0.2278
  104OSM    C4S10537   1.149   4.226  10.412 -0.4688 -0.4793 -0.0828
  104OSM    H4S10538   1.173   4.154  10.333  0.8000 -0.0575 -0.1111
  104OSM    C5S10539   1.188   4.358  10.390 -0.2802  1.2722  0.3489
  104OSM    H5S10540   1.156   4.441  10.454  0.0928  2.9039 -1.4790
  104OSM    C6S10541   1.265   4.399  10.271  0.2970  0.4299  0.1433
  104OSM    H6S10542   1.304   4.319  10.205  0.9257  0.5104  0.4042
  104OSM    H6T10543   1.347   4.470  10.296 -0.1686  1.3666 -0.8506
  104OSM    C7S10544   1.158   4.474  10.194  0.0637  0.2660 -0.9504
  104OSM    H7S10545   1.088   4.530  10.260 -0.1515 -1.8600  0.7325
  104OSM    H7T10546   1.091   4.401  10.144  0.0052 -2.0402  2.2401
  104OSM    C8S10547   1.207   4.574  10.082  0.1520  0.3158  0.4836
  104OSM    H8S10548   1.298   4.630  10.112 -0.3848  0.6299  1.5606
  104OSM    H8T10549   1.124   4.646  10.072  0.1912  0.1926 -1.1012
  104OSM    C9S10550   1.218   4.517   9.942  0.0694  0.3127 -0.1354
  104OSM    H9S10551   1.125   4.458   9.930 -0.4470  0.7575  1.3918
  104OSM    H9T10552   1.307   4.450   9.938  0.0372  0.3496 -2.0982
  104OSM   C10S10553   1.227   4.624   9.828  0.2397 -0.2253 -0.1672
  104OSM   H10S10554   1.314   4.691   9.847  0.7147 -0.6238 -0.9158
  104OSM   H10T10555   1.136   4.689   9.830  1.2275  1.2936 -1.9342
  104OSM   C11S10556   1.247   4.566   9.691 -0.3996  0.4160 -0.2527
  104OSM   H11S10557   1.165   4.502   9.651 -0.2416  1.3538 -2.2002
  104OSM   H11T10558   1.342   4.508   9.697 -1.4498 -1.6148 -1.6580
  104OSM   C12S10559   1.267   4.680   9.587 -0.1618  1.1946 -0.3079
  104OSM   H12S10560   1.352   4.746   9.615 -1.1380  1.8984  1.1192
  104OSM   H12T10561   1.175   4.741   9.585 -0.2923  1.0003 -2.0730
  104OSM   C13S10562   1.303   4.632   9.446  0.2380 -0.0235 -0.2853
  104OSM   H13S10563   1.385   4.558   9.460  1.7691  1.8649  1.4738
  104OSM   H13T10564   1.346   4.715   9.386  1.3651 -0.0424  0.4633
  104OSM   C14S10565   1.182   4.575   9.366  0.2291 -0.8890  0.3724
  104OSM   H14S10566   1.107   4.655   9.350  0.6963 -0.8278 -1.9661
  104OSM   H14T10567   1.136   4.488   9.416 -0.9948 -0.1675  0.5562
  104OSM   C15S10568   1.227   4.534   9.227  0.4341 -0.2060  1.0667
  104OSM   H15S10569   1.327   4.486   9.237  0.0614 -1.1296  0.4453
  104OSM   H15T10570   1.242   4.624   9.163  2.9714  1.5108  3.7971
  104OSM   C16S10571   1.134   4.437   9.149 -0.0761  0.6203 -0.0667
  104OSM   H16S10572   1.044   4.496   9.121 -0.6766 -0.0415  0.4373
  104OSM   H16T10573   1.093   4.352   9.208  1.2850  0.0807  0.1336
  104OSM   C17S10574   1.190   4.388   9.010 -0.6076 -0.2764 -1.0572
  104OSM   H17S10575   1.107   4.340   8.952 -1.8799  0.0859  0.3991
  104OSM   H17T10576   1.267   4.309   9.024 -0.5803 -0.4612 -2.1504
  104OSM   C18S10577   1.253   4.497   8.917 -0.2434  0.4447  0.4445
  104OSM   H18S10578   1.181   4.575   8.883  0.7358  0.4733 -1.7684
  104OSM   H18T10579   1.276   4.453   8.817  0.1439  0.9536  0.3033
  104OSM   H18U10580   1.340   4.551   8.959 -0.1824 -0.0876  1.0174
  104OSM    C1F10581   0.784   4.247  10.235 -0.5833 -0.7794  0.5671
  104OSM     OF10582   0.706   4.320  10.285  0.4276 -0.3502 -0.4550
  104OSM    C2F10583   0.787   4.216  10.090  0.5487  0.4396 -0.0721
  104OSM    H2F10584   0.704   4.150  10.056  2.3337 -0.8783 -2.0666
  104OSM    H2G10585   0.879   4.164  10.057 -0.6903 -0.3077 -2.6238
  104OSM    C3F10586   0.770   4.340   9.994 -0.2967  1.4602  0.2442
  104OSM    H3F10587   0.857   4.406  10.014  0.6891  0.9474 -2.0423
  104OSM    H3G10588   0.682   4.402  10.021 -1.1987 -0.6535  2.5335
  104OSM    C4F10589   0.758   4.290   9.853 -0.4509 -0.5805 -0.2451
  104OSM    H4F10590   0.671   4.226   9.828  0.7667 -1.5221 -2.2826
  104OSM    H4G10591   0.854   4.241   9.826 -0.8955 -0.5653 -1.9826
  104OSM    C5F10592   0.754   4.412   9.759  0.6718  0.2110 -0.3619
  104OSM    H5F10593   0.839   4.482   9.776  0.2148  0.4339  1.0712
  104OSM    H5G10594   0.659   4.469   9.769  0.3828 -0.3423  0.1095
  104OSM    C6F10595   0.765   4.370   9.605 -0.3623  0.2521 -0.0169
  104OSM    H6F10596   0.682   4.300   9.581 -0.4239 -0.0388  0.9815
  104OSM    H6G10597   0.858   4.309   9.603  0.3753  1.0687  3.5731
  104OSM    C7F10598   0.767   4.485   9.511  0.4932 -0.0906 -0.8248
  104OSM    H7F10599   0.851   4.547   9.549 -0.3227  0.7238 -0.3273
  104OSM    H7G10600   0.674   4.545   9.514  2.3725  3.0659  1.7811
  104OSM    C8F10601   0.800   4.443   9.363  0.7946 -0.8207 -0.2439
  104OSM    H8F10602   0.876   4.362   9.357 -0.8163 -2.4354  0.5191
  104OSM    H8G10603   0.833   4.527   9.297 -1.9115 -2.1228 -3.5057
  104OSM    C9F10604   0.676   4.391   9.297 -0.0586  0.8034  0.2140
  104OSM    H9F10605   0.624   4.311   9.351  1.8139 -1.4838 -1.2001
  104OSM   C10F10606   0.639   4.418   9.170  0.4416 -0.9477 -0.2841
  104OSM   H10F10607   0.543   4.384   9.129 -0.0311 -0.0992  0.0874
  104OSM   C11F10608   0.707   4.513   9.071  0.2431 -0.3540  0.0500
  104OSM   H11F10609   0.787   4.571   9.122  1.3396 -1.6091 -0.2175
  104OSM   H11G10610   0.632   4.588   9.039 -1.2558 -1.0228  1.8075
  104OSM   C12F10611   0.759   4.427   8.951 -0.2661  0.9289 -0.2828
  104OSM   H12F10612   0.680   4.349   8.935  2.7976 -2.5324  0.1397
  104OSM   H12G10613   0.839   4.360   8.990 -0.7104 -0.5399 -1.7491
  104OSM   C13F10614   0.796   4.501   8.825 -0.2467 -0.0352  0.6096
  104OSM   H13F10615   0.864   4.586   8.844 -0.6050  0.2957  0.4223
  104OSM   H13G10616   0.709   4.547   8.773  1.2993  0.8905 -1.2988
  104OSM   C14F10617   0.876   4.428   8.717 -0.4376  0.7911  0.7942
  104OSM   H14F10618   0.815   4.351   8.665 -0.7139  0.6897  1.2740
  104OSM   H14G10619   0.978   4.402   8.752 -0.7302 -1.7760 -0.0132
  104OSM   C15F10620   0.909   4.521   8.593 -0.6658 -0.3812  0.2270
  104OSM   H15F10621   0.976   4.601   8.632 -0.9359 -1.4493  3.2168
  104OSM   H15G10622   0.817   4.563   8.548 -0.9531 -1.0060  0.2204
  104OSM   C16F10623   0.984   4.460   8.477  0.7699 -0.2235 -0.3798
  104OSM   H16F10624   1.084   4.428   8.516  0.8037  1.2360  0.7929
  104OSM   H16G10625   1.002   4.548   8.412 -1.8194  0.7465  0.1014
  104OSM   C17F10626   0.904   4.351   8.409 -0.1380 -0.3734  0.5357
  104OSM   H17F10627   0.813   4.404   8.373  0.7230  0.1100 -0.9901
  104OSM   H17G10628   0.885   4.272   8.485  2.6241  0.6307  2.4418
  104OSM   C18F10629   0.976   4.290   8.289  0.5190  1.1153 -0.4613
  104OSM   H18F10630   1.082   4.322   8.304  0.1484  1.0695  3.0179
  104OSM   H18G10631   0.931   4.322   8.192 -0.4893  2.2510  0.3534
  104OSM   H18H10632   0.972   4.179   8.297 -0.7498  0.9960 -2.2212
  105OSM      N10633   3.460   1.465  10.542  0.7831 -0.4271  0.2477
  105OSM    C1510634   3.557   1.473  10.425 -0.2823  0.4733  0.3561
  105OSM   H15A10635   3.543   1.387  10.361 -1.8045  0.2724  0.9107
  105OSM   H15B10636   3.661   1.471  10.455  0.3413  0.1663 -1.6826
  105OSM   H15C10637   3.535   1.562  10.367 -2.1428  0.0323  0.3127
  105OSM    C1410638   3.477   1.595  10.609 -0.0454 -0.0507  0.3122
  105OSM   H14A10639   3.579   1.631  10.616  1.5234 -3.6130 -1.6421
  105OSM   H14B10640   3.444   1.591  10.712 -1.3857 -0.4901 -0.1180
  105OSM   H14C10641   3.419   1.670  10.559 -0.2208 -1.9861 -2.6332
  105OSM    C1310642   3.316   1.466  10.483 -0.8041  0.6789 -0.5587
  105OSM   H13A10643   3.316   1.373  10.428  3.1196 -0.1359  0.4643
  105OSM   H13B10644   3.305   1.552  10.419 -0.8857  1.1267  0.0463
  105OSM   H13C10645   3.239   1.451  10.557  1.9108 -1.2020  2.1363
  105OSM    C1210646   3.487   1.341  10.627  0.1784  1.1954 -0.4701
  105OSM   H12A10647   3.587   1.347  10.667  0.0533 -1.0776  0.2945
  105OSM   H12B10648   3.503   1.263  10.554  2.6875  0.4929  0.7248
  105OSM    C1110649   3.390   1.285  10.736  0.1843  0.1428  0.6542
  105OSM   H11A10650   3.366   1.364  10.810  1.1377  0.7936  0.2863
  105OSM   H11B10651   3.426   1.194  10.790 -0.1279 -1.3986 -1.5996
  105OSM      P10652   3.240   1.117  10.585 -0.2286  0.3976 -0.0983
  105OSM    O1310653   3.304   1.001  10.649 -0.5264 -0.4873  0.6062
  105OSM    O1410654   3.097   1.096  10.556 -0.0437  0.3185  0.2882
  105OSM    O1110655   3.319   1.146  10.445 -0.1360  0.4045  0.1649
  105OSM    O1210656   3.265   1.244  10.675  0.3518 -0.4052  0.0161
  105OSM    C1S10657   3.311   1.038  10.354  0.1483  0.3101  0.6009
  105OSM    H1S10658   3.221   0.973  10.359  1.0743 -1.0410  0.0900
  105OSM    H1T10659   3.402   0.974  10.359 -1.1294 -1.6432  0.0870
  105OSM     NF10660   3.254   0.996  10.119  0.1275  0.1544  0.0789
  105OSM    HNF10661   3.326   0.944  10.074  2.0348  0.9720  2.0100
  105OSM    C2S10662   3.310   1.090  10.210  0.2684  0.4250 -0.4497
  105OSM    H2S10663   3.234   1.170  10.226 -0.7433 -0.2593 -1.6727
  105OSM    C3S10664   3.445   1.160  10.156  0.4455  0.7636 -0.8060
  105OSM    H3S10665   3.498   1.072  10.115 -0.1758 -0.1907  0.3752
  105OSM     O310666   3.529   1.206  10.265 -0.2578  0.3148 -0.2703
  105OSM    HO310667   3.487   1.177  10.347  1.1598  0.5055  0.5434
  105OSM    C4S10668   3.431   1.262  10.046 -0.2329 -0.3197 -0.1397
  105OSM    H4S10669   3.473   1.238   9.947 -0.0167 -1.0990  0.1305
  105OSM    C5S10670   3.400   1.388  10.067 -0.0666  0.1477 -0.3633
  105OSM    H5S10671   3.395   1.415  10.174 -0.3566  0.1116 -0.3677
  105OSM    C6S10672   3.425   1.500   9.973 -0.0367 -0.7297 -0.5095
  105OSM    H6S10673   3.493   1.576  10.017 -2.0132  0.8127  0.0775
  105OSM    H6T10674   3.326   1.548   9.959  0.5124  1.1048  1.3497
  105OSM    C7S10675   3.484   1.470   9.833 -0.0036  0.1274  1.0230
  105OSM    H7S10676   3.418   1.388   9.796  1.3613 -0.9735  0.9248
  105OSM    H7T10677   3.583   1.420   9.825 -0.8795 -1.4325 -1.3496
  105OSM    C8S10678   3.495   1.593   9.745 -0.2338  0.5284 -0.2284
  105OSM    H8S10679   3.595   1.640   9.761 -1.4151  2.4815  2.1089
  105OSM    H8T10680   3.424   1.672   9.776  1.4475  1.9100  0.2890
  105OSM    C9S10681   3.473   1.555   9.598 -0.2659 -0.2788 -0.6282
  105OSM    H9S10682   3.366   1.528   9.584 -0.0457 -0.9394 -1.1397
  105OSM    H9T10683   3.544   1.470   9.587 -1.0297 -0.8897 -0.9143
  105OSM   C10S10684   3.512   1.677   9.507  0.2662 -0.3753 -0.0015
  105OSM   H10S10685   3.621   1.694   9.524  0.6369 -2.3607 -0.1814
  105OSM   H10T10686   3.446   1.756   9.549 -1.7239 -1.4345 -1.0078
  105OSM   C11S10687   3.489   1.657   9.359  0.1155  0.0862 -0.2427
  105OSM   H11S10688   3.507   1.759   9.318 -2.3383  1.4473  1.7932
  105OSM   H11T10689   3.380   1.643   9.348 -0.4193  2.6953  0.9956
  105OSM   C12S10690   3.583   1.546   9.299  0.2440  0.5364  0.4297
  105OSM   H12S10691   3.561   1.454   9.358  0.5596  0.5361  0.5488
  105OSM   H12T10692   3.687   1.585   9.303  0.1511  1.4969 -3.2150
  105OSM   C13S10693   3.564   1.500   9.152  0.1859  0.3414  0.0728
  105OSM   H13S10694   3.454   1.494   9.139 -0.1888 -1.7852  3.2258
  105OSM   H13T10695   3.609   1.406   9.114 -0.0591  0.4457 -0.4839
  105OSM   C14S10696   3.623   1.614   9.073 -0.0537 -0.3931  0.0570
  105OSM   H14S10697   3.733   1.596   9.077  0.1221  0.1533 -1.5403
  105OSM   H14T10698   3.615   1.712   9.124  1.9493 -0.2457  0.1666
  105OSM   C15S10699   3.583   1.631   8.922  0.0281 -0.1624  0.4299
  105OSM   H15S10700   3.489   1.690   8.918 -1.4713 -2.5069 -1.5432
  105OSM   H15T10701   3.565   1.531   8.877  1.4678 -0.1300 -0.2606
  105OSM   C16S10702   3.688   1.708   8.836 -0.3553 -0.0182 -0.4002
  105OSM   H16S10703   3.769   1.633   8.822  3.3765  3.2077  1.8444
  105OSM   H16T10704   3.736   1.790   8.893  1.2496 -0.4184 -1.1420
  105OSM   C17S10705   3.631   1.768   8.713  0.0949 -0.1400  0.4122
  105OSM   H17S10706   3.585   1.866   8.738  3.9463  1.3695  2.3533
  105OSM   H17T10707   3.552   1.696   8.683  1.7904 -2.6881  1.6966
  105OSM   C18S10708   3.728   1.797   8.599 -0.5336  0.4577 -0.5127
  105OSM   H18S10709   3.790   1.712   8.561  1.7602  1.3590  0.9861
  105OSM   H18T10710   3.809   1.868   8.627  0.5752 -0.6508 -0.7841
  105OSM   H18U10711   3.675   1.842   8.512  1.0008  2.7834 -0.3459
  105OSM    C1F10712   3.128   0.956  10.136 -0.1486 -0.3265  0.1010
  105OSM     OF10713   3.036   1.032  10.172 -1.0798  0.2276  0.2535
  105OSM    C2F10714   3.105   0.808  10.124 -0.0428  0.6863  0.0556
  105OSM    H2F10715   3.111   0.761  10.225  0.0822 -2.2556 -1.2146
  105OSM    H2G10716   3.191   0.761  10.071 -1.0899  0.3783 -1.4044
  105OSM    C3F10717   2.961   0.780  10.058 -0.3026 -0.0560 -0.6661
  105OSM    H3F10718   2.881   0.822  10.123 -0.4418  1.7897 -1.9259
  105OSM    H3G10719   2.953   0.670  10.053 -0.3822 -0.0145 -1.7681
  105OSM    C4F10720   2.945   0.842   9.922 -0.2209 -0.4567 -0.8831
  105OSM    H4F10721   2.969   0.951   9.926  0.3038 -0.5990  2.0353
  105OSM    H4G10722   2.841   0.833   9.885 -0.3269  1.5839 -1.2244
  105OSM    C5F10723   3.035   0.786   9.813  0.3416  0.3455  0.1413
  105OSM    H5F10724   3.019   0.677   9.801  0.8010 -0.0277  2.4286
  105OSM    H5G10725   3.141   0.789   9.844  0.1389  0.6543  0.8203
  105OSM    C6F10726   3.024   0.856   9.677 -0.3486  0.0768  0.4032
  105OSM    H6F10727   3.068   0.958   9.690  1.1545 -0.1371 -2.2864
  105OSM    H6G10728   2.920   0.881   9.647  0.5726  3.3114 -0.5157
  105OSM    C7F10729   3.111   0.782   9.570  0.4175 -0.3007 -0.6687
  105OSM    H7F10730   3.059   0.688   9.543 -0.4191  0.1080 -0.5215
  105OSM    H7G10731   3.217   0.760   9.598  0.7207 -0.2667 -1.7451
  105OSM    C8F10732   3.121   0.863   9.438 -0.4527  0.0244 -0.2940
  105OSM    H8F10733   3.189   0.948   9.458  1.3242 -0.5872 -3.1485
  105OSM    H8G10734   3.021   0.892   9.398 -0.4820  0.0881 -0.1750
  105OSM    C9F10735   3.189   0.790   9.322 -0.4605  0.5216  0.6694
  105OSM    H9F10736   3.231   0.690   9.342  0.1563  0.3465 -1.3476
  105OSM   C10F10737   3.217   0.838   9.199 -0.0353  0.6412 -0.3284
  105OSM   H10F10738   3.285   0.778   9.136  1.4497  1.9803 -0.0603
  105OSM   C11F10739   3.181   0.971   9.144  0.2192  0.4160 -0.6775
  105OSM   H11F10740   3.257   1.048   9.169 -2.1466  2.4093  0.9095
  105OSM   H11G10741   3.088   1.013   9.188  0.7793 -0.5901  1.6222
  105OSM   C12F10742   3.168   0.953   8.988 -0.5469 -0.2175 -0.0416
  105OSM   H12F10743   3.115   1.044   8.952  0.4799  0.3280 -0.2201
  105OSM   H12G10744   3.108   0.866   8.957 -1.9004  0.8988 -0.6655
  105OSM   C13F10745   3.298   0.948   8.907 -0.2529  0.0295 -0.0492
  105OSM   H13F10746   3.347   0.850   8.922  0.1307  0.2309  0.0504
  105OSM   H13G10747   3.379   1.013   8.948 -1.4435  0.5407  1.6185
  105OSM   C14F10748   3.264   0.968   8.762  0.3779 -0.0414 -0.3118
  105OSM   H14F10749   3.190   1.050   8.754 -0.6938 -0.6763  2.1597
  105OSM   H14G10750   3.209   0.878   8.727 -0.4402  0.9310 -1.6243
  105OSM   C15F10751   3.390   0.999   8.678 -1.0932 -0.6292  0.2525
  105OSM   H15F10752   3.477   0.945   8.721  0.0341  1.3557  0.5831
  105OSM   H15G10753   3.410   1.106   8.698 -0.7223 -0.9338  1.6088
  105OSM   C16F10754   3.378   0.949   8.529  0.5699 -0.4069 -0.0538
  105OSM   H16F10755   3.332   1.027   8.464  0.1452 -0.1658  0.5302
  105OSM   H16G10756   3.306   0.866   8.545 -2.5169  2.2052  0.6589
  105OSM   C17F10757   3.515   0.901   8.473  0.3030 -0.1866 -0.1524
  105OSM   H17F10758   3.547   0.818   8.539  1.6571  0.6992  0.3573
  105OSM   H17G10759   3.592   0.981   8.471  1.5141 -1.3339 -1.2742
  105OSM   C18F10760   3.506   0.847   8.327 -0.4565 -0.0264 -0.3697
  105OSM   H18F10761   3.518   0.926   8.250 -0.3462  1.5282  1.1786
  105OSM   H18G10762   3.416   0.788   8.301 -1.2767 -0.1251  2.4048
  105OSM   H18H10763   3.591   0.777   8.313 -0.9767 -0.7294 -0.0767
  106OSM      N10764   2.902   1.319  10.807  0.7427  0.1687  0.1284
  106OSM    C1510765   2.800   1.430  10.827 -0.4108 -0.4523 -0.0586
  106OSM   H15A10766   2.831   1.516  10.771 -0.2129  0.1313  0.9278
  106OSM   H15B10767   2.781   1.458  10.929 -1.1044  0.1182 -0.3366
  106OSM   H15C10768   2.706   1.394  10.788 -0.2825 -0.1073 -0.6913
  106OSM    C1410769   2.877   1.204  10.897 -0.5737  0.0440 -0.0803
  106OSM   H14A10770   2.862   1.227  11.001 -0.4876 -2.2242  0.4802
  106OSM   H14B10771   2.954   1.129  10.888 -1.1745 -0.9007  2.0829
  106OSM   H14C10772   2.790   1.147  10.869 -0.3184 -1.0049  1.1787
  106OSM    C1310773   2.883   1.273  10.669  0.1739  0.3508 -0.0752
  106OSM   H13A10774   2.787   1.228  10.647  0.0330  0.4218  0.3927
  106OSM   H13B10775   2.959   1.198  10.650 -1.1399 -0.8747 -0.7549
  106OSM   H13C10776   2.907   1.360  10.611  1.7572 -0.9316 -1.4360
  106OSM    C1210777   3.046   1.373  10.836  0.1397  0.5601  0.3824
  106OSM   H12A10778   3.113   1.293  10.809 -1.5238 -1.3587  1.6931
  106OSM   H12B10779   3.060   1.377  10.943 -2.3060  1.7805  0.7320
  106OSM    C1110780   3.080   1.506  10.759 -0.0362 -0.0031  0.9997
  106OSM   H11A10781   3.188   1.526  10.772 -0.0948  0.3236  1.0102
  106OSM   H11B10782   3.039   1.592  10.817  0.0844 -0.4526  1.7494
  106OSM      P10783   2.969   1.617  10.539 -0.4544 -0.3635  0.0310
  106OSM    O1310784   2.831   1.630  10.590 -0.1045  0.6714 -0.2617
  106OSM    O1410785   3.054   1.737  10.555 -0.3906 -0.3238 -0.5040
  106OSM    O1110786   2.970   1.561  10.388 -0.6060  0.8217  0.7465
  106OSM    O1210787   3.031   1.506  10.624 -0.1325 -0.1585  0.3815
  106OSM    C1S10788   2.936   1.428  10.361 -0.2838 -0.8627  0.3689
  106OSM    H1S10789   2.845   1.404  10.420  0.1963 -1.1511  0.9991
  106OSM    H1T10790   3.025   1.368  10.388  0.2480 -0.6156 -0.7580
  106OSM     NF10791   2.844   1.276  10.202 -0.6329 -0.4325 -0.1418
  106OSM    HNF10792   2.902   1.199  10.175 -0.5370 -0.7577  0.9528
  106OSM    C2S10793   2.897   1.409  10.216  0.9682  0.2925 -0.1124
  106OSM    H2S10794   2.823   1.484  10.181 -0.9897 -0.8156  1.3682
  106OSM    C3S10795   3.022   1.429  10.123  0.2109 -0.7192  0.5899
  106OSM    H3S10796   3.100   1.362  10.164  2.6498  0.6867 -1.4769
  106OSM     O310797   3.075   1.558  10.136  0.2197 -0.6676 -0.0658
  106OSM    HO310798   3.019   1.588  10.207 -0.3256  0.8008 -1.0702
  106OSM    C4S10799   2.987   1.405   9.979 -0.6222  0.5334  0.7452
  106OSM    H4S10800   2.941   1.493   9.931  4.1778  2.9273 -0.0506
  106OSM    C5S10801   3.012   1.291   9.906 -0.2465 -0.1274  0.4988
  106OSM    H5S10802   3.082   1.211   9.932 -0.1744 -0.5545 -0.9237
  106OSM    C6S10803   2.984   1.276   9.758 -0.2994 -0.3736 -0.6707
  106OSM    H6S10804   2.915   1.355   9.723 -0.7346 -2.3339 -4.8646
  106OSM    H6T10805   2.938   1.176   9.743  0.3656 -0.7280 -0.3893
  106OSM    C7S10806   3.108   1.305   9.663  0.8838  0.6078 -0.2550
  106OSM    H7S10807   3.178   1.220   9.677 -1.1904 -0.9441  1.3555
  106OSM    H7T10808   3.154   1.403   9.688 -4.5327  3.8469 -1.3261
  106OSM    C8S10809   3.053   1.316   9.529 -0.3844 -0.2240 -0.5957
  106OSM    H8S10810   2.977   1.397   9.520 -0.1202  0.1996  0.7679
  106OSM    H8T10811   3.000   1.219   9.512  0.4226 -0.9404  0.8032
  106OSM    C9S10812   3.164   1.324   9.428 -0.4585 -0.3679  0.1654
  106OSM    H9S10813   3.218   1.227   9.422  0.2876  0.0437  0.0604
  106OSM    H9T10814   3.226   1.415   9.440 -0.7924 -0.0760 -0.2887
  106OSM   C10S10815   3.100   1.356   9.291 -0.0650 -0.8212 -0.7554
  106OSM   H10S10816   3.007   1.415   9.309  0.5873 -0.2553  1.0160
  106OSM   H10T10817   3.062   1.260   9.250  0.4126 -1.2231 -0.2834
  106OSM   C11S10818   3.201   1.417   9.190  0.9965  0.1190 -0.5089
  106OSM   H11S10819   3.296   1.359   9.200  1.5349  1.1822  0.9202
  106OSM   H11T10820   3.219   1.521   9.222  0.1674  0.6782 -1.7845
  106OSM   C12S10821   3.158   1.404   9.047 -0.6495 -0.1093  0.9999
  106OSM   H12S10822   3.062   1.454   9.023  0.5241  1.1984 -1.3409
  106OSM   H12T10823   3.133   1.299   9.021 -4.7719  0.9880 -0.1924
  106OSM   C13S10824   3.246   1.469   8.946  0.2956 -0.0897  0.4824
  106OSM   H13S10825   3.349   1.428   8.958 -0.0001 -0.6085  1.3607
  106OSM   H13T10826   3.238   1.578   8.967  0.1666  0.0219 -0.1303
  106OSM   C14S10827   3.205   1.444   8.801  0.0079 -0.2597  0.3760
  106OSM   H14S10828   3.096   1.460   8.784 -0.0674 -1.2928 -0.1952
  106OSM   H14T10829   3.214   1.336   8.777 -0.5214 -0.1113 -0.5553
  106OSM   C15S10830   3.298   1.523   8.702 -0.3639  0.4167  0.0791
  106OSM   H15S10831   3.404   1.526   8.736 -0.2482  1.0850 -0.3217
  106OSM   H15T10832   3.266   1.629   8.713  1.5430  1.1067 -0.6156
  106OSM   C16S10833   3.284   1.486   8.551  0.3697 -0.1368 -0.6341
  106OSM   H16S10834   3.178   1.507   8.526  1.1204  2.4291 -1.9184
  106OSM   H16T10835   3.306   1.377   8.550  0.9978 -0.0735  1.2150
  106OSM   C17S10836   3.373   1.571   8.464 -0.0478 -0.0173  0.0807
  106OSM   H17S10837   3.372   1.544   8.357 -1.6968  0.6710 -0.1142
  106OSM   H17T10838   3.472   1.553   8.511 -0.2387  1.0421  0.9376
  106OSM   C18S10839   3.345   1.723   8.466  0.4522  0.1673  0.4710
  106OSM   H18S10840   3.236   1.742   8.455  0.5915  0.4980 -0.4125
  106OSM   H18T10841   3.404   1.786   8.395 -0.5158  1.1203  0.4950
  106OSM   H18U10842   3.369   1.765   8.566 -0.0952  3.3117 -0.6066
  106OSM    C1F10843   2.722   1.240  10.243 -0.3374  0.0849  0.6535
  106OSM     OF10844   2.657   1.314  10.309 -0.3545 -0.1628 -0.4433
  106OSM    C2F10845   2.674   1.103  10.206 -0.2649 -0.0511  0.6261
  106OSM    H2F10846   2.724   1.042  10.284 -1.2678 -2.0071 -0.2023
  106OSM    H2G10847   2.717   1.081  10.106  1.0697 -0.1437  1.1968
  106OSM    C3F10848   2.521   1.078  10.218 -0.2712  0.3822 -0.4092
  106OSM    H3F10849   2.465   1.144  10.148 -2.7372  0.1948  1.2421
  106OSM    H3G10850   2.473   1.104  10.315  0.3309  2.5815 -0.6528
  106OSM    C4F10851   2.479   0.940  10.184  0.4290  0.0292  0.0110
  106OSM    H4F10852   2.369   0.929  10.196  0.4074 -0.6011 -0.7200
  106OSM    H4G10853   2.533   0.863  10.243 -2.2873 -1.8707  0.1962
  106OSM    C5F10854   2.510   0.905  10.038 -0.3012  0.3464  0.3412
  106OSM    H5F10855   2.615   0.918  10.003 -0.0360 -0.0809  0.9568
  106OSM    H5G10856   2.454   0.976   9.973 -0.6760 -1.6073 -1.5927
  106OSM    C6F10857   2.472   0.762   9.999  0.7105 -0.6732 -0.4431
  106OSM    H6F10858   2.362   0.766   9.990  0.5237  0.1097  1.6922
  106OSM    H6G10859   2.498   0.700  10.087 -1.7769 -1.4053 -0.1555
  106OSM    C7F10860   2.544   0.699   9.875 -0.1267  0.0516  0.1361
  106OSM    H7F10861   2.506   0.595   9.866  1.5897 -0.5140 -0.9511
  106OSM    H7G10862   2.652   0.683   9.893 -0.1175 -0.2493 -0.1758
  106OSM    C8F10863   2.495   0.769   9.747 -0.8667  0.1147  0.2266
  106OSM    H8F10864   2.541   0.721   9.658  0.9374 -0.4044  1.3824
  106OSM    H8G10865   2.526   0.876   9.757 -0.9814  0.3111 -1.2293
  106OSM    C9F10866   2.343   0.774   9.726 -0.4020 -0.0335 -0.3411
  106OSM    H9F10867   2.282   0.705   9.786  1.0199 -0.9076  0.1405
  106OSM   C10F10868   2.273   0.847   9.629 -0.6608  0.4794  0.2770
  106OSM   H10F10869   2.164   0.837   9.620 -0.5443 -1.4117  0.6753
  106OSM   C11F10870   2.333   0.951   9.549 -0.2559  0.1581 -0.3600
  106OSM   H11F10871   2.441   0.967   9.567 -0.3093  0.2828 -0.1449
  106OSM   H11G10872   2.281   1.046   9.575  3.2460  1.4943  2.7544
  106OSM   C12F10873   2.334   0.927   9.402 -0.0478 -0.5417  0.0802
  106OSM   H12F10874   2.235   0.901   9.360  0.0875 -1.7921  0.5138
  106OSM   H12G10875   2.400   0.840   9.385 -0.9364 -1.0913 -0.6571
  106OSM   C13F10876   2.383   1.044   9.312 -0.6045  0.8411 -0.1248
  106OSM   H13F10877   2.492   1.059   9.324 -0.1422 -2.0872 -0.0671
  106OSM   H13G10878   2.326   1.136   9.337 -0.8020  0.1502  2.2031
  106OSM   C14F10879   2.354   1.006   9.171 -0.4249  0.0284 -0.5500
  106OSM   H14F10880   2.246   0.990   9.151 -1.4929  1.9806  2.8438
  106OSM   H14G10881   2.398   0.906   9.152 -2.5065 -0.9764 -0.3850
  106OSM   C15F10882   2.402   1.118   9.075 -1.1018  0.3479  0.9455
  106OSM   H15F10883   2.506   1.150   9.096 -0.7117 -0.6995  0.6861
  106OSM   H15G10884   2.335   1.206   9.079  1.5365  2.5098  0.0670
  106OSM   C16F10885   2.404   1.062   8.931  0.0378 -0.4797 -0.1772
  106OSM   H16F10886   2.302   1.023   8.915  0.8907 -1.8364 -2.8858
  106OSM   H16G10887   2.470   0.973   8.930 -1.8497 -1.9490 -1.7291
  106OSM   C17F10888   2.437   1.174   8.828 -0.1615 -0.2246 -0.1659
  106OSM   H17F10889   2.545   1.201   8.832 -0.5919  1.7135 -0.6532
  106OSM   H17G10890   2.377   1.264   8.854 -0.4302 -0.9004  1.6493
  106OSM   C18F10891   2.427   1.121   8.683  0.1350  0.0250 -0.1589
  106OSM   H18F10892   2.321   1.091   8.672 -0.5523  1.4255  1.8651
  106OSM   H18G10893   2.502   1.040   8.670  2.1688  1.8893 -0.6856
  106OSM   H18H10894   2.445   1.194   8.601 -3.2624 -0.6444 -1.6527
  107OSM      N10895   5.551   5.686  11.128  0.1682  0.9875  0.1985
  107OSM    C1510896   5.697   5.651  11.154  0.8505 -0.2203  0.8076
  107OSM   H15A10897   5.758   5.735  11.124  1.8787 -1.6518 -1.3499
  107OSM   H15B10898   5.724   5.561  11.101  1.6405  1.4479 -1.8221
  107OSM   H15C10899   5.706   5.634  11.260 -0.8929 -3.4637  0.5585
  107OSM    C1410900   5.466   5.570  11.171 -0.3987  0.1543  0.8441
  107OSM   H14A10901   5.501   5.533  11.267 -1.2210 -1.8241  0.4436
  107OSM   H14B10902   5.492   5.494  11.099 -1.9320 -0.6566  1.0939
  107OSM   H14C10903   5.361   5.586  11.150 -0.0924 -0.3266 -1.2644
  107OSM    C1310904   5.517   5.803  11.218  0.0555  0.4363 -0.1330
  107OSM   H13A10905   5.583   5.886  11.197 -0.2381  1.0811  1.3195
  107OSM   H13B10906   5.522   5.766  11.319  0.7665  1.2055  0.1288
  107OSM   H13C10907   5.416   5.836  11.198 -0.8525 -1.6352  0.7737
  107OSM    C1210908   5.528   5.713  10.981 -0.2591 -0.1431  0.1571
  107OSM   H12A10909   5.423   5.731  10.966 -0.7756 -0.9027  2.3828
  107OSM   H12B10910   5.564   5.633  10.918  0.4517 -0.2173  0.6364
  107OSM    C1110911   5.597   5.838  10.923 -0.3601  0.6999  0.1691
  107OSM   H11A10912   5.568   5.927  10.983 -1.3343  0.6659 -0.2381
  107OSM   H11B10913   5.542   5.879  10.835  0.9481  1.5535 -0.2845
  107OSM      P10914   5.789   5.729  10.783 -0.1923 -0.9136 -0.0751
  107OSM    O1310915   5.937   5.739  10.773  0.3923 -0.2201  0.1684
  107OSM    O1410916   5.736   5.590  10.796 -0.0705 -0.2397 -0.2791
  107OSM    O1110917   5.719   5.789  10.662 -0.7276  0.7423  0.3469
  107OSM    O1210918   5.738   5.820  10.908 -0.7942 -0.0774  0.6154
  107OSM    C1S10919   5.760   5.912  10.610  0.0339  0.0141  0.0854
  107OSM    H1S10920   5.868   5.934  10.623  0.1948 -0.1293 -0.9390
  107OSM    H1T10921   5.701   5.995  10.654  0.3800 -0.1665  0.9019
  107OSM     NF10922   5.802   6.053  10.401 -0.4924  0.9474  0.2081
  107OSM    HNF10923   5.753   6.139  10.390 -0.6064  0.5628 -4.0005
  107OSM    C2S10924   5.736   5.932  10.455  0.5597  0.5278  0.6929
  107OSM    H2S10925   5.780   5.841  10.409  1.0081  0.3062  1.5509
  107OSM    C3S10926   5.587   5.929  10.416 -0.1293  0.1416 -0.9786
  107OSM    H3S10927   5.529   6.016  10.454  0.1867 -0.2642  0.4697
  107OSM     O310928   5.522   5.824  10.485  0.2795 -0.3705  0.4202
  107OSM    HO310929   5.582   5.794  10.553 -2.2845 -2.8629  1.8508
  107OSM    C4S10930   5.566   5.902  10.270 -0.8641 -0.4641  0.2293
  107OSM    H4S10931   5.571   5.793  10.255  3.0959 -0.1800 -1.9582
  107OSM    C5S10932   5.543   5.998  10.181  0.4840 -0.2034 -0.2703
  107OSM    H5S10933   5.540   6.106  10.205 -0.4204  0.0438 -1.3927
  107OSM    C6S10934   5.508   5.954  10.042 -0.1181 -0.3379  0.0203
  107OSM    H6S10935   5.408   5.993  10.013 -0.0158 -2.8760 -4.8054
  107OSM    H6T10936   5.531   5.846  10.027  2.6297  0.0353  0.9005
  107OSM    C7S10937   5.610   6.017   9.936 -0.1280  0.0430 -0.0606
  107OSM    H7S10938   5.715   5.999   9.967  0.0018  2.0253  0.8257
  107OSM    H7T10939   5.600   6.126   9.951  4.1203  0.7617 -1.1524
  107OSM    C8S10940   5.594   5.971   9.788 -0.3206  0.0901 -0.4310
  107OSM    H8S10941   5.603   5.860   9.780  0.1839  0.0895  0.0582
  107OSM    H8T10942   5.686   6.022   9.751 -0.1886  2.6784  3.0045
  107OSM    C9S10943   5.483   6.044   9.705  0.0853 -0.1573  0.1182
  107OSM    H9S10944   5.490   6.154   9.723 -1.5410  0.2404 -1.4297
  107OSM    H9T10945   5.382   6.013   9.736  0.7324 -0.3732  2.1267
  107OSM   C10S10946   5.506   6.016   9.560 -1.2090  0.5877  0.5076
  107OSM   H10S10947   5.602   6.067   9.535 -0.3683  0.3808  2.9514
  107OSM   H10T10948   5.427   6.061   9.496 -1.8378  0.4108  1.1414
  107OSM   C11S10949   5.516   5.869   9.531 -0.8251  0.1087 -0.0719
  107OSM   H11S10950   5.439   5.819   9.594 -0.5364 -0.0622  0.1464
  107OSM   H11T10951   5.614   5.832   9.568 -0.3654 -0.2410 -1.5588
  107OSM   C12S10952   5.501   5.844   9.369 -0.5336 -0.6480 -0.9487
  107OSM   H12S10953   5.419   5.912   9.336 -0.7839 -0.0735  0.7686
  107OSM   H12T10954   5.487   5.735   9.359  0.2382 -1.2404  3.0120
  107OSM   C13S10955   5.629   5.873   9.291  0.1953 -0.1323  0.1317
  107OSM   H13S10956   5.720   5.834   9.342  0.1051 -0.3509  0.1283
  107OSM   H13T10957   5.664   5.977   9.277 -0.3953 -0.0831 -1.1727
  107OSM   C14S10958   5.615   5.824   9.145  0.0194  0.5966 -0.6423
  107OSM   H14S10959   5.575   5.721   9.154  1.6636 -0.0699 -0.6175
  107OSM   H14T10960   5.714   5.804   9.099 -1.0850 -3.9021 -1.5591
  107OSM   C15S10961   5.525   5.914   9.057 -0.4008 -1.2177 -0.0986
  107OSM   H15S10962   5.571   6.015   9.061 -0.7603 -1.0589  0.0427
  107OSM   H15T10963   5.420   5.933   9.088 -1.1866 -1.0730 -2.5817
  107OSM   C16S10964   5.525   5.882   8.906  0.7183 -1.0122 -0.4497
  107OSM   H16S10965   5.479   5.780   8.902 -3.0324  0.4894 -0.1775
  107OSM   H16T10966   5.629   5.863   8.873  2.4539  1.1714  3.1792
  107OSM   C17S10967   5.448   5.991   8.832 -0.0545  0.2670 -0.1300
  107OSM   H17S10968   5.506   6.086   8.837  0.8137 -0.1399 -1.6234
  107OSM   H17T10969   5.347   6.004   8.877 -0.3855 -1.1776 -0.4041
  107OSM   C18S10970   5.420   5.954   8.686  0.9162  0.4899  0.0751
  107OSM   H18S10971   5.346   6.017   8.632 -0.7903 -2.0028 -0.6681
  107OSM   H18T10972   5.377   5.852   8.686  0.0411  0.8484 -0.0775
  107OSM   H18U10973   5.514   5.947   8.627  0.6471 -0.1361 -0.2923
  107OSM    C1F10974   5.931   6.063  10.389 -0.7236  1.0196 -0.1821
  107OSM     OF10975   6.012   5.977  10.421 -0.3318 -0.3585 -0.0413
  107OSM    C2F10976   5.984   6.193  10.342 -0.2012  1.0542 -0.0222
  107OSM    H2F10977   6.051   6.231  10.422 -1.5977 -1.1100  2.3062
  107OSM    H2G10978   5.892   6.255  10.335 -1.1371 -0.0790  1.5894
  107OSM    C3F10979   6.063   6.190  10.211  0.2055  0.1950 -0.4762
  107OSM    H3F10980   6.153   6.128  10.225  0.9971  1.5890  0.9382
  107OSM    H3G10981   6.089   6.298  10.199 -1.7092  0.9528  1.4936
  107OSM    C4F10982   5.991   6.123  10.089 -0.1401  0.3336  0.3480
  107OSM    H4F10983   5.890   6.169  10.091 -0.6143 -0.5109 -1.6865
  107OSM    H4G10984   5.984   6.017  10.123  0.6423 -0.0053 -0.4926
  107OSM    C5F10985   6.065   6.146   9.957  0.2130  0.3325  0.6375
  107OSM    H5F10986   6.153   6.079   9.944  0.1651  0.0827  1.5254
  107OSM    H5G10987   6.118   6.243   9.961  1.0939  0.0089 -1.4853
  107OSM    C6F10988   5.981   6.128   9.836 -0.0595 -0.0795 -0.2327
  107OSM    H6F10989   5.900   6.204   9.834  0.4653  0.4801 -1.4702
  107OSM    H6G10990   5.931   6.029   9.833 -2.4209  1.0573 -0.3424
  107OSM    C7F10991   6.056   6.146   9.709  0.5584  0.6429 -0.4961
  107OSM    H7F10992   6.118   6.054   9.701  3.0018  2.0138  1.0411
  107OSM    H7G10993   6.123   6.235   9.712 -0.8148  1.7833  3.4880
  107OSM    C8F10994   5.961   6.160   9.592 -0.5816 -0.3978  0.5426
  107OSM    H8F10995   5.873   6.222   9.619 -0.1197  0.6261 -0.2381
  107OSM    H8G10996   5.911   6.061   9.582  0.8335 -1.1367  0.5042
  107OSM    C9F10997   6.031   6.219   9.473 -0.0101 -0.1205  0.2411
  107OSM    H9F10998   6.056   6.325   9.489  0.1795 -0.5127  3.0738
  107OSM   C10F10999   6.075   6.157   9.357  0.5435 -0.6240 -0.0740
  107OSM   H10F11000   6.120   6.220   9.280 -2.2250 -0.4780 -1.7169
  107OSM   C11F11001   6.043   6.004   9.328  0.0393  0.8126  0.0163
  107OSM   H11F11002   5.959   5.970   9.392 -0.0643  2.8277  1.0327
  107OSM   H11G11003   6.137   5.946   9.334 -0.5056 -0.8211 -4.0927
  107OSM   C12F11004   5.981   5.984   9.188  0.2462  0.0001  0.3438
  107OSM   H12F11005   5.903   6.063   9.187  1.0819  0.8379 -0.5997
  107OSM   H12G11006   5.941   5.881   9.174 -0.3542  0.3603 -0.6714
  107OSM   C13F11007   6.079   6.018   9.061  0.0887 -0.6256  0.5492
  107OSM   H13F11008   6.137   6.110   9.083 -1.2808  0.5116 -0.4019
  107OSM   H13G11009   6.023   6.046   8.969  1.5100 -2.1206 -0.8401
  107OSM   C14F11010   6.166   5.899   9.010 -0.1310  0.1397 -0.2980
  107OSM   H14F11011   6.207   5.838   9.094  3.0635 -0.1694 -1.9535
  107OSM   H14G11012   6.249   5.961   8.971 -0.8593  1.5488  0.3235
  107OSM   C15F11013   6.130   5.827   8.883 -0.7818  0.3517 -0.0319
  107OSM   H15F11014   6.225   5.818   8.826 -0.6088  0.7427  0.1863
  107OSM   H15G11015   6.055   5.883   8.823 -1.5477 -0.3296  0.2646
  107OSM   C16F11016   6.061   5.689   8.893  0.4221  0.1526  0.4019
  107OSM   H16F11017   5.967   5.707   8.950 -0.7424  2.7562 -2.0404
  107OSM   H16G11018   6.132   5.627   8.952  1.0412 -0.6639 -1.1661
  107OSM   C17F11019   6.012   5.621   8.763  0.8895  0.2659 -0.2263
  107OSM   H17F11020   5.932   5.691   8.730  1.1482  0.6640 -0.0147
  107OSM   H17G11021   5.966   5.521   8.777 -2.5353  1.9486  1.7898
  107OSM   C18F11022   6.134   5.606   8.661  0.6849  1.0121  0.3225
  107OSM   H18F11023   6.178   5.707   8.644 -0.9558  1.4881 -1.3929
  107OSM   H18G11024   6.092   5.565   8.567 -0.5121 -0.5375  1.4809
  107OSM   H18H11025   6.204   5.535   8.709 -0.6385 -0.1204  0.6252
  108OSM      N11026   2.406   6.435  10.895 -0.5275  0.3907  0.2286
  108OSM    C1511027   2.489   6.560  10.912  0.0332  0.0877  0.8189
  108OSM   H15A11028   2.441   6.639  10.967  0.0445  1.0973 -0.5493
  108OSM   H15B11029   2.532   6.606  10.824  0.1076 -0.4612  0.5645
  108OSM   H15C11030   2.572   6.537  10.977 -0.8670  0.5447  2.1661
  108OSM    C1411031   2.393   6.348  11.019  0.2402 -0.4438 -0.3271
  108OSM   H14A11032   2.338   6.257  11.002 -0.8402  0.3228 -1.0750
  108OSM   H14B11033   2.340   6.403  11.095 -0.7826 -1.9795  0.1216
  108OSM   H14C11034   2.490   6.326  11.061  0.5926  0.0633 -0.8636
  108OSM    C1311035   2.264   6.461  10.854  0.0119  0.4012  0.0084
  108OSM   H13A11036   2.225   6.367  10.817  2.4337 -1.5753  2.0889
  108OSM   H13B11037   2.267   6.530  10.771  0.1957  0.5774  0.1620
  108OSM   H13C11038   2.204   6.503  10.932  1.6309 -0.1111  1.5942
  108OSM    C1211039   2.480   6.347  10.798  0.3264 -0.4381 -0.6940
  108OSM   H12A11040   2.437   6.249  10.799  0.6174 -0.5858  0.9412
  108OSM   H12B11041   2.575   6.315  10.839  0.4513 -0.2060 -0.7934
  108OSM    C1111042   2.497   6.404  10.660  0.5228 -0.3912 -0.3408
  108OSM   H11A11043   2.417   6.472  10.624  1.1424  0.1239 -0.7815
  108OSM   H11B11044   2.508   6.312  10.599  1.1608 -1.0373  0.7025
  108OSM      P11045   2.756   6.425  10.635 -0.1584 -0.1134 -0.1615
  108OSM    O1311046   2.854   6.538  10.622 -0.0131 -0.8297 -0.2332
  108OSM    O1411047   2.765   6.336  10.754 -0.9020 -0.1436 -0.1361
  108OSM    O1111048   2.759   6.344  10.503  0.0185  0.0546 -0.0737
  108OSM    O1211049   2.611   6.487  10.642  0.5585  0.1203  0.3995
  108OSM    C1S11050   2.712   6.397  10.386 -0.0350 -0.0304  0.6974
  108OSM    H1S11051   2.759   6.494  10.359 -0.4401  0.4736  1.7565
  108OSM    H1T11052   2.609   6.436  10.400 -0.0922  0.4511 -0.8273
  108OSM     NF11053   2.655   6.365  10.154  0.1803  0.4067 -0.0136
  108OSM    HNF11054   2.557   6.349  10.141  0.0628  2.2262 -1.8356
  108OSM    C2S11055   2.703   6.296  10.274  0.0184 -0.2613  0.1345
  108OSM    H2S11056   2.803   6.255  10.250  0.1085 -0.5919  1.0284
  108OSM    C3S11057   2.607   6.179  10.314 -0.1025 -0.4910 -0.2496
  108OSM    H3S11058   2.507   6.222  10.332 -0.4605 -1.6906  0.8267
  108OSM     O311059   2.639   6.122  10.445 -0.1588 -0.1250 -0.1464
  108OSM    HO311060   2.699   6.186  10.481 -0.5036  0.5322 -0.7196
  108OSM    C4S11061   2.584   6.081  10.201  0.6070  0.0814  0.1028
  108OSM    H4S11062   2.508   6.108  10.125  1.4744  0.3157 -0.6958
  108OSM    C5S11063   2.631   5.957  10.189 -0.9692  0.1639 -0.0527
  108OSM    H5S11064   2.682   5.924  10.281  1.5669  1.6868 -0.8123
  108OSM    C6S11065   2.602   5.850  10.086  0.3319  0.0292  0.0492
  108OSM    H6S11066   2.544   5.762  10.122  1.0910 -0.7410 -0.5708
  108OSM    H6T11067   2.697   5.822  10.035  0.7618  1.2013  0.1671
  108OSM    C7S11068   2.513   5.913   9.973  0.0837  0.0127 -0.0514
  108OSM    H7S11069   2.566   5.994   9.917 -1.1897 -1.1375 -3.1521
  108OSM    H7T11070   2.411   5.947   9.999 -0.1669 -0.4795 -0.3896
  108OSM    C8S11071   2.496   5.812   9.853  0.4918  0.8696 -0.0698
  108OSM    H8S11072   2.453   5.713   9.881 -0.3716  0.8178 -1.5078
  108OSM    H8T11073   2.599   5.798   9.813  0.6427 -2.2754  1.0718
  108OSM    C9S11074   2.405   5.872   9.743  0.3703  0.1212 -0.2446
  108OSM    H9S11075   2.438   5.977   9.727 -1.2488  0.3628 -2.3908
  108OSM    H9T11076   2.304   5.877   9.790 -0.5078 -5.1102 -1.0186
  108OSM   C10S11077   2.416   5.784   9.613 -0.0525  0.0360 -0.5877
  108OSM   H10S11078   2.438   5.678   9.638 -1.1362  0.4198  2.3817
  108OSM   H10T11079   2.496   5.832   9.553 -0.8519  0.3481 -1.4240
  108OSM   C11S11080   2.289   5.799   9.533  0.2453 -0.8684  0.2025
  108OSM   H11S11081   2.261   5.905   9.516  1.2586 -0.8630 -1.7929
  108OSM   H11T11082   2.204   5.757   9.591 -0.3631  0.4575  0.3106
  108OSM   C12S11083   2.292   5.730   9.397 -0.4816  0.3958 -0.2298
  108OSM   H12S11084   2.190   5.722   9.355 -1.7367  2.3876  2.2201
  108OSM   H12T11085   2.337   5.630   9.418  1.0309  0.6911 -1.7719
  108OSM   C13S11086   2.384   5.803   9.293  0.0082 -0.4197 -0.2589
  108OSM   H13S11087   2.483   5.781   9.339  0.2405  0.4803 -0.3033
  108OSM   H13T11088   2.370   5.913   9.279 -0.3241 -0.3516  0.5729
  108OSM   C14S11089   2.373   5.730   9.166  0.2044 -0.0492  0.4634
  108OSM   H14S11090   2.264   5.740   9.144  0.2307 -0.8151 -0.0506
  108OSM   H14T11091   2.402   5.623   9.178 -2.0944 -0.7251  0.6403
  108OSM   C15S11092   2.462   5.778   9.052 -0.0380  0.0646  0.2596
  108OSM   H15S11093   2.569   5.771   9.083  0.1611 -2.1747 -0.6970
  108OSM   H15T11094   2.428   5.883   9.036 -0.3168  0.1747  1.5023
  108OSM   C16S11095   2.454   5.688   8.929  0.0471  0.3325  0.0225
  108OSM   H16S11096   2.468   5.584   8.965 -2.7963 -0.2835 -0.3853
  108OSM   H16T11097   2.544   5.715   8.869  0.8877  0.6171  1.3647
  108OSM   C17S11098   2.323   5.700   8.861 -0.2482 -0.3981 -0.0731
  108OSM   H17S11099   2.297   5.806   8.839  1.2072 -0.0666 -0.3174
  108OSM   H17T11100   2.255   5.670   8.943  0.8737 -1.7683  0.4083
  108OSM   C18S11101   2.300   5.600   8.742  0.2667  0.3328  0.0186
  108OSM   H18S11102   2.331   5.498   8.772  2.5763  0.1352 -2.7041
  108OSM   H18T11103   2.358   5.624   8.651 -2.1682  1.8102 -1.2460
  108OSM   H18U11104   2.196   5.604   8.703  1.0809  0.3776 -2.2763
  108OSM    C1F11105   2.716   6.453  10.080  1.3710 -0.3842 -0.3590
  108OSM     OF11106   2.832   6.478  10.104  0.1582 -0.4714 -0.0825
  108OSM    C2F11107   2.626   6.493   9.970  0.3644  0.0969 -0.1884
  108OSM    H2F11108   2.535   6.531  10.023  1.4956 -2.1246  3.6868
  108OSM    H2G11109   2.594   6.406   9.909 -2.3526 -0.4530  1.8188
  108OSM    C3F11110   2.681   6.596   9.874 -0.0965 -1.0462 -0.9576
  108OSM    H3F11111   2.765   6.558   9.813  1.4857  0.3150  0.2881
  108OSM    H3G11112   2.713   6.691   9.922  0.6494 -0.8363 -1.8381
  108OSM    C4F11113   2.581   6.629   9.764 -0.2982  0.1408  0.1357
  108OSM    H4F11114   2.478   6.643   9.802 -0.2683 -0.2024  0.3471
  108OSM    H4G11115   2.580   6.542   9.694 -0.3814  0.9875 -0.9317
  108OSM    C5F11116   2.619   6.747   9.676  0.6568 -0.1732  0.3722
  108OSM    H5F11117   2.717   6.726   9.629  0.0132 -2.2672 -0.1206
  108OSM    H5G11118   2.626   6.838   9.739  1.2187 -0.1321  0.2537
  108OSM    C6F11119   2.514   6.787   9.564 -0.3816  0.4490  0.9819
  108OSM    H6F11120   2.562   6.863   9.498  0.0998 -0.0038  0.8082
  108OSM    H6G11121   2.424   6.826   9.617 -0.2246  0.4576  1.2430
  108OSM    C7F11122   2.458   6.677   9.470 -0.2515 -0.9094 -0.0809
  108OSM    H7F11123   2.348   6.697   9.470  0.0008  0.9710  3.1600
  108OSM    H7G11124   2.462   6.574   9.511 -3.7848 -0.5527  1.5068
  108OSM    C8F11125   2.498   6.695   9.325  0.2778  1.0790 -0.5460
  108OSM    H8F11126   2.468   6.795   9.290 -3.0183  1.2103  2.1870
  108OSM    H8G11127   2.444   6.629   9.254 -1.2719  1.1208  0.5492
  108OSM    C9F11128   2.648   6.658   9.316 -0.4055 -0.5583 -0.4576
  108OSM    H9F11129   2.684   6.567   9.366  1.5264 -0.2576 -1.2116
  108OSM   C10F11130   2.734   6.715   9.236 -0.5361 -0.4376 -0.3659
  108OSM   H10F11131   2.841   6.686   9.239 -0.1754  0.8638  0.3116
  108OSM   C11F11132   2.696   6.839   9.158 -0.6445  0.3424 -0.1459
  108OSM   H11F11133   2.697   6.934   9.216  3.0286  0.6173 -0.3986
  108OSM   H11G11134   2.600   6.825   9.105  0.2998 -1.0576 -1.5721
  108OSM   C12F11135   2.804   6.857   9.047 -0.1309  0.2160 -0.1664
  108OSM   H12F11136   2.901   6.870   9.099 -0.2051  1.0646 -0.2162
  108OSM   H12G11137   2.788   6.955   8.997  0.3558  1.1991  1.5214
  108OSM   C13F11138   2.808   6.742   8.941  0.3141  0.7662  0.8542
  108OSM   H13F11139   2.698   6.732   8.924  0.1081 -0.3372  2.5312
  108OSM   H13G11140   2.846   6.651   8.993 -0.1375 -1.7713 -2.8649
  108OSM   C14F11141   2.896   6.765   8.821 -0.0264  0.6373 -0.0318
  108OSM   H14F11142   2.905   6.671   8.764  4.2748  0.3717  0.6973
  108OSM   H14G11143   3.002   6.767   8.854 -0.3797 -0.9308  1.3532
  108OSM   C15F11144   2.866   6.890   8.737 -0.0461 -0.0466 -0.7286
  108OSM   H15F11145   2.872   6.973   8.811  0.1791  0.6228 -1.4806
  108OSM   H15G11146   2.762   6.885   8.699 -1.3659  0.6540  2.4227
  108OSM   C16F11147   2.957   6.921   8.615 -0.4143 -0.5970  0.2318
  108OSM   H16F11148   2.900   7.001   8.563 -1.0422  0.6370  2.6627
  108OSM   H16G11149   2.948   6.827   8.555 -0.8513 -1.3318  1.4090
  108OSM   C17F11150   3.103   6.944   8.653 -0.3389 -0.3573  0.4352
  108OSM   H17F11151   3.147   6.849   8.690  1.3269  0.8710  1.8017
  108OSM   H17G11152   3.101   7.014   8.739 -1.0312  0.3304 -0.1297
  108OSM   C18F11153   3.192   6.997   8.546  0.7569  0.0116 -0.0513
  108OSM   H18F11154   3.152   7.081   8.485 -0.6345 -0.7818 -0.2894
  108OSM   H18G11155   3.211   6.914   8.475  0.1171 -1.6481  1.6310
  108OSM   H18H11156   3.293   7.016   8.587  2.1911 -1.7685 -2.5126
  109OSM      N11157   0.668   4.751  10.941 -0.0479  0.1020  0.3078
  109OSM    C1511158   0.639   4.603  10.961 -0.2520 -0.3761 -0.2169
  109OSM   H15A11159   0.719   4.537  10.931  0.3058  0.8835 -1.6109
  109OSM   H15B11160   0.543   4.577  10.918 -0.5222  1.9829 -1.1473
  109OSM   H15C11161   0.628   4.600  11.069  1.0244  0.1173 -0.0603
  109OSM    C1411162   0.554   4.827  10.996  0.9132  0.2241 -0.4462
  109OSM   H14A11163   0.459   4.810  10.949 -0.3591  0.7844  1.8155
  109OSM   H14B11164   0.575   4.932  10.986  1.2678  0.5012  2.4950
  109OSM   H14C11165   0.540   4.813  11.102 -1.2055  1.7938 -0.4653
  109OSM    C1311166   0.795   4.796  11.018  0.1055  0.3632 -0.1454
  109OSM   H13A11167   0.785   4.800  11.125  1.3709 -2.4175  0.1590
  109OSM   H13B11168   0.822   4.892  10.976  0.4140 -0.3740 -1.7317
  109OSM   H13C11169   0.871   4.721  11.003 -0.5323 -0.2142 -0.5474
  109OSM    C1211170   0.682   4.780  10.796  0.3466 -0.6164 -0.1556
  109OSM   H12A11171   0.590   4.740  10.759  0.1294 -1.4025  1.1587
  109OSM   H12B11172   0.764   4.722  10.755 -0.4854 -1.3100 -0.8566
  109OSM    C1111173   0.708   4.930  10.758  0.3352  0.1798  0.2310
  109OSM   H11A11174   0.753   4.930  10.656  1.7255 -1.4476  0.8015
  109OSM   H11B11175   0.780   4.981  10.826  0.3413  1.2393 -0.5380
  109OSM      P11176   0.472   4.992  10.656  0.1517 -0.3281  0.3747
  109OSM    O1311177   0.449   4.846  10.644  0.3779 -0.3218 -0.5731
  109OSM    O1411178   0.355   5.081  10.693 -0.2186 -0.0358  1.1797
  109OSM    O1111179   0.525   5.049  10.522 -0.1065 -0.4480 -0.0128
  109OSM    O1211180   0.588   5.009  10.755 -0.5354 -0.4481  0.0508
  109OSM    C1S11181   0.466   5.016  10.397 -0.4786  0.0187 -0.5489
  109OSM    H1S11182   0.391   5.094  10.373 -1.6825 -1.0882 -0.4981
  109OSM    H1T11183   0.417   4.916  10.400 -0.6782  0.1412  1.6435
  109OSM     NF11184   0.496   5.001  10.146 -0.2933 -0.7009 -0.1239
  109OSM    HNF11185   0.508   4.925  10.082  0.5791  1.2317 -2.3735
  109OSM    C2S11186   0.561   5.007  10.275  0.3082  0.4825 -0.0286
  109OSM    H2S11187   0.618   5.102  10.282 -1.9404  2.1573 -2.5627
  109OSM    C3S11188   0.664   4.881  10.304 -0.2521 -0.1979 -0.2057
  109OSM    H3S11189   0.605   4.793  10.340 -0.6607  0.8142  1.7754
  109OSM     O311190   0.756   4.900  10.413  0.1350 -0.4657  0.0263
  109OSM    HO311191   0.723   4.969  10.472  2.1922  0.7014 -0.0683
  109OSM    C4S11192   0.747   4.847  10.190  0.1372  0.5099  0.1208
  109OSM    H4S11193   0.829   4.918  10.171 -0.0768  0.4181 -1.2594
  109OSM    C5S11194   0.735   4.738  10.106 -0.7095 -0.8243 -0.4857
  109OSM    H5S11195   0.677   4.646  10.124  0.3639 -1.3724  0.2875
  109OSM    C6S11196   0.839   4.725   9.994 -1.0653 -0.1723  0.2860
  109OSM    H6S11197   0.882   4.622   9.993 -2.3284 -0.7245 -0.3108
  109OSM    H6T11198   0.930   4.786  10.011  0.6561 -2.2983 -0.8070
  109OSM    C7S11199   0.781   4.774   9.862  0.3772  0.1355  0.7518
  109OSM    H7S11200   0.717   4.865   9.861 -0.0409 -0.1572  0.6040
  109OSM    H7T11201   0.696   4.710   9.830 -0.6488  1.2668  1.1036
  109OSM    C8S11202   0.885   4.782   9.748 -0.0508  0.1578 -0.0087
  109OSM    H8S11203   0.928   4.680   9.735  0.7528  0.4102  0.6128
  109OSM    H8T11204   0.964   4.851   9.784  1.3286 -0.1997 -2.1962
  109OSM    C9S11205   0.821   4.832   9.614  0.1681  0.2502 -0.1125
  109OSM    H9S11206   0.783   4.937   9.622 -2.2790 -0.4024 -1.8685
  109OSM    H9T11207   0.746   4.755   9.586  1.4923 -1.1593  0.1069
  109OSM   C10S11208   0.925   4.848   9.503  0.0496  0.3331  0.5888
  109OSM   H10S11209   0.953   4.741   9.488 -0.2781  0.2483  0.5845
  109OSM   H10T11210   1.013   4.904   9.543  0.2718 -0.2580  0.9546
  109OSM   C11S11211   0.866   4.909   9.368  0.0689  0.3647  0.5200
  109OSM   H11S11212   0.823   5.011   9.379  0.6976  0.7102 -0.1117
  109OSM   H11T11213   0.787   4.841   9.329  1.7463 -1.5506  0.2420
  109OSM   C12S11214   0.978   4.927   9.265  0.0728  0.1582  0.3575
  109OSM   H12S11215   1.027   4.828   9.267 -3.0137 -1.4592  1.2653
  109OSM   H12T11216   1.041   5.010   9.305 -0.6779  1.7340 -1.5815
  109OSM   C13S11217   0.921   4.957   9.125  0.3582  0.6331 -0.7458
  109OSM   H13S11218   0.864   5.052   9.131  3.1011  2.2965  0.8902
  109OSM   H13T11219   0.853   4.872   9.103 -0.3348  0.7785  0.6949
  109OSM   C14S11220   1.036   4.970   9.018  1.6967  0.3812 -0.3854
  109OSM   H14S11221   1.091   4.874   9.016  0.5994 -0.4688  2.8489
  109OSM   H14T11222   1.107   5.053   9.039  1.5395  0.8480 -1.6188
  109OSM   C15S11223   0.987   5.003   8.878 -0.4634 -0.5585 -0.1112
  109OSM   H15S11224   1.069   4.966   8.812 -0.2308  0.5526 -0.4651
  109OSM   H15T11225   0.970   5.113   8.874 -1.0095 -0.6787 -1.8689
  109OSM   C16S11226   0.853   4.935   8.837 -0.2734 -0.4397 -0.1502
  109OSM   H16S11227   0.764   4.976   8.889  0.4037  0.1583  0.5549
  109OSM   H16T11228   0.853   4.826   8.859  1.0493 -0.5806 -0.7334
  109OSM   C17S11229   0.828   4.937   8.686  0.9671  0.1404  0.4039
  109OSM   H17S11230   0.920   4.897   8.639  1.1851  2.7444 -1.5898
  109OSM   H17T11231   0.833   5.043   8.654  0.5412 -0.3710 -1.4904
  109OSM   C18S11232   0.699   4.884   8.633  0.2002 -0.2734 -0.0339
  109OSM   H18S11233   0.675   4.780   8.662  2.0558 -0.6219  0.3958
  109OSM   H18T11234   0.699   4.878   8.522  1.1723 -2.7010  0.0378
  109OSM   H18U11235   0.626   4.959   8.671 -0.5525  0.2255 -2.3007
  109OSM    C1F11236   0.428   5.107  10.107  0.6202 -0.7759 -0.7248
  109OSM     OF11237   0.428   5.215  10.175 -0.5700 -0.1828 -0.0949
  109OSM    C2F11238   0.359   5.103   9.970 -0.0154 -0.2284 -0.1011
  109OSM    H2F11239   0.391   5.017   9.906 -0.1493 -0.9809  0.8177
  109OSM    H2G11240   0.382   5.192   9.909 -0.3341  0.5581  0.8996
  109OSM    C3F11241   0.209   5.088  10.012 -0.6303 -0.1371  0.0999
  109OSM    H3F11242   0.177   5.159  10.091 -2.5990  0.3119 -1.0490
  109OSM    H3G11243   0.179   4.992  10.060  0.4173 -1.2935 -1.4326
  109OSM    C4F11244   0.117   5.101   9.887  0.3098  0.5040  0.0406
  109OSM    H4F11245   0.142   5.192   9.828  1.8543  0.6120  0.8233
  109OSM    H4G11246   0.017   5.114   9.933 -0.1350  0.6025 -0.9190
  109OSM    C5F11247   0.126   4.971   9.806 -0.5349 -0.0065 -0.1211
  109OSM    H5F11248   0.132   4.882   9.873 -0.9192  0.8164  1.0511
  109OSM    H5G11249   0.221   4.971   9.750 -0.9875 -2.4788 -1.0344
  109OSM    C6F11250   0.020   4.944   9.703  0.1318 -0.1657 -0.7225
  109OSM    H6F11251  -0.068   4.900   9.754  0.1204 -0.5300 -1.0486
  109OSM    H6G11252   0.049   4.865   9.630  0.6152  0.9199 -1.7460
  109OSM    C7F11253  -0.016   5.074   9.621  0.6621  0.7414 -0.4704
  109OSM    H7F11254   0.086   5.097   9.583  0.4539  1.2077 -0.7568
  109OSM    H7G11255  -0.053   5.161   9.680 -1.3665 -0.6721  0.4803
  109OSM    C8F11256  -0.100   5.043   9.502  0.2742  0.1825  0.1612
  109OSM    H8F11257  -0.067   4.950   9.452 -1.4126  1.6182 -4.0329
  109OSM    H8G11258  -0.082   5.116   9.421  1.4674 -0.0398  0.2177
  109OSM    C9F11259  -0.246   5.042   9.534 -0.3240 -0.3927 -0.3851
  109OSM    H9F11260  -0.275   4.988   9.625  1.9452  0.7810  1.1416
  109OSM   C10F11261  -0.343   5.113   9.464  0.0669  0.1012 -0.2452
  109OSM   H10F11262  -0.448   5.101   9.497 -1.3486 -1.7498 -4.6577
  109OSM   C11F11263  -0.333   5.202   9.345 -0.0951  0.0313 -0.9208
  109OSM   H11F11264  -0.229   5.227   9.318  0.5320 -0.5634  0.7934
  109OSM   H11G11265  -0.372   5.305   9.365  0.6657  0.0726  0.4785
  109OSM   C12F11266  -0.393   5.133   9.220  0.3064 -0.0780  0.3196
  109OSM   H12F11267  -0.491   5.083   9.237  0.1777  0.4221  1.1128
  109OSM   H12G11268  -0.312   5.057   9.212  0.2601 -0.2322  1.2420
  109OSM   C13F11269  -0.401   5.218   9.091  0.1775 -0.0388  0.1003
  109OSM   H13F11270  -0.300   5.246   9.054  0.9074 -0.3861  1.7472
  109OSM   H13G11271  -0.460   5.313   9.099 -0.4038 -0.4932  1.6386
  109OSM   C14F11272  -0.475   5.154   8.972  0.0060  0.0627  0.6543
  109OSM   H14F11273  -0.584   5.140   8.992  0.4333  0.0395  3.2099
  109OSM   H14G11274  -0.429   5.054   8.968  2.1534  1.0270 -0.5690
  109OSM   C15F11275  -0.462   5.227   8.834  0.2739 -0.3708 -0.5801
  109OSM   H15F11276  -0.356   5.232   8.801 -0.3540  1.0342 -2.6059
  109OSM   H15G11277  -0.502   5.330   8.845  0.7874 -0.1534 -0.6829
  109OSM   C16F11278  -0.534   5.160   8.713  0.4065  0.2792  0.0176
  109OSM   H16F11279  -0.641   5.155   8.743  0.5269 -0.1574  0.3845
  109OSM   H16G11280  -0.511   5.053   8.698 -1.3384 -0.1877  0.3781
  109OSM   C17F11281  -0.529   5.243   8.582 -0.3506 -0.3364 -0.0682
  109OSM   H17F11282  -0.589   5.334   8.604  0.7539  0.3442  0.1633
  109OSM   H17G11283  -0.584   5.190   8.501 -0.5722 -0.4307  0.1403
  109OSM   C18F11284  -0.386   5.287   8.547 -0.1655  0.6707 -0.2674
  109OSM   H18F11285  -0.320   5.199   8.532 -0.9324 -0.1552  1.0221
  109OSM   H18G11286  -0.344   5.349   8.629  0.3330 -0.0442  0.0271
  109OSM   H18H11287  -0.396   5.342   8.451 -0.7760  1.2454  0.1232
  110OSM      N11288   2.901   2.662  11.256  0.5604  0.0702  0.1100
  110OSM    C1511289   2.880   2.625  11.404 -0.7630 -0.0306 -0.0273
  110OSM   H15A11290   2.780   2.591  11.424 -0.4269  0.5082  2.9975
  110OSM   H15B11291   2.890   2.717  11.460 -0.5536 -0.1452  0.1269
  110OSM   H15C11292   2.953   2.556  11.444 -0.0226  0.4540 -0.5090
  110OSM    C1411293   2.777   2.728  11.199  0.3194 -0.5253 -0.1674
  110OSM   H14A11294   2.812   2.755  11.100  2.6435 -0.7064  0.5360
  110OSM   H14B11295   2.739   2.807  11.262  2.0414 -1.7123  2.5407
  110OSM   H14C11296   2.693   2.661  11.189 -1.0469  1.2134 -0.6928
  110OSM    C1311297   3.023   2.748  11.237  0.2867  0.7436 -0.2310
  110OSM   H13A11298   3.113   2.692  11.262  0.4977 -0.1806 -2.8155
  110OSM   H13B11299   3.017   2.839  11.295 -0.7017 -0.0082  0.9011
  110OSM   H13C11300   3.046   2.766  11.133  2.7399 -0.1402  0.0859
  110OSM    C1211301   2.927   2.530  11.179 -0.0417 -1.0636  0.1501
  110OSM   H12A11302   3.024   2.495  11.210 -0.0811 -1.1698  0.1530
  110OSM   H12B11303   2.945   2.554  11.075 -0.8412 -0.1425  0.2116
  110OSM    C1111304   2.828   2.416  11.193 -0.2205 -0.2244  0.3342
  110OSM   H11A11305   2.802   2.408  11.300 -1.5302  2.2933  0.2927
  110OSM   H11B11306   2.879   2.326  11.153  0.8098 -0.2541  1.6430
  110OSM      P11307   2.649   2.385  10.988  0.1159  0.1304 -0.2625
  110OSM    O1311308   2.646   2.241  11.008  0.7816 -0.5222 -0.7059
  110OSM    O1411309   2.531   2.449  10.933 -0.0326  0.1544 -0.0509
  110OSM    O1111310   2.779   2.417  10.900  0.6696 -0.1481  0.3763
  110OSM    O1211311   2.703   2.451  11.121  0.5056  0.3023  0.0067
  110OSM    C1S11312   2.778   2.376  10.762  0.0390  0.5380  0.2940
  110OSM    H1S11313   2.692   2.309  10.739 -0.7700  1.1237  1.5145
  110OSM    H1T11314   2.865   2.311  10.737 -0.6055 -0.1901 -0.0846
  110OSM     NF11315   2.748   2.441  10.533 -0.5263 -1.0375 -0.1331
  110OSM    HNF11316   2.835   2.429  10.486  0.7706 -1.0785  2.1486
  110OSM    C2S11317   2.765   2.496  10.668  0.1056 -0.0693  0.2633
  110OSM    H2S11318   2.668   2.548  10.686 -0.2661  0.6688 -3.1697
  110OSM    C3S11319   2.883   2.593  10.691  0.6317 -0.0106 -0.3425
  110OSM    H3S11320   2.984   2.554  10.666  0.2348 -0.9370 -0.5460
  110OSM     O311321   2.893   2.651  10.819 -0.2344  0.1730 -0.0878
  110OSM    HO311322   2.854   2.577  10.865 -0.6490 -0.6823 -1.7329
  110OSM    C4S11323   2.856   2.710  10.594  0.3281  0.3971 -0.3786
  110OSM    H4S11324   2.756   2.755  10.599  0.5366  1.1875 -2.3863
  110OSM    C5S11325   2.928   2.760  10.494 -0.7610 -0.6293  0.3239
  110OSM    H5S11326   3.021   2.709  10.463 -1.5401 -0.9924 -1.5673
  110OSM    C6S11327   2.876   2.869  10.405 -0.1335  0.0903  1.0620
  110OSM    H6S11328   2.917   2.969  10.430 -0.7254  0.5202  0.3667
  110OSM    H6T11329   2.765   2.878  10.404 -0.4261 -2.0496 -1.9283
  110OSM    C7S11330   2.914   2.836  10.259 -0.3835  0.6835  0.1280
  110OSM    H7S11331   3.023   2.814  10.259 -0.6469 -0.8075  1.3449
  110OSM    H7T11332   2.894   2.914  10.183 -0.5315  1.5394  1.0391
  110OSM    C8S11333   2.851   2.700  10.203 -0.3716 -0.4849 -0.9982
  110OSM    H8S11334   2.741   2.717  10.202 -0.3487 -0.3324 -2.5115
  110OSM    H8T11335   2.865   2.614  10.272 -2.9437  0.1505  0.4627
  110OSM    C9S11336   2.895   2.670  10.060 -0.1430  0.0245 -0.0365
  110OSM    H9S11337   2.850   2.570  10.041  1.3418 -0.4646 -1.0950
  110OSM    H9T11338   3.004   2.656  10.045 -0.0967 -0.6519  0.8663
  110OSM   C10S11339   2.860   2.770   9.946  0.0225  0.3884 -0.4634
  110OSM   H10S11340   2.919   2.863   9.962 -0.5564  0.6189  0.3839
  110OSM   H10T11341   2.755   2.797   9.971 -0.0688 -0.5836  0.2795
  110OSM   C11S11342   2.873   2.709   9.805 -0.1620  0.4154 -0.3079
  110OSM   H11S11343   2.825   2.610   9.790  2.1826 -0.5329 -2.2639
  110OSM   H11T11344   2.980   2.680   9.792 -0.1968 -0.1742  0.5965
  110OSM   C12S11345   2.839   2.801   9.697 -0.1067  0.1855  0.1037
  110OSM   H12S11346   2.902   2.893   9.693 -0.9946  0.8307  0.5540
  110OSM   H12T11347   2.731   2.820   9.713 -0.2026  2.3236 -2.3538
  110OSM   C13S11348   2.857   2.741   9.558  1.3624 -0.2118  0.1890
  110OSM   H13S11349   2.780   2.662   9.548  0.1903  0.7122  1.5377
  110OSM   H13T11350   2.959   2.699   9.544  1.5950 -0.1741  1.6003
  110OSM   C14S11351   2.833   2.848   9.454  0.2119  0.2886  0.2732
  110OSM   H14S11352   2.900   2.936   9.447 -1.9352  1.8897 -2.8497
  110OSM   H14T11353   2.734   2.894   9.472  0.1409 -0.1842  1.1503
  110OSM   C15S11354   2.821   2.782   9.307 -0.5368 -0.1786  0.4745
  110OSM   H15S11355   2.759   2.690   9.314  0.0709 -0.6294  0.0039
  110OSM   H15T11356   2.916   2.732   9.279  0.8678  1.6426  1.8113
  110OSM   C16S11357   2.767   2.869   9.193  0.1271  0.3927  0.2173
  110OSM   H16S11358   2.669   2.919   9.203  0.1925  0.3236  1.3418
  110OSM   H16T11359   2.759   2.800   9.106  2.1587  0.9322 -0.4511
  110OSM   C17S11360   2.866   2.977   9.143 -0.2465 -0.1534 -0.0043
  110OSM   H17S11361   2.954   2.922   9.104  0.2778  1.0014 -0.4891
  110OSM   H17T11362   2.904   3.047   9.220 -0.9623 -0.0738  0.2821
  110OSM   C18S11363   2.819   3.057   9.019 -0.2693  0.2036 -0.2689
  110OSM   H18S11364   2.730   3.116   9.048 -0.1198  0.1174  0.3874
  110OSM   H18T11365   2.790   2.981   8.943  0.7568 -0.9240  0.4353
  110OSM   H18U11366   2.902   3.123   8.985 -0.6717  0.5515 -0.5871
  110OSM    C1F11367   2.637   2.389  10.488 -0.8519  0.2577 -0.1420
  110OSM     OF11368   2.541   2.375  10.562 -0.0903  0.0485 -0.6633
  110OSM    C2F11369   2.630   2.349  10.344  0.1707 -0.2092 -0.3291
  110OSM    H2F11370   2.730   2.328  10.301 -0.1305 -0.4132 -0.9480
  110OSM    H2G11371   2.586   2.434  10.287 -1.7051 -1.1473 -0.3726
  110OSM    C3F11372   2.555   2.213  10.322  0.2628 -0.4541 -0.4383
  110OSM    H3F11373   2.454   2.224  10.367  0.7799 -1.3428  1.0326
  110OSM    H3G11374   2.606   2.130  10.374  0.2854  0.2398  0.6841
  110OSM    C4F11375   2.534   2.191  10.169  0.0460 -0.2094  0.2152
  110OSM    H4F11376   2.487   2.289  10.148  1.2691  0.1390 -1.0238
  110OSM    H4G11377   2.454   2.115  10.154  0.2304 -0.4024  0.1949
  110OSM    C5F11378   2.656   2.183  10.080  0.0926  0.0918 -0.3633
  110OSM    H5F11379   2.730   2.108  10.116 -0.8556 -2.0803 -2.6497
  110OSM    H5G11380   2.715   2.277  10.083 -2.0650  1.5017 -0.2999
  110OSM    C6F11381   2.628   2.158   9.938 -0.8986 -0.7068 -0.0729
  110OSM    H6F11382   2.724   2.184   9.889 -0.2372  0.0654  1.5755
  110OSM    H6G11383   2.558   2.233   9.896  0.2060 -0.7003 -2.0741
  110OSM    C7F11384   2.593   2.016   9.906  0.0091  0.6958  0.3226
  110OSM    H7F11385   2.504   1.978   9.959  0.3965  0.6371  0.9377
  110OSM    H7G11386   2.678   1.953   9.941 -0.0895  1.0287  1.1773
  110OSM    C8F11387   2.570   2.001   9.757  0.2866 -0.1943  0.5632
  110OSM    H8F11388   2.656   2.037   9.698 -0.1799 -0.0808 -0.0624
  110OSM    H8G11389   2.493   2.074   9.723  1.7302 -0.3046 -3.4499
  110OSM    C9F11390   2.526   1.865   9.722  0.8126  0.6402  0.0758
  110OSM    H9F11391   2.478   1.811   9.805  1.7427 -1.3915 -0.6280
  110OSM   C10F11392   2.544   1.794   9.606  0.0434 -0.4402 -0.3390
  110OSM   H10F11393   2.507   1.690   9.602  0.6345 -0.6441 -0.6250
  110OSM   C11F11394   2.600   1.841   9.472  0.4094 -0.2449  0.2175
  110OSM   H11F11395   2.622   1.752   9.409 -1.7286  1.7688 -3.7787
  110OSM   H11G11396   2.685   1.910   9.486 -0.0470  0.4472 -0.3858
  110OSM   C12F11397   2.492   1.916   9.399 -0.0776 -0.4254  0.0036
  110OSM   H12F11398   2.425   1.971   9.468 -0.5353 -0.0799 -0.7044
  110OSM   H12G11399   2.437   1.838   9.342 -1.0012  1.1609 -1.3613
  110OSM   C13F11400   2.537   2.009   9.292 -0.8638 -0.6949  0.5175
  110OSM   H13F11401   2.603   2.090   9.331  0.2874 -0.5099 -1.6570
  110OSM   H13G11402   2.444   2.058   9.256 -0.7834 -0.7035  0.2922
  110OSM   C14F11403   2.612   1.944   9.176 -0.1458 -0.0325  0.2320
  110OSM   H14F11404   2.554   1.856   9.139  1.0119 -0.9883  0.6221
  110OSM   H14G11405   2.714   1.909   9.203 -0.6877 -0.4798  1.8074
  110OSM   C15F11406   2.619   2.047   9.066  0.0093  0.2978  0.3429
  110OSM   H15F11407   2.665   2.141   9.103 -2.5033  1.7206  0.1456
  110OSM   H15G11408   2.513   2.077   9.050 -0.5970 -0.6842  2.2644
  110OSM   C16F11409   2.671   1.987   8.940  0.7722  0.6127  0.2013
  110OSM   H16F11410   2.664   2.065   8.861 -2.0682  0.6297  0.3460
  110OSM   H16G11411   2.607   1.904   8.904  1.4582  1.6200 -3.8644
  110OSM   C17F11412   2.806   1.932   8.942  0.1711  0.0342 -0.2430
  110OSM   H17F11413   2.812   1.836   8.998  2.1336 -1.2103 -2.4294
  110OSM   H17G11414   2.880   1.999   8.990 -0.3797  0.5077 -0.0394
  110OSM   C18F11415   2.846   1.891   8.800 -0.4477 -0.5820  0.1098
  110OSM   H18F11416   2.946   1.844   8.811  0.7421  1.7196 -0.1623
  110OSM   H18G11417   2.844   1.981   8.735 -2.6863 -2.2503 -2.3804
  110OSM   H18H11418   2.769   1.819   8.764 -0.5548  0.2911 -1.4866
  111OSM      N11419   2.498   1.867  10.875 -0.5537  0.0257 -0.0392
  111OSM    C1511420   2.541   1.726  10.847 -0.1066 -0.5441 -0.3927
  111OSM   H15A11421   2.513   1.662  10.928  1.9199  1.9896  2.5293
  111OSM   H15B11422   2.649   1.724  10.842  0.0298  0.5463  1.3515
  111OSM   H15C11423   2.498   1.691  10.754 -0.3011 -3.3675  0.6780
  111OSM    C1411424   2.357   1.868  10.942 -0.1980 -0.1385 -0.2993
  111OSM   H14A11425   2.353   1.820  11.038 -0.3596 -0.6076 -0.5420
  111OSM   H14B11426   2.284   1.821  10.879  1.0427 -2.1571 -0.3047
  111OSM   H14C11427   2.331   1.970  10.966  1.6323 -0.1745  2.2944
  111OSM    C1311428   2.593   1.934  10.971  0.9847  0.3243  0.6347
  111OSM   H13A11429   2.622   1.879  11.060 -0.4398 -0.5216  0.6023
  111OSM   H13B11430   2.538   2.017  11.012 -1.0216 -0.3396 -0.5561
  111OSM   H13C11431   2.683   1.952  10.913  1.4818 -0.7575  1.0319
  111OSM    C1211432   2.490   1.935  10.746  0.7545  0.0673  0.0490
  111OSM   H12A11433   2.417   1.883  10.686  2.0942 -1.1899 -0.5841
  111OSM   H12B11434   2.586   1.928  10.695  0.6664  0.4695 -0.1690
  111OSM    C1111435   2.457   2.085  10.735  0.6448  0.0576  0.1328
  111OSM   H11A11436   2.490   2.127  10.638 -0.5157 -0.6017 -0.5780
  111OSM   H11B11437   2.521   2.126  10.815  0.5660 -1.9209  1.2955
  111OSM      P11438   2.205   2.068  10.655  0.3799 -0.3339 -0.4254
  111OSM    O1311439   2.086   2.022  10.735  0.0515  0.0890 -0.0999
  111OSM    O1411440   2.186   2.179  10.558  0.4260 -0.3519  0.5597
  111OSM    O1111441   2.262   1.932  10.591  0.3316  0.1885 -0.3890
  111OSM    O1211442   2.321   2.105  10.758 -0.5191  0.1848  0.9679
  111OSM    C1S11443   2.307   1.923  10.453  0.6640  0.2853  0.3015
  111OSM    H1S11444   2.412   1.955  10.438  0.0782  2.2720  0.1676
  111OSM    H1T11445   2.235   1.973  10.385 -0.0492 -0.8566  0.1960
  111OSM     NF11446   2.354   1.768  10.262  0.0907 -0.3720 -0.2847
  111OSM    HNF11447   2.300   1.762  10.179  0.4830  1.7661 -0.7374
  111OSM    C2S11448   2.293   1.779  10.400  0.1698  0.6189 -0.4020
  111OSM    H2S11449   2.348   1.715  10.473  0.1688  1.7431  0.6182
  111OSM    C3S11450   2.143   1.737  10.406 -0.5628 -0.3076 -0.0627
  111OSM    H3S11451   2.078   1.822  10.377 -1.1899 -0.7009  0.1715
  111OSM     O311452   2.094   1.696  10.528  0.3992 -0.1272  0.0735
  111OSM    HO311453   2.147   1.739  10.595  0.0487 -0.0492  0.3065
  111OSM    C4S11454   2.123   1.614  10.311  0.3366 -0.4833 -0.6014
  111OSM    H4S11455   2.155   1.516  10.348 -0.3631  0.0520  1.5409
  111OSM    C5S11456   2.039   1.617  10.207 -0.1117 -0.0792 -0.0736
  111OSM    H5S11457   1.966   1.697  10.193 -1.1785 -0.9751  0.1906
  111OSM    C6S11458   2.013   1.492  10.130  0.5567  0.4749 -1.1438
  111OSM    H6S11459   1.904   1.471  10.129  0.6072  0.2077 -0.9511
  111OSM    H6T11460   2.044   1.405  10.191 -0.4205  1.7998  1.3954
  111OSM    C7S11461   2.056   1.499   9.987  0.1760  0.4518 -0.5126
  111OSM    H7S11462   2.163   1.530   9.989  1.0779 -2.3202 -1.5291
  111OSM    H7T11463   2.002   1.581   9.936 -1.7226  0.8086  1.8888
  111OSM    C8S11464   2.038   1.368   9.911  0.4328 -0.6034  1.1301
  111OSM    H8S11465   1.928   1.355   9.912  0.2674  0.5974  0.7619
  111OSM    H8T11466   2.079   1.279   9.962 -0.1135  0.2412  3.1586
  111OSM    C9S11467   2.073   1.378   9.765 -0.6240 -0.0486 -0.2632
  111OSM    H9S11468   2.183   1.394   9.766 -0.8360  1.7364  1.8198
  111OSM    H9T11469   2.023   1.467   9.721 -0.5404  1.0670  1.8163
  111OSM   C10S11470   2.043   1.249   9.689  0.3353  0.1426  0.4743
  111OSM   H10S11471   1.935   1.223   9.697 -0.1061  1.9984  1.2090
  111OSM   H10T11472   2.097   1.158   9.723  0.7623  0.0505 -0.4207
  111OSM   C11S11473   2.066   1.285   9.534 -0.0201  0.0926 -0.6473
  111OSM   H11S11474   2.168   1.325   9.519  0.6101  0.1937  3.0169
  111OSM   H11T11475   2.003   1.372   9.503 -0.0210 -0.1892 -1.4588
  111OSM   C12S11476   2.024   1.171   9.437 -0.2999 -0.5000  0.4023
  111OSM   H12S11477   1.915   1.161   9.451 -0.3105  0.1343  0.7987
  111OSM   H12T11478   2.074   1.076   9.467  0.8339 -0.1967 -0.4335
  111OSM   C13S11479   2.034   1.207   9.290  0.1173 -0.9589  0.0463
  111OSM   H13S11480   2.141   1.228   9.268 -0.3156  2.1682  0.4142
  111OSM   H13T11481   1.979   1.302   9.274 -1.3064 -2.0871 -2.3075
  111OSM   C14S11482   1.968   1.105   9.194  0.6998 -0.1693 -0.1133
  111OSM   H14S11483   1.861   1.106   9.224  1.0070  2.9811  1.3549
  111OSM   H14T11484   2.008   1.005   9.219  2.1547 -0.2548 -2.4652
  111OSM   C15S11485   1.968   1.128   9.044 -0.0279 -0.1175  0.1461
  111OSM   H15S11486   2.071   1.114   9.006 -1.1084 -0.9334 -2.7853
  111OSM   H15T11487   1.910   1.218   9.016 -0.9983 -0.9207 -0.5363
  111OSM   C16S11488   1.880   1.022   8.965 -0.6667 -0.0138 -0.5007
  111OSM   H16S11489   1.775   1.047   8.991 -0.7394  1.1688 -1.8059
  111OSM   H16T11490   1.916   0.921   8.996 -0.2579  0.5208  0.8145
  111OSM   C17S11491   1.908   1.030   8.809  0.0401 -1.0331  0.2360
  111OSM   H17S11492   2.017   1.022   8.789  0.1518 -0.6202  0.6442
  111OSM   H17T11493   1.870   1.129   8.778  1.5684 -0.8742 -1.3167
  111OSM   C18S11494   1.833   0.917   8.733  0.6133  0.2896  0.1129
  111OSM   H18S11495   1.726   0.948   8.735  0.0799 -1.4233 -0.5397
  111OSM   H18T11496   1.833   0.816   8.781 -1.7483 -0.3528 -1.1098
  111OSM   H18U11497   1.872   0.909   8.630  1.5489  1.6868  0.3332
  111OSM    C1F11498   2.486   1.758  10.250 -0.0692 -0.8235 -0.6596
  111OSM     OF11499   2.568   1.764  10.345  0.1830 -0.7440 -0.0892
  111OSM    C2F11500   2.522   1.719  10.113  0.5253  0.2750  0.0719
  111OSM    H2F11501   2.618   1.770  10.092 -0.0387  0.5360 -2.1913
  111OSM    H2G11502   2.463   1.768  10.032  0.1186 -1.3219 -0.6310
  111OSM    C3F11503   2.532   1.568  10.072 -0.6920 -0.3908 -0.3108
  111OSM    H3F11504   2.434   1.519  10.086 -0.5850 -1.0407 -1.6878
  111OSM    H3G11505   2.592   1.520  10.153  0.0552  2.6950  1.1617
  111OSM    C4F11506   2.600   1.550   9.935  0.8243  0.1314  0.4343
  111OSM    H4F11507   2.700   1.597   9.928  0.6893  0.4259  0.5139
  111OSM    H4G11508   2.536   1.606   9.863  1.7814  0.0970 -0.4759
  111OSM    C5F11509   2.608   1.402   9.878  0.4526  0.0060 -0.2945
  111OSM    H5F11510   2.515   1.347   9.906  0.6878 -0.2872 -0.0753
  111OSM    H5G11511   2.685   1.348   9.937 -0.6693 -0.3312  0.9326
  111OSM    C6F11512   2.640   1.381   9.729 -0.4350 -0.7541 -0.0935
  111OSM    H6F11513   2.688   1.284   9.705  0.7153 -0.5534  1.2713
  111OSM    H6G11514   2.711   1.461   9.699  1.0890 -1.8709  0.4402
  111OSM    C7F11515   2.528   1.393   9.628  0.7491 -0.4807 -0.5701
  111OSM    H7F11516   2.458   1.468   9.671 -1.8450 -3.1668  0.2238
  111OSM    H7G11517   2.471   1.298   9.630 -0.0224 -0.0267 -0.5647
  111OSM    C8F11518   2.559   1.432   9.484  0.6178 -0.8893  1.0403
  111OSM    H8F11519   2.628   1.518   9.495  0.5295 -0.8854  1.5748
  111OSM    H8G11520   2.466   1.473   9.440  0.3358 -1.7560  0.8207
  111OSM    C9F11521   2.621   1.330   9.396 -0.2375 -0.1349 -0.2089
  111OSM    H9F11522   2.643   1.231   9.437 -0.3586  0.2786  0.8820
  111OSM   C10F11523   2.640   1.366   9.263 -0.5396 -0.1661 -0.5589
  111OSM   H10F11524   2.689   1.285   9.206  0.4624 -0.0690  0.1315
  111OSM   C11F11525   2.603   1.498   9.201  0.3105 -0.1897 -0.6280
  111OSM   H11F11526   2.541   1.561   9.268  0.2491  1.4671 -2.1782
  111OSM   H11G11527   2.528   1.479   9.121  0.2371 -1.6287 -0.2475
  111OSM   C12F11528   2.723   1.576   9.147 -0.2404  0.5939  0.4828
  111OSM   H12F11529   2.799   1.599   9.225 -0.1188  0.7296  0.3248
  111OSM   H12G11530   2.679   1.673   9.116  0.5488  1.3714  1.7455
  111OSM   C13F11531   2.785   1.520   9.024 -0.4913  0.2744  0.5040
  111OSM   H13F11532   2.844   1.433   9.059  0.2279  0.7988  0.6175
  111OSM   H13G11533   2.855   1.599   8.988 -0.9975 -0.2481 -1.8192
  111OSM   C14F11534   2.693   1.468   8.913  0.6911  0.0522  0.5473
  111OSM   H14F11535   2.618   1.401   8.960 -1.3958  1.9470  0.0927
  111OSM   H14G11536   2.744   1.408   8.835  0.3527 -0.7843  0.9601
  111OSM   C15F11537   2.612   1.579   8.840 -0.2564  0.1764  0.3564
  111OSM   H15F11538   2.660   1.678   8.858 -0.7604  0.6186 -0.6338
  111OSM   H15G11539   2.513   1.588   8.889 -0.6387  0.6431 -0.4630
  111OSM   C16F11540   2.617   1.571   8.689  0.1345 -0.0458  0.1519
  111OSM   H16F11541   2.719   1.590   8.649  1.3517  2.3326  3.8200
  111OSM   H16G11542   2.566   1.655   8.637 -0.4003 -0.2303  0.3719
  111OSM   C17F11543   2.560   1.443   8.631  0.2194  0.1955 -0.4064
  111OSM   H17F11544   2.462   1.442   8.683 -0.2621  1.5263 -1.2441
  111OSM   H17G11545   2.614   1.350   8.661  0.0760  0.1600 -0.2564
  111OSM   C18F11546   2.548   1.442   8.481  0.0889 -0.2496 -0.5517
  111OSM   H18F11547   2.644   1.443   8.424 -0.0392  0.1181 -0.7672
  111OSM   H18G11548   2.478   1.522   8.449  0.3173 -0.1013 -0.6846
  111OSM   H18H11549   2.490   1.354   8.446 -1.6233  1.5168 -2.4292
  112OSM      N11550   1.792   6.518  10.441  0.1657 -0.0448 -0.0210
  112OSM    C1511551   1.689   6.416  10.403  0.6724  0.3423 -0.6848
  112OSM   H15A11552   1.627   6.399  10.489  1.6580  2.4830  0.5348
  112OSM   H15B11553   1.738   6.323  10.377  1.6168  0.1336  1.6569
  112OSM   H15C11554   1.625   6.447  10.322 -0.8249 -2.7906 -0.8447
  112OSM    C1411555   1.883   6.538  10.327 -0.5323 -0.7592 -0.1266
  112OSM   H14A11556   1.943   6.625  10.349 -0.6709 -0.8614  0.6976
  112OSM   H14B11557   1.831   6.560  10.235  1.8147  1.4531 -1.0363
  112OSM   H14C11558   1.942   6.448  10.336 -1.7380 -1.4033  2.1252
  112OSM    C1311559   1.719   6.648  10.468 -0.5410 -0.7544  0.1882
  112OSM   H13A11560   1.773   6.723  10.413 -0.7784 -1.0128 -0.4015
  112OSM   H13B11561   1.727   6.684  10.570  1.0054  0.1946 -0.2335
  112OSM   H13C11562   1.617   6.653  10.431 -1.3128 -0.9121  2.1686
  112OSM    C1211563   1.872   6.487  10.566  0.7268 -0.2564  0.1826
  112OSM   H12A11564   1.820   6.514  10.656  1.1028 -2.2651  1.0450
  112OSM   H12B11565   1.957   6.554  10.568  1.4648 -1.1849  0.2574
  112OSM    C1111566   1.920   6.343  10.586 -0.3843  0.6965 -0.2457
  112OSM   H11A11567   1.832   6.275  10.588 -0.8999  1.3603  1.1818
  112OSM   H11B11568   1.968   6.338  10.686 -0.5026 -0.9375 -0.2582
  112OSM      P11569   2.148   6.319  10.467  0.0678  0.0822  0.4990
  112OSM    O1311570   2.183   6.448  10.537 -0.1477  0.1730  0.1504
  112OSM    O1411571   2.220   6.203  10.516 -0.0790  0.2735  0.1932
  112OSM    O1111572   2.172   6.339  10.317  0.4632 -0.0001  0.0097
  112OSM    O1211573   1.993   6.290  10.473 -0.3080  0.3961 -0.0138
  112OSM    C1S11574   2.086   6.260  10.220 -0.3166  0.6720 -1.2158
  112OSM    H1S11575   1.977   6.280  10.231 -0.2013  1.3284 -1.2275
  112OSM    H1T11576   2.107   6.151  10.227 -1.4648  0.2928 -2.9014
  112OSM     NF11577   2.040   6.214   9.977 -0.0769  0.1733  0.4415
  112OSM    HNF11578   2.071   6.125   9.945  0.1413  0.9996 -1.7795
  112OSM    C2S11579   2.125   6.294  10.069  0.0626  0.4354  0.2276
  112OSM    H2S11580   2.107   6.403  10.058  2.3039  1.0025  1.5063
  112OSM    C3S11581   2.277   6.274  10.042  0.0855  0.1170 -0.5228
  112OSM    H3S11582   2.299   6.168  10.067 -1.7533 -0.4528 -1.1321
  112OSM     O311583   2.362   6.355  10.128 -0.2495 -0.1485 -0.1080
  112OSM    HO311584   2.305   6.364  10.205 -0.0404 -0.8116  0.1303
  112OSM    C4S11585   2.309   6.318   9.897 -0.6887  0.3985 -0.3322
  112OSM    H4S11586   2.321   6.426   9.887  3.3078  0.0451 -1.1233
  112OSM    C5S11587   2.323   6.228   9.800  0.7774  0.6477  0.4552
  112OSM    H5S11588   2.307   6.123   9.830  0.0828  1.1470  1.9209
  112OSM    C6S11589   2.337   6.267   9.649  0.3212  0.2512 -0.2381
  112OSM    H6S11590   2.422   6.204   9.614 -2.1322 -1.1144 -4.4927
  112OSM    H6T11591   2.343   6.378   9.637 -0.6906  0.4904  1.1937
  112OSM    C7S11592   2.219   6.210   9.566 -0.1903  0.4826 -0.1010
  112OSM    H7S11593   2.122   6.254   9.597 -1.6807 -1.3960 -1.8185
  112OSM    H7T11594   2.206   6.102   9.586 -0.5699  0.5726  0.1440
  112OSM    C8S11595   2.261   6.229   9.417  0.2824  0.5961  0.9323
  112OSM    H8S11596   2.202   6.169   9.345 -0.0427  1.7769  0.1858
  112OSM    H8T11597   2.367   6.194   9.417 -0.0184 -0.3481  0.3850
  112OSM    C9S11598   2.252   6.375   9.360 -0.5918  0.2817  0.1427
  112OSM    H9S11599   2.325   6.446   9.404 -2.4891  2.1009  0.5250
  112OSM    H9T11600   2.149   6.414   9.374 -0.8464 -0.3802  0.1330
  112OSM   C10S11601   2.292   6.382   9.210 -0.1844  0.1620  0.2669
  112OSM   H10S11602   2.396   6.343   9.206 -0.3638 -0.5608  2.0578
  112OSM   H10T11603   2.300   6.486   9.171 -1.5548  0.5851  1.0694
  112OSM   C11S11604   2.199   6.304   9.114  0.1780 -0.9370  0.1741
  112OSM   H11S11605   2.094   6.335   9.129  0.2013 -0.5042 -0.5226
  112OSM   H11T11606   2.208   6.196   9.141  0.2923 -0.6955  1.1381
  112OSM   C12S11607   2.216   6.324   8.964  0.0970 -0.6139  0.5926
  112OSM   H12S11608   2.316   6.282   8.938  0.4645 -0.5740  1.8833
  112OSM   H12T11609   2.211   6.433   8.943 -1.2522 -0.4385  1.6610
  112OSM   C13S11610   2.111   6.252   8.880 -0.3380 -0.4455  0.0090
  112OSM   H13S11611   2.014   6.271   8.930 -0.0510  0.7974  0.1176
  112OSM   H13T11612   2.148   6.147   8.878  3.0955  0.4458  3.4565
  112OSM   C14S11613   2.108   6.302   8.738  0.2620  0.5335 -0.1223
  112OSM   H14S11614   2.212   6.282   8.704  0.5169  1.5402  0.0340
  112OSM   H14T11615   2.083   6.410   8.745  0.4094  0.4616  2.2511
  112OSM   C15S11616   2.002   6.229   8.645  0.5869 -0.1769  0.6042
  112OSM   H15S11617   1.901   6.253   8.684  0.3772 -1.2084  0.7086
  112OSM   H15T11618   2.017   6.119   8.644 -0.1845 -0.3579 -2.4707
  112OSM   C16S11619   2.018   6.267   8.491 -0.4541  0.2220 -0.8794
  112OSM   H16S11620   2.021   6.377   8.484  0.0173  0.6578  3.5603
  112OSM   H16T11621   1.921   6.233   8.448 -0.3947 -1.3277  0.1309
  112OSM   C17S11622   2.139   6.204   8.421  0.3349 -0.2332 -0.0099
  112OSM   H17S11623   2.131   6.093   8.425 -3.1259 -0.0697  0.9154
  112OSM   H17T11624   2.224   6.241   8.483 -1.2697  0.3070  1.9663
  112OSM   C18S11625   2.164   6.261   8.280 -0.0511 -0.3289 -0.5284
  112OSM   H18S11626   2.070   6.253   8.222 -0.7979  1.2701  0.3935
  112OSM   H18T11627   2.248   6.216   8.223 -0.8838 -1.3113 -1.0167
  112OSM   H18U11628   2.191   6.368   8.299  0.3408 -0.6775  0.9901
  112OSM    C1F11629   1.913   6.240   9.968  0.3252 -0.3599 -0.2727
  112OSM     OF11630   1.856   6.322  10.039 -0.1084 -0.2668  0.3153
  112OSM    C2F11631   1.837   6.153   9.877  0.9234  0.8058  0.1273
  112OSM    H2F11632   1.748   6.106   9.923  2.2331  0.7667  2.8170
  112OSM    H2G11633   1.894   6.063   9.845 -1.9747 -0.6440 -1.3419
  112OSM    C3F11634   1.796   6.217   9.747  0.5297 -0.0776  0.2817
  112OSM    H3F11635   1.883   6.273   9.708 -0.2643  0.2578 -1.0864
  112OSM    H3G11636   1.718   6.294   9.768  2.0342  2.1254 -1.7293
  112OSM    C4F11637   1.739   6.114   9.657  0.9134  0.0253  0.0339
  112OSM    H4F11638   1.676   6.049   9.721 -0.2570  1.1292  0.0384
  112OSM    H4G11639   1.822   6.052   9.618 -1.1899 -1.2365 -2.8821
  112OSM    C5F11640   1.665   6.166   9.535 -0.5666 -0.1749 -0.9509
  112OSM    H5F11641   1.584   6.227   9.579 -0.1084 -0.9411  1.0716
  112OSM    H5G11642   1.617   6.082   9.479 -0.6466 -1.4277  0.9015
  112OSM    C6F11643   1.758   6.248   9.454 -0.1675 -0.2107  0.2027
  112OSM    H6F11644   1.860   6.202   9.453  0.0763  0.3315 -0.0262
  112OSM    H6G11645   1.753   6.347   9.504 -0.0300 -0.3485  0.4958
  112OSM    C7F11646   1.711   6.271   9.308 -0.3633  0.7230  0.2141
  112OSM    H7F11647   1.721   6.178   9.248 -3.9339  1.7791 -2.2905
  112OSM    H7G11648   1.770   6.348   9.254  0.6341  2.0938  3.0356
  112OSM    C8F11649   1.563   6.320   9.295 -0.3636  0.7104  0.2679
  112OSM    H8F11650   1.505   6.247   9.356  0.0160  0.6364  0.5455
  112OSM    H8G11651   1.523   6.309   9.192 -0.6977 -0.1287  0.4726
  112OSM    C9F11652   1.546   6.460   9.342  0.0759 -0.0465 -0.1355
  112OSM    H9F11653   1.531   6.471   9.450  0.3893 -0.7344 -0.0134
  112OSM   C10F11654   1.536   6.569   9.261 -0.4755  0.4638  0.5032
  112OSM   H10F11655   1.535   6.672   9.302 -0.3262  0.4642  0.5026
  112OSM   C11F11656   1.533   6.573   9.113 -0.3790 -0.8282 -0.4862
  112OSM   H11F11657   1.455   6.641   9.072 -0.8394 -0.1745  1.3952
  112OSM   H11G11658   1.507   6.477   9.063 -0.0552 -1.1712 -0.0018
  112OSM   C12F11659   1.674   6.596   9.044 -0.1690  0.5127  0.5049
  112OSM   H12F11660   1.742   6.519   9.086  0.5402  0.7481 -0.1846
  112OSM   H12G11661   1.704   6.689   9.098 -1.8544  0.4539  1.6088
  112OSM   C13F11662   1.707   6.606   8.890  0.1193 -0.3832 -0.0853
  112OSM   H13F11663   1.714   6.504   8.847 -2.6839  0.1226 -1.9989
  112OSM   H13G11664   1.803   6.662   8.883  0.5580 -0.8750  1.4184
  112OSM   C14F11665   1.596   6.684   8.814  0.5291  0.0057 -0.0612
  112OSM   H14F11666   1.563   6.769   8.878 -0.2074  1.0752 -1.7800
  112OSM   H14G11667   1.503   6.626   8.798 -0.4584  1.3322  0.6479
  112OSM   C15F11668   1.638   6.738   8.671  0.7601 -0.6663 -0.3245
  112OSM   H15F11669   1.643   6.650   8.604  1.2497 -0.9030  0.0209
  112OSM   H15G11670   1.735   6.792   8.669  0.5903 -0.3744 -1.3546
  112OSM   C16F11671   1.534   6.837   8.617  0.0889 -0.3017  0.2356
  112OSM   H16F11672   1.528   6.919   8.692 -0.2874  1.0443 -1.2010
  112OSM   H16G11673   1.432   6.793   8.608  0.1251 -0.1611 -0.9772
  112OSM   C17F11674   1.593   6.888   8.486  0.4428 -0.3081 -0.0201
  112OSM   H17F11675   1.587   6.804   8.413 -0.8245  0.5296 -0.9397
  112OSM   H17G11676   1.699   6.919   8.494  0.2602 -0.0630  1.9558
  112OSM   C18F11677   1.521   7.007   8.431 -0.1834 -0.1650 -0.0204
  112OSM   H18F11678   1.573   7.057   8.347  0.6240  1.5010  1.4062
  112OSM   H18G11679   1.516   7.088   8.507 -1.7846  0.9427 -1.2375
  112OSM   H18H11680   1.416   6.991   8.398 -0.8506  2.7796  0.4247
  113OSM      N11681   3.339   5.623  11.136  0.2318  0.4739 -0.2810
  113OSM    C1511682   3.414   5.491  11.164 -0.1066 -0.0042 -0.6176
  113OSM   H15A11683   3.340   5.424  11.122  0.0975 -1.1012  0.6746
  113OSM   H15B11684   3.417   5.466  11.269 -0.1448 -0.5833 -0.7485
  113OSM   H15C11685   3.513   5.475  11.125  0.5457 -0.4419  1.1258
  113OSM    C1411686   3.196   5.619  11.181  1.1841  0.6043 -0.0231
  113OSM   H14A11687   3.189   5.584  11.283  3.3612  1.3843  0.4603
  113OSM   H14B11688   3.137   5.551  11.122  1.2243  1.0384 -0.5704
  113OSM   H14C11689   3.152   5.717  11.183  2.1746  1.0690 -0.3812
  113OSM    C1311690   3.404   5.730  11.221 -0.0028  0.2018 -0.1236
  113OSM   H13A11691   3.345   5.821  11.220  2.3668  1.8241 -0.7315
  113OSM   H13B11692   3.509   5.744  11.200 -0.2296  0.4205 -1.1618
  113OSM   H13C11693   3.392   5.695  11.323 -0.8452  2.3156  0.5678
  113OSM    C1211694   3.352   5.641  10.988 -0.3140 -0.5375 -0.7512
  113OSM   H12A11695   3.456   5.669  10.975  0.3997 -2.8205 -0.5582
  113OSM   H12B11696   3.298   5.727  10.955 -0.9791 -0.8699 -0.5465
  113OSM    C1111697   3.315   5.534  10.886  0.1383  0.8248 -0.1951
  113OSM   H11A11698   3.388   5.454  10.908  0.5623  0.9090 -1.2696
  113OSM   H11B11699   3.351   5.564  10.786  0.5305 -2.0877 -1.0211
  113OSM      P11700   3.071   5.524  10.784 -0.3802  0.2418  0.0665
  113OSM    O1311701   2.962   5.428  10.770  0.5025 -0.1161  0.0217
  113OSM    O1411702   3.040   5.661  10.818 -0.4926 -0.2292 -0.3252
  113OSM    O1111703   3.158   5.532  10.648  0.0792 -0.0123  0.3889
  113OSM    O1211704   3.179   5.481  10.897 -0.1817 -0.1500  0.1319
  113OSM    C1S11705   3.185   5.412  10.577  0.6079 -0.8183  0.4372
  113OSM    H1S11706   3.091   5.357  10.557  0.0452 -0.3305  1.6946
  113OSM    H1T11707   3.259   5.351  10.632  1.6179 -1.6783 -1.7587
  113OSM     NF11708   3.276   5.318  10.379  0.0544 -0.2983  0.1590
  113OSM    HNF11709   3.370   5.288  10.372  0.3139  0.3954  0.6541
  113OSM    C2S11710   3.248   5.448  10.438 -1.1862  0.0782 -0.1749
  113OSM    H2S11711   3.177   5.498  10.368 -1.7013 -0.0188  0.2705
  113OSM    C3S11712   3.372   5.534  10.448 -0.2383  0.1216  0.3741
  113OSM    H3S11713   3.456   5.472  10.486 -0.6033 -0.6474 -0.0395
  113OSM     O311714   3.374   5.636  10.554  0.3724  0.0143  0.3086
  113OSM    HO311715   3.292   5.625  10.602 -0.0293  0.3639 -0.2749
  113OSM    C4S11716   3.426   5.583  10.317 -0.2994  0.6260  0.1698
  113OSM    H4S11717   3.490   5.509  10.267 -0.6330  2.0191 -2.4913
  113OSM    C5S11718   3.416   5.706  10.267  0.4148  0.2385  0.0222
  113OSM    H5S11719   3.356   5.782  10.319 -0.0620 -1.4511  2.1052
  113OSM    C6S11720   3.476   5.746  10.136  0.1286  0.0027 -0.1306
  113OSM    H6S11721   3.564   5.679  10.120  0.2937  0.0780  0.4400
  113OSM    H6T11722   3.517   5.849  10.143  1.0108 -0.4015  1.0495
  113OSM    C7S11723   3.373   5.729  10.010 -0.3924  0.6693 -0.6120
  113OSM    H7S11724   3.286   5.796  10.024 -0.8845 -0.1455  0.3555
  113OSM    H7T11725   3.347   5.622  10.000  1.3565  0.3029 -1.7014
  113OSM    C8S11726   3.450   5.769   9.887  0.2000  0.1715  0.6757
  113OSM    H8S11727   3.547   5.717   9.900 -0.1750 -0.5272  0.7393
  113OSM    H8T11728   3.470   5.878   9.887  1.3826 -0.0349  1.3209
  113OSM    C9S11729   3.377   5.720   9.760 -0.3825 -0.6607  0.1374
  113OSM    H9S11730   3.270   5.727   9.789 -0.1253 -4.2633  2.6409
  113OSM    H9T11731   3.392   5.610   9.761 -2.0781 -0.9170  0.5080
  113OSM   C10S11732   3.439   5.781   9.634  0.4355  0.3560  1.3832
  113OSM   H10S11733   3.534   5.728   9.613  1.0223  1.9047 -0.1256
  113OSM   H10T11734   3.460   5.890   9.625  1.0578  0.1413 -0.0995
  113OSM   C11S11735   3.348   5.736   9.519 -0.0483 -0.5552  0.1841
  113OSM   H11S11736   3.242   5.754   9.544  0.3440  1.7976  0.4433
  113OSM   H11T11737   3.354   5.628   9.493 -1.8635 -1.4538  3.0743
  113OSM   C12S11738   3.359   5.826   9.399  0.1925 -0.1982  0.0332
  113OSM   H12S11739   3.466   5.851   9.390  0.5898 -0.0906  3.5435
  113OSM   H12T11740   3.316   5.926   9.423  1.4599  0.4861 -0.4696
  113OSM   C13S11741   3.296   5.780   9.269 -0.2416  0.0988 -0.3305
  113OSM   H13S11742   3.186   5.767   9.283 -0.0700  1.1321  2.6160
  113OSM   H13T11743   3.345   5.688   9.231 -1.3712 -0.8900  0.5225
  113OSM   C14S11744   3.320   5.881   9.159 -0.2848 -0.2807 -1.0786
  113OSM   H14S11745   3.427   5.908   9.146 -0.7841  1.8776 -1.1411
  113OSM   H14T11746   3.264   5.972   9.188 -1.4564 -1.6004  0.9636
  113OSM   C15S11747   3.260   5.831   9.027  0.4343  0.1218  0.0971
  113OSM   H15S11748   3.158   5.795   9.053 -0.0565 -0.8502 -2.8300
  113OSM   H15T11749   3.320   5.750   8.981  0.4853  0.0417  0.3071
  113OSM   C16S11750   3.254   5.936   8.918 -0.0748  0.1485  0.0454
  113OSM   H16S11751   3.355   5.981   8.900 -0.3837  0.7953 -0.0930
  113OSM   H16T11752   3.184   6.017   8.948  0.3494  1.0784 -1.3733
  113OSM   C17S11753   3.204   5.896   8.775 -0.4885 -0.8598  0.4141
  113OSM   H17S11754   3.104   5.852   8.791 -0.3542 -0.7580  1.6920
  113OSM   H17T11755   3.265   5.816   8.728 -0.6933 -0.4155 -0.6318
  113OSM   C18S11756   3.186   6.026   8.696  0.3651 -0.2196 -0.0946
  113OSM   H18S11757   3.278   6.087   8.692 -1.1464  2.1087 -1.1753
  113OSM   H18T11758   3.110   6.090   8.745 -1.7962 -3.2685  0.8623
  113OSM   H18U11759   3.175   6.000   8.589 -0.3919  2.8674 -0.8493
  113OSM    C1F11760   3.173   5.248  10.332  0.1706  0.1785  0.3031
  113OSM     OF11761   3.067   5.297  10.305  0.2257 -0.0941  0.3895
  113OSM    C2F11762   3.199   5.111  10.284 -0.1889 -0.5614  0.4490
  113OSM    H2F11763   3.207   5.039  10.368  0.6865 -1.1087 -0.0852
  113OSM    H2G11764   3.300   5.110  10.237  0.6703  1.0576  2.1326
  113OSM    C3F11765   3.097   5.056  10.183 -0.6591  0.2872  0.1116
  113OSM    H3F11766   3.076   5.128  10.101  0.6966 -3.4302 -3.8738
  113OSM    H3G11767   2.995   5.045  10.227 -0.9785  0.9877 -0.4318
  113OSM    C4F11768   3.131   4.917  10.119  0.0212  0.0069 -0.5273
  113OSM    H4F11769   3.037   4.859  10.110  0.6963 -2.0464  3.1628
  113OSM    H4G11770   3.200   4.865  10.190  0.8591  1.8414  0.0667
  113OSM    C5F11771   3.188   4.912   9.983 -0.4446 -0.0333  0.1653
  113OSM    H5F11772   3.195   4.806   9.950  0.2455 -0.5915  1.9676
  113OSM    H5G11773   3.291   4.952   9.983 -1.0334  1.6508  1.5539
  113OSM    C6F11774   3.112   4.991   9.875  0.0305 -0.1777 -0.0938
  113OSM    H6F11775   3.143   5.096   9.891  1.1885 -0.3768 -0.9022
  113OSM    H6G11776   3.003   4.972   9.883  0.3309 -1.9011  0.4205
  113OSM    C7F11777   3.159   4.949   9.733 -0.0236 -0.7627 -0.3208
  113OSM    H7F11778   3.144   4.839   9.726  0.0972 -0.9572  1.7129
  113OSM    H7G11779   3.268   4.970   9.728  0.0929 -1.6711 -2.4178
  113OSM    C8F11780   3.067   5.016   9.624 -0.3882  0.1474  0.2283
  113OSM    H8F11781   3.064   5.127   9.631 -2.1365  0.2132 -1.0265
  113OSM    H8G11782   2.964   4.986   9.649 -0.2039 -0.4439  0.2857
  113OSM    C9F11783   3.127   4.981   9.495  0.2372 -0.5438  0.3193
  113OSM    H9F11784   3.237   4.991   9.493  0.3106 -1.4870 -1.0261
  113OSM   C10F11785   3.061   4.929   9.387  0.0057  0.0215  0.2532
  113OSM   H10F11786   3.123   4.911   9.297 -0.2589 -1.7538  0.3742
  113OSM   C11F11787   2.911   4.916   9.372  0.4060 -0.9089  0.6380
  113OSM   H11F11788   2.888   4.967   9.276  1.3406 -1.5377  0.0537
  113OSM   H11G11789   2.851   4.963   9.452  1.8462  0.8578  0.7632
  113OSM   C12F11790   2.881   4.770   9.358  0.0702 -0.8493  0.0079
  113OSM   H12F11791   2.950   4.717   9.289 -0.4600 -1.0034 -0.4066
  113OSM   H12G11792   2.776   4.772   9.321  0.2533  1.5045 -0.5170
  113OSM   C13F11793   2.879   4.680   9.481  0.1318 -0.3306  0.1128
  113OSM   H13F11794   2.969   4.703   9.542 -1.1933  1.2774  1.5485
  113OSM   H13G11795   2.878   4.573   9.454  3.2429  0.1864 -2.7981
  113OSM   C14F11796   2.748   4.704   9.555 -0.0667 -0.1578  0.1269
  113OSM   H14F11797   2.659   4.717   9.490 -1.1388  0.9087  1.7643
  113OSM   H14G11798   2.756   4.805   9.599  0.4463 -0.2904  0.3425
  113OSM   C15F11799   2.733   4.601   9.663  0.3254 -0.2725 -0.4197
  113OSM   H15F11800   2.835   4.562   9.683  0.8900 -0.6981 -3.5830
  113OSM   H15G11801   2.666   4.518   9.630 -2.2325  1.2328  0.6520
  113OSM   C16F11802   2.675   4.659   9.789  0.4063  0.5847 -0.3109
  113OSM   H16F11803   2.568   4.687   9.784  0.0109 -1.0041 -1.3476
  113OSM   H16G11804   2.736   4.746   9.824 -1.3131  1.6076  0.2760
  113OSM   C17F11805   2.694   4.559   9.913  0.3614 -0.3278  0.6979
  113OSM   H17F11806   2.800   4.548   9.943  0.0627  0.9805  2.3704
  113OSM   H17G11807   2.655   4.457   9.892  0.6019 -0.4158  0.6818
  113OSM   C18F11808   2.612   4.608  10.030 -0.0901 -0.4506 -0.7406
  113OSM   H18F11809   2.644   4.707  10.070 -0.7769 -0.2347 -0.7136
  113OSM   H18G11810   2.596   4.540  10.116  1.0094  1.2265  0.9006
  113OSM   H18H11811   2.511   4.628   9.990 -0.1972 -2.6797 -1.7091
  114OSM      N11812   4.989   4.684  11.206 -0.4623 -0.2846  0.3941
  114OSM    C1511813   5.026   4.575  11.308 -0.0344 -0.5174 -0.2136
  114OSM   H15A11814   5.101   4.613  11.376 -0.1795 -0.4364 -0.0976
  114OSM   H15B11815   5.075   4.489  11.263  2.4452  1.2015 -1.0217
  114OSM   H15C11816   4.937   4.552  11.365 -0.2660 -0.1928 -0.4417
  114OSM    C1411817   4.907   4.785  11.282 -0.7814  0.7650  0.4172
  114OSM   H14A11818   4.804   4.761  11.301 -0.7549  1.2499  1.2757
  114OSM   H14B11819   4.913   4.867  11.213  0.5483  0.4849  0.1762
  114OSM   H14C11820   4.958   4.808  11.375 -1.9073 -0.7633  1.4507
  114OSM    C1311821   5.111   4.754  11.159 -0.0334  0.2971 -0.1417
  114OSM   H13A11822   5.084   4.823  11.080  1.5752  1.2511  0.0974
  114OSM   H13B11823   5.181   4.678  11.126 -1.5956 -1.1401 -0.3033
  114OSM   H13C11824   5.150   4.806  11.245 -1.1460 -1.8045  1.7380
  114OSM    C1211825   4.907   4.614  11.106 -0.1221 -0.4243  0.4988
  114OSM   H12A11826   4.964   4.543  11.049 -0.4820 -0.5526  0.2905
  114OSM   H12B11827   4.881   4.689  11.032  1.0393  1.5238  1.9616
  114OSM    C1111828   4.773   4.543  11.152 -1.2611 -0.2899 -0.4748
  114OSM   H11A11829   4.805   4.465  11.225  2.8120 -0.2461 -1.9516
  114OSM   H11B11830   4.734   4.469  11.079  0.6953 -1.0439 -0.8078
  114OSM      P11831   4.593   4.725  11.087  0.1716  0.4094 -0.0187
  114OSM    O1311832   4.450   4.701  11.111  0.5096  0.5028 -0.1643
  114OSM    O1411833   4.629   4.869  11.091 -0.2527  0.0240  0.0889
  114OSM    O1111834   4.628   4.665  10.940  0.3540 -0.0928 -0.4683
  114OSM    O1211835   4.674   4.637  11.191  0.1157 -0.0532 -0.3276
  114OSM    C1S11836   4.661   4.752  10.830  0.8293  0.5049 -0.4874
  114OSM    H1S11837   4.771   4.770  10.826  0.4709  2.9522 -1.8740
  114OSM    H1T11838   4.601   4.845  10.827  1.7013  1.0642 -1.2893
  114OSM     NF11839   4.663   4.755  10.581  0.2677  0.7920 -0.4546
  114OSM    HNF11840   4.599   4.825  10.549  0.5013  1.4777  0.5283
  114OSM    C2S11841   4.626   4.681  10.695 -0.1369  0.1414 -0.3587
  114OSM    H2S11842   4.684   4.586  10.691  0.0354  0.2720 -2.9112
  114OSM    C3S11843   4.479   4.624  10.688  0.2616 -1.1752 -0.2040
  114OSM    H3S11844   4.410   4.711  10.681 -0.1729 -1.4236  0.8860
  114OSM     O311845   4.430   4.557  10.804  0.2219  0.0881 -0.2967
  114OSM    HO311846   4.505   4.557  10.864  0.2527  0.0828 -0.3350
  114OSM    C4S11847   4.465   4.533  10.575  0.0580  0.5048 -0.2509
  114OSM    H4S11848   4.539   4.452  10.576 -1.3298 -0.8119  0.9536
  114OSM    C5S11849   4.390   4.544  10.472 -0.3197  0.2715  0.6699
  114OSM    H5S11850   4.325   4.633  10.472  0.2142  0.7332 -1.9056
  114OSM    C6S11851   4.386   4.442  10.362 -0.3700 -0.1884  0.3940
  114OSM    H6S11852   4.277   4.430  10.348 -0.6388  1.7037  0.5625
  114OSM    H6T11853   4.421   4.340  10.388  2.4008  0.3788 -0.7649
  114OSM    C7S11854   4.447   4.494  10.225  0.4185  0.5528  0.2280
  114OSM    H7S11855   4.555   4.515  10.236  1.4319 -3.1427 -1.4099
  114OSM    H7T11856   4.403   4.589  10.186 -1.4643  0.4309  1.8549
  114OSM    C8S11857   4.419   4.398  10.111 -0.0226 -0.7981  0.4962
  114OSM    H8S11858   4.311   4.378  10.094 -0.4159  1.7061 -0.3995
  114OSM    H8T11859   4.464   4.297  10.120  1.7349 -0.0139  0.8592
  114OSM    C9S11860   4.485   4.445   9.974 -0.6522  0.2383 -0.1966
  114OSM    H9S11861   4.591   4.475   9.987 -0.3233 -1.2344  0.7186
  114OSM    H9T11862   4.443   4.545   9.951 -0.2502  0.6998  1.0043
  114OSM   C10S11863   4.463   4.354   9.850 -0.0362  1.2242 -0.7132
  114OSM   H10S11864   4.358   4.326   9.873  0.6295 -2.7017 -1.6114
  114OSM   H10T11865   4.522   4.260   9.847 -0.4760  0.9664 -2.8395
  114OSM   C11S11866   4.454   4.417   9.706 -0.1428 -0.1262 -0.3124
  114OSM   H11S11867   4.560   4.438   9.680 -0.3506  0.2692 -0.8708
  114OSM   H11T11868   4.400   4.514   9.707 -1.1414 -0.6540 -0.8528
  114OSM   C12S11869   4.386   4.326   9.596 -0.3678 -1.0000 -0.8782
  114OSM   H12S11870   4.299   4.298   9.659  1.2952  0.5390  2.3703
  114OSM   H12T11871   4.441   4.230   9.584 -0.8966 -1.4537  0.2346
  114OSM   C13S11872   4.349   4.380   9.462 -0.2017  0.7719 -0.2712
  114OSM   H13S11873   4.431   4.435   9.411  0.9802 -0.6380  0.0300
  114OSM   H13T11874   4.269   4.454   9.482  0.5555  1.0208  2.1509
  114OSM   C14S11875   4.277   4.271   9.366  0.5382  0.4823 -0.1703
  114OSM   H14S11876   4.182   4.235   9.412  0.3209  1.8653  0.4889
  114OSM   H14T11877   4.349   4.186   9.377  0.5678  0.8385  3.7610
  114OSM   C15S11878   4.266   4.317   9.227 -0.9613  0.3289  0.8559
  114OSM   H15S11879   4.223   4.420   9.223 -1.2202  0.1609 -1.9033
  114OSM   H15T11880   4.200   4.248   9.172 -0.9703  0.1692  1.0634
  114OSM   C16S11881   4.405   4.303   9.151 -0.2180  0.1585 -0.1933
  114OSM   H16S11882   4.451   4.221   9.210 -2.1934 -2.2996 -1.8961
  114OSM   H16T11883   4.465   4.392   9.181  0.8706 -0.6164 -0.0201
  114OSM   C17S11884   4.392   4.278   9.001  0.2147  0.0186  0.3059
  114OSM   H17S11885   4.356   4.174   8.984  0.6470 -0.2028  0.7320
  114OSM   H17T11886   4.497   4.279   8.965 -0.1500 -2.1186 -0.9448
  114OSM   C18S11887   4.309   4.389   8.925  0.5922  0.5772  0.7555
  114OSM   H18S11888   4.207   4.378   8.968  0.8912 -2.3587  0.9191
  114OSM   H18T11889   4.301   4.365   8.817 -4.0806 -1.2973  1.2836
  114OSM   H18U11890   4.356   4.489   8.932  0.2014  0.6912  1.9729
  114OSM    C1F11891   4.785   4.760  10.542 -0.5226  0.6388 -0.2623
  114OSM     OF11892   4.887   4.707  10.600  0.1015 -0.4983  0.3488
  114OSM    C2F11893   4.807   4.846  10.421 -0.4010  0.0675  0.2453
  114OSM    H2F11894   4.815   4.953  10.450  0.1202  0.1853 -0.3184
  114OSM    H2G11895   4.726   4.815  10.351 -1.5752 -0.1815  1.6708
  114OSM    C3F11896   4.950   4.821  10.366  0.5587 -0.4082  0.1344
  114OSM    H3F11897   4.993   4.720  10.382  1.9891  0.6778  4.2603
  114OSM    H3G11898   5.027   4.874  10.426  2.7080 -1.4396 -1.5404
  114OSM    C4F11899   4.964   4.881  10.225  0.2446 -0.4085  0.5597
  114OSM    H4F11900   4.930   4.986  10.235  1.9471  0.4665 -1.9335
  114OSM    H4G11901   4.893   4.833  10.154 -0.2647  3.0898 -1.5195
  114OSM    C5F11902   5.107   4.873  10.158 -0.2660  0.1928 -1.0379
  114OSM    H5F11903   5.153   4.772  10.154  2.0475  1.1738 -0.8973
  114OSM    H5G11904   5.177   4.941  10.212  0.8976  0.4114 -2.7473
  114OSM    C6F11905   5.096   4.936  10.020 -0.5834  0.5390  0.0491
  114OSM    H6F11906   5.091   5.047  10.019  1.2060  0.7016 -2.9586
  114OSM    H6G11907   5.006   4.896   9.968  0.7992 -0.4726 -1.6886
  114OSM    C7F11908   5.219   4.906   9.928  0.3878 -0.0793 -0.1144
  114OSM    H7F11909   5.234   4.796   9.929 -0.9924 -0.2877  1.0661
  114OSM    H7G11910   5.314   4.943   9.973 -0.5409  3.7132 -0.8886
  114OSM    C8F11911   5.202   4.951   9.784 -0.1126 -0.2267 -0.1226
  114OSM    H8F11912   5.137   4.870   9.744  2.5497 -2.9796  0.6604
  114OSM    H8G11913   5.301   4.938   9.735  0.2006 -3.7617  1.1692
  114OSM    C9F11914   5.149   5.091   9.762  0.2260  0.3566 -0.3102
  114OSM    H9F11915   5.200   5.173   9.814 -1.2925  1.5192 -0.5778
  114OSM   C10F11916   5.042   5.125   9.697  0.9705 -0.4090  0.1291
  114OSM   H10F11917   4.999   5.226   9.706 -0.8582 -1.2800  2.1176
  114OSM   C11F11918   4.950   5.036   9.619  0.1759  0.3110  0.3898
  114OSM   H11F11919   4.857   5.097   9.618  0.7102  1.1557 -0.1958
  114OSM   H11G11920   4.925   4.938   9.665 -0.7494  0.5268  0.3740
  114OSM   C12F11921   4.982   5.016   9.466  0.5481  0.2225 -0.2925
  114OSM   H12F11922   4.905   4.944   9.431  0.4162 -0.1118  0.6419
  114OSM   H12G11923   5.075   4.954   9.466  0.2918 -0.1672 -0.4245
  114OSM   C13F11924   4.988   5.125   9.363  0.2848 -0.0652  0.5515
  114OSM   H13F11925   5.008   5.073   9.267 -0.4638 -0.9509  0.8652
  114OSM   H13G11926   5.072   5.191   9.393  0.5640 -0.8417  1.5292
  114OSM   C14F11927   4.857   5.216   9.344 -0.0486 -0.3825  0.7542
  114OSM   H14F11928   4.848   5.276   9.437 -0.5600  1.1694 -0.2573
  114OSM   H14G11929   4.769   5.154   9.318  0.8126 -0.9149 -1.0011
  114OSM   C15F11930   4.880   5.316   9.229  0.3479 -0.4642 -0.1961
  114OSM   H15F11931   4.950   5.285   9.149  0.2382  0.3964 -0.6348
  114OSM   H15G11932   4.918   5.405   9.283  0.9991 -0.5497 -0.5127
  114OSM   C16F11933   4.734   5.344   9.172 -0.9891 -0.0537  0.1145
  114OSM   H16F11934   4.666   5.343   9.259 -0.0465 -3.6813  1.0041
  114OSM   H16G11935   4.723   5.259   9.101 -0.7421  0.5110 -0.6103
  114OSM   C17F11936   4.728   5.477   9.090  0.3809  0.5237 -0.6539
  114OSM   H17F11937   4.749   5.557   9.164  0.4872 -0.1827  0.0878
  114OSM   H17G11938   4.621   5.486   9.061  0.6380  1.6928 -1.3134
  114OSM   C18F11939   4.811   5.499   8.971  0.6524  0.0493 -0.4663
  114OSM   H18F11940   4.762   5.562   8.893  1.5811 -1.7351 -2.5910
  114OSM   H18G11941   4.844   5.401   8.930 -1.8592 -0.7374 -0.8447
  114OSM   H18H11942   4.902   5.557   8.995  1.1448 -1.7280  2.3707
  115OSM      N11943   3.979   3.257   6.292  0.0939  0.3929  0.2483
  115OSM    C1511944   3.841   3.277   6.234 -0.5455  0.6422  0.2903
  115OSM   H15A11945   3.835   3.368   6.175  0.9349  1.5826  1.4940
  115OSM   H15B11946   3.773   3.288   6.317  0.5699 -0.1368  1.3369
  115OSM   H15C11947   3.807   3.190   6.180  0.9652  1.9563 -3.1085
  115OSM    C1411948   4.080   3.289   6.194 -0.6309  0.4955  0.0458
  115OSM   H14A11949   4.079   3.234   6.101  2.2619  0.6531 -0.1726
  115OSM   H14B11950   4.182   3.277   6.227 -1.2228  0.5385  1.9928
  115OSM   H14C11951   4.070   3.391   6.160  1.3917  0.3575 -1.0965
  115OSM    C1311952   4.000   3.344   6.406  0.4043 -0.6375 -0.5032
  115OSM   H13A11953   3.914   3.353   6.472  0.7188  1.5257 -0.3245
  115OSM   H13B11954   4.024   3.446   6.381  1.1465 -0.3215  1.3332
  115OSM   H13C11955   4.086   3.307   6.460 -1.7347 -0.0117  3.7784
  115OSM    C1211956   4.003   3.113   6.320 -0.2237  0.0232 -0.1626
  115OSM   H12A11957   3.927   3.071   6.386  1.2401 -0.0098  1.5734
  115OSM   H12B11958   4.091   3.105   6.382  0.4232  1.5194 -0.8586
  115OSM    C1111959   4.022   3.019   6.197 -0.0989  0.2323 -0.1623
  115OSM   H11A11960   4.127   3.035   6.164 -0.5348  1.5436 -0.9785
  115OSM   H11B11961   3.961   3.036   6.106 -1.7506  1.5835  1.1311
  115OSM      P11962   3.861   2.820   6.235 -0.4367 -0.0494  0.0951
  115OSM    O1311963   3.761   2.931   6.240  0.0654  0.1221 -0.2348
  115OSM    O1411964   3.851   2.726   6.120 -0.0139 -0.0424 -0.4954
  115OSM    O1111965   3.849   2.734   6.377 -0.1324  0.4542 -0.1135
  115OSM    O1211966   4.007   2.884   6.238  0.2347 -0.3731 -0.1515
  115OSM    C1S11967   3.829   2.812   6.498  0.4961 -0.0778  0.3297
  115OSM    H1S11968   3.722   2.797   6.521  0.2617  0.9213 -0.0888
  115OSM    H1T11969   3.838   2.921   6.482 -1.0457 -0.0624 -0.5968
  115OSM     NF11970   3.885   2.860   6.728 -0.4064 -0.0893 -0.0856
  115OSM    HNF11971   3.957   2.925   6.748 -0.4742  0.2923 -0.9922
  115OSM    C2S11972   3.915   2.773   6.618  0.7479  0.5387  0.9433
  115OSM    H2S11973   3.891   2.667   6.643 -0.5642  0.3855 -0.7834
  115OSM    C3S11974   4.060   2.761   6.579 -0.0646 -0.3229  0.3698
  115OSM    H3S11975   4.099   2.854   6.534 -2.0502 -0.9131 -2.9241
  115OSM     O311976   4.084   2.669   6.471  0.2320  0.6924 -0.1163
  115OSM    HO311977   3.994   2.667   6.437 -0.0519 -0.7637  0.6423
  115OSM    C4S11978   4.148   2.720   6.696  0.5507 -0.6619 -0.5445
  115OSM    H4S11979   4.190   2.803   6.753 -1.0345  0.3691 -0.7974
  115OSM    C5S11980   4.167   2.599   6.747 -0.4433 -0.0988 -0.2451
  115OSM    H5S11981   4.104   2.521   6.702 -0.2903 -0.6397  0.4586
  115OSM    C6S11982   4.229   2.579   6.884 -1.2933 -0.2704  1.2190
  115OSM    H6S11983   4.251   2.668   6.947 -0.3451 -0.2643  0.8907
  115OSM    H6T11984   4.330   2.537   6.865 -0.4050  1.7966  1.1478
  115OSM    C7S11985   4.148   2.482   6.976  0.4443  0.5427  0.2424
  115OSM    H7S11986   4.123   2.385   6.927 -1.3248  0.1233  1.8553
  115OSM    H7T11987   4.048   2.526   6.998  0.3745  0.1498  0.7141
  115OSM    C8S11988   4.226   2.455   7.106  0.1603 -0.1881  0.1203
  115OSM    H8S11989   4.238   2.553   7.157  0.1940 -0.5843  0.8934
  115OSM    H8T11990   4.332   2.429   7.085  0.0542 -4.1103  3.2484
  115OSM    C9S11991   4.182   2.335   7.190 -0.8899 -0.0782  0.0031
  115OSM    H9S11992   4.209   2.236   7.147  0.3219  0.5565 -0.7789
  115OSM    H9T11993   4.072   2.348   7.188 -0.8159  0.5541 -1.7610
  115OSM   C10S11994   4.236   2.343   7.332  0.0894  0.0158  0.4605
  115OSM   H10S11995   4.197   2.442   7.367 -0.5934  0.1949 -0.7450
  115OSM   H10T11996   4.347   2.349   7.330  0.0664  2.5627  2.1086
  115OSM   C11S11997   4.184   2.234   7.419  1.0386 -0.0076 -1.1206
  115OSM   H11S11998   4.214   2.136   7.375  3.1428  1.1547 -2.4298
  115OSM   H11T11999   4.073   2.236   7.429  1.0367 -1.8128 -0.3367
  115OSM   C12S12000   4.238   2.233   7.565  0.3384 -0.5410 -0.2186
  115OSM   H12S12001   4.249   2.336   7.603 -1.1177 -0.4419 -0.0205
  115OSM   H12T12002   4.345   2.201   7.567 -0.0954 -2.0244  0.4742
  115OSM   C13S12003   4.162   2.147   7.664  0.2674 -0.0525  0.5066
  115OSM   H13S12004   4.151   2.048   7.615 -0.1182  0.3550 -0.2461
  115OSM   H13T12005   4.063   2.190   7.689  0.3055 -0.5829  1.6444
  115OSM   C14S12006   4.236   2.120   7.796 -0.1313 -0.2694  0.5586
  115OSM   H14S12007   4.342   2.106   7.767 -0.6514  1.1581 -2.4172
  115OSM   H14T12008   4.206   2.027   7.849 -0.3686  0.3359  1.5019
  115OSM   C15S12009   4.240   2.231   7.908 -0.4460 -0.8807 -0.8158
  115OSM   H15S12010   4.141   2.251   7.955  1.0671  0.9530  1.8481
  115OSM   H15T12011   4.267   2.321   7.848 -0.1138  0.2996  1.0542
  115OSM   C16S12012   4.354   2.210   8.009  0.1077  0.0587  0.0916
  115OSM   H16S12013   4.443   2.214   7.943 -0.7534 -1.3490 -1.2048
  115OSM   H16T12014   4.337   2.108   8.048 -2.4448 -0.2019 -1.4624
  115OSM   C17S12015   4.356   2.302   8.133  0.0341 -0.2887  0.5851
  115OSM   H17S12016   4.268   2.276   8.196  0.2046  0.5134  1.1693
  115OSM   H17T12017   4.363   2.407   8.098  0.7290 -0.7602 -0.7350
  115OSM   C18S12018   4.476   2.264   8.220  0.6915 -0.1145  0.0385
  115OSM   H18S12019   4.494   2.155   8.221 -0.5477 -0.3378  1.3655
  115OSM   H18T12020   4.454   2.288   8.327 -1.3824  3.1428 -0.9576
  115OSM   H18U12021   4.566   2.323   8.193  0.5069 -1.5524 -4.5784
  115OSM    C1F12022   3.768   2.875   6.790  0.7981 -0.0925 -0.0626
  115OSM     OF12023   3.670   2.800   6.754 -0.5774 -0.4675  1.1376
  115OSM    C2F12024   3.748   2.973   6.904 -0.3842  0.6113 -0.1711
  115OSM    H2F12025   3.688   2.919   6.981 -1.0748  2.4447  0.6324
  115OSM    H2G12026   3.689   3.060   6.868 -0.0182  0.5987 -0.8051
  115OSM    C3F12027   3.876   3.019   6.974 -0.0759 -0.3587 -0.2811
  115OSM    H3F12028   3.852   3.109   7.035 -1.0428  0.1098 -1.3279
  115OSM    H3G12029   3.956   3.047   6.902  0.4121 -0.9937  0.0095
  115OSM    C4F12030   3.936   2.911   7.073 -0.1303  0.2522 -1.2987
  115OSM    H4F12031   3.957   2.810   7.030 -2.0268 -0.6233 -0.2888
  115OSM    H4G12032   3.854   2.880   7.141  1.3416 -0.3249  0.3086
  115OSM    C5F12033   4.062   2.952   7.157  0.4442 -0.0638  0.3043
  115OSM    H5F12034   4.050   3.058   7.190 -1.0446 -0.4978  1.2824
  115OSM    H5G12035   4.146   2.948   7.085 -0.0599 -0.4501 -0.2739
  115OSM    C6F12036   4.090   2.862   7.273 -0.4201 -0.6699 -0.4773
  115OSM    H6F12037   4.190   2.892   7.313 -1.4981  0.0988  1.8027
  115OSM    H6G12038   4.093   2.754   7.246  2.5968 -1.7575  3.2255
  115OSM    C7F12039   4.000   2.879   7.398 -0.5470 -0.5227 -0.0410
  115OSM    H7F12040   3.900   2.836   7.375 -0.3275 -1.7887  1.2099
  115OSM    H7G12041   3.979   2.987   7.413  0.2191 -0.0225 -2.2191
  115OSM    C8F12042   4.051   2.805   7.521  0.8648  0.2671  0.2005
  115OSM    H8F12043   3.978   2.831   7.601 -0.5834 -1.9393 -0.3259
  115OSM    H8G12044   4.149   2.847   7.554  0.3769  2.0043 -0.4816
  115OSM    C9F12045   4.061   2.656   7.503 -0.5754  0.8319  0.2523
  115OSM    H9F12046   4.112   2.625   7.410  0.6586 -1.3775  1.5770
  115OSM   C10F12047   4.006   2.561   7.584 -0.2745 -0.3893  0.0777
  115OSM   H10F12048   4.025   2.453   7.573 -2.0641 -0.7071 -0.1000
  115OSM   C11F12049   3.944   2.589   7.719 -0.2195  0.0528 -0.7378
  115OSM   H11F12050   3.881   2.504   7.753 -0.0415  0.4823  0.7362
  115OSM   H11G12051   3.878   2.678   7.721  1.4109  1.3801 -2.4283
  115OSM   C12F12052   4.040   2.620   7.832  0.2633  0.1489  0.7416
  115OSM   H12F12053   4.064   2.728   7.843  0.1031  0.1913  0.6758
  115OSM   H12G12054   4.141   2.575   7.825  0.1008 -0.5074  2.3656
  115OSM   C13F12055   3.982   2.579   7.962  0.1724 -0.2232  0.9809
  115OSM   H13F12056   3.954   2.471   7.971  0.7617 -0.4557  0.0935
  115OSM   H13G12057   3.886   2.635   7.971 -1.6373 -1.7939 -4.5810
  115OSM   C14F12058   4.076   2.612   8.076  0.6400 -0.4819 -0.3975
  115OSM   H14F12059   4.052   2.717   8.104 -0.2150 -0.4354 -1.2196
  115OSM   H14G12060   4.181   2.613   8.041  0.7433  3.5210 -0.3747
  115OSM   C15F12061   4.051   2.526   8.200  0.2255 -0.3642 -0.2677
  115OSM   H15F12062   4.056   2.418   8.175 -0.2498  0.0011 -2.0960
  115OSM   H15G12063   3.946   2.538   8.236  1.0717 -0.1838  2.4203
  115OSM   C16F12064   4.140   2.567   8.324 -0.2647  0.5765  0.0328
  115OSM   H16F12065   4.236   2.570   8.268 -0.6242  0.5038 -0.5973
  115OSM   H16G12066   4.133   2.477   8.389  0.1380  1.5021  1.4020
  115OSM   C17F12067   4.080   2.691   8.397  0.2851  0.5731  0.3332
  115OSM   H17F12068   3.984   2.655   8.439  1.1832 -1.3993  0.8116
  115OSM   H17G12069   4.061   2.765   8.317 -0.1822 -1.3097 -1.3945
  115OSM   C18F12070   4.150   2.753   8.515  0.1890  0.0500  0.0315
  115OSM   H18F12071   4.198   2.688   8.591 -0.3358 -0.8383 -0.3879
  115OSM   H18G12072   4.077   2.826   8.554 -1.8664 -1.0851 -1.5048
  115OSM   H18H12073   4.235   2.807   8.469  0.6481 -1.2641 -0.7222
  116OSM      N12074   3.673   0.489   6.360 -0.6454 -0.6155  0.5614
  116OSM    C1512075   3.752   0.513   6.235  0.1252 -0.4816 -0.3713
  116OSM   H15A12076   3.851   0.472   6.249  0.3272  0.1886  0.2525
  116OSM   H15B12077   3.753   0.617   6.203  0.3735 -1.1633 -2.8146
  116OSM   H15C12078   3.701   0.475   6.148  0.0014 -1.6295  0.1934
  116OSM    C1412079   3.708   0.581   6.478 -0.3758 -0.7240 -0.5035
  116OSM   H14A12080   3.811   0.567   6.509 -1.0462  0.6332  2.7172
  116OSM   H14B12081   3.643   0.557   6.560  1.6644  1.7322  2.0392
  116OSM   H14C12082   3.688   0.685   6.455  0.8541 -0.4329 -0.3372
  116OSM    C1312083   3.531   0.515   6.337  0.0504  0.2734  0.3695
  116OSM   H13A12084   3.513   0.617   6.305 -2.0303 -0.1122  0.1726
  116OSM   H13B12085   3.472   0.489   6.424 -0.6633 -0.4706 -0.3102
  116OSM   H13C12086   3.490   0.462   6.253  1.5484 -0.5159  0.1220
  116OSM    C1212087   3.692   0.342   6.399  0.1684  0.4332 -0.0983
  116OSM   H12A12088   3.643   0.321   6.493  1.7008  2.4974  1.2386
  116OSM   H12B12089   3.793   0.320   6.430 -0.2822 -0.2629  0.9319
  116OSM    C1112090   3.641   0.232   6.302 -0.5320  0.4247  1.0984
  116OSM   H11A12091   3.536   0.242   6.265 -0.1322 -0.7149 -0.4483
  116OSM   H11B12092   3.639   0.138   6.360 -2.0613 -0.8600 -0.8944
  116OSM      P12093   3.843   0.109   6.188 -0.1190  0.1327 -0.2327
  116OSM    O1312094   3.775  -0.026   6.177 -0.0722  0.3117  0.4633
  116OSM    O1412095   3.938   0.133   6.076 -0.0600  0.0763  0.1924
  116OSM    O1112096   3.920   0.119   6.328 -0.1378 -0.5440  0.7774
  116OSM    O1212097   3.738   0.224   6.196  0.2673  0.2852  0.5765
  116OSM    C1S12098   4.018   0.229   6.334  0.1162 -0.2952 -0.0741
  116OSM    H1S12099   3.967   0.327   6.348 -0.1889 -0.3491 -0.7662
  116OSM    H1T12100   4.095   0.225   6.255  2.0691 -3.1563  1.7778
  116OSM     NF12101   4.150   0.335   6.517 -0.3122 -0.4130 -0.3664
  116OSM    HNF12102   4.236   0.369   6.481 -1.4038  0.9945 -1.7497
  116OSM    C2S12103   4.100   0.206   6.463  0.6216  0.8225 -0.1718
  116OSM    H2S12104   4.030   0.166   6.539 -2.3884  1.5568 -2.3633
  116OSM    C3S12105   4.212   0.096   6.436 -0.4431  0.1364  0.8226
  116OSM    H3S12106   4.271   0.130   6.349  0.0249 -1.0441  0.6565
  116OSM     O312107   4.160  -0.035   6.402 -0.5030  0.2703  0.5306
  116OSM    HO312108   4.065  -0.027   6.395 -0.3647  1.4337 -0.3108
  116OSM    C4S12109   4.304   0.084   6.555  0.1977 -0.1059  0.1908
  116OSM    H4S12110   4.392   0.150   6.544  0.8439 -0.7772  1.2449
  116OSM    C5S12111   4.280   0.012   6.665  0.9233 -0.6683 -0.6947
  116OSM    H5S12112   4.185  -0.040   6.679  1.1451 -0.4536  2.0361
  116OSM    C6S12113   4.371   0.010   6.788  0.9572 -0.6872 -0.8251
  116OSM    H6S12114   4.467   0.064   6.784  0.1816  0.8094  0.0559
  116OSM    H6T12115   4.398  -0.095   6.814  1.6986 -0.7449 -1.7795
  116OSM    C7S12116   4.280   0.060   6.900  0.4948 -0.2498  0.2673
  116OSM    H7S12117   4.183   0.007   6.913  0.9809 -1.0218  0.7906
  116OSM    H7T12118   4.256   0.167   6.884  0.8439 -0.0297  1.1862
  116OSM    C8S12119   4.346   0.053   7.041  0.6229  0.6616  0.6379
  116OSM    H8S12120   4.267   0.064   7.119 -1.0980 -0.1617 -0.9328
  116OSM    H8T12121   4.419   0.135   7.055 -1.3988  3.2058 -2.4172
  116OSM    C9S12122   4.391  -0.092   7.080 -0.0571  0.6512 -0.7962
  116OSM    H9S12123   4.471  -0.124   7.008 -0.3181  3.3510 -2.4313
  116OSM    H9T12124   4.310  -0.164   7.059  0.8692 -0.9146  0.7220
  116OSM   C10S12125   4.427  -0.115   7.230 -0.0729  0.5516  0.1563
  116OSM   H10S12126   4.523  -0.064   7.256  0.0197  0.5829 -0.2424
  116OSM   H10T12127   4.453  -0.223   7.231 -3.9703 -0.5367  0.6227
  116OSM   C11S12128   4.326  -0.089   7.341  0.1586  0.1472 -0.1394
  116OSM   H11S12129   4.264  -0.181   7.348  1.7890 -0.9814  0.0679
  116OSM   H11T12130   4.256  -0.008   7.312  0.5287 -0.3094 -2.5071
  116OSM   C12S12131   4.385  -0.043   7.478 -0.7110  0.3678 -0.3933
  116OSM   H12S12132   4.456   0.042   7.466 -1.9057  1.5442  0.6282
  116OSM   H12T12133   4.435  -0.126   7.533 -0.8687  1.6854  1.8922
  116OSM   C13S12134   4.270  -0.006   7.575  0.5545 -0.5917 -1.0803
  116OSM   H13S12135   4.218  -0.102   7.597  1.9531 -1.0669  0.4061
  116OSM   H13T12136   4.193   0.042   7.511 -0.6357 -0.9762  0.0100
  116OSM   C14S12137   4.313   0.048   7.716 -0.5441  0.2809 -0.0913
  116OSM   H14S12138   4.395   0.121   7.701  0.9703 -1.2123  0.5326
  116OSM   H14T12139   4.361  -0.046   7.750  0.9981  0.3809 -1.8038
  116OSM   C15S12140   4.215   0.111   7.813 -0.0674  0.3541  0.2247
  116OSM   H15S12141   4.132   0.043   7.840 -0.2911 -0.1240 -1.5206
  116OSM   H15T12142   4.167   0.202   7.771 -0.6002  0.2226  0.5502
  116OSM   C16S12143   4.281   0.156   7.943  0.7795 -0.1889  0.2602
  116OSM   H16S12144   4.361   0.232   7.930 -0.4885  0.8903 -1.6724
  116OSM   H16T12145   4.332   0.070   7.992 -0.1811 -0.1387  1.4145
  116OSM   C17S12146   4.177   0.190   8.053 -0.2931  0.5199 -0.0531
  116OSM   H17S12147   4.135   0.096   8.092  0.6273  0.6503  1.3364
  116OSM   H17T12148   4.087   0.245   8.018 -0.6258 -0.4106 -0.6937
  116OSM   C18S12149   4.235   0.260   8.180 -0.1865 -0.2599  0.1336
  116OSM   H18S12150   4.150   0.264   8.252 -2.3971  0.1102 -2.3397
  116OSM   H18T12151   4.261   0.367   8.164  0.6998 -0.7863 -2.3595
  116OSM   H18U12152   4.323   0.212   8.228 -0.8770 -2.7401 -0.9489
  116OSM    C1F12153   4.075   0.419   6.587 -0.1377 -0.3546  0.1882
  116OSM     OF12154   3.954   0.401   6.604  0.1150 -0.2642 -0.4268
  116OSM    C2F12155   4.142   0.535   6.629 -0.7585  0.3917 -0.6609
  116OSM    H2F12156   4.125   0.628   6.572  0.0200  0.4680 -0.7719
  116OSM    H2G12157   4.251   0.520   6.634 -1.1140 -2.4654  0.5731
  116OSM    C3F12158   4.097   0.558   6.772  0.4827 -0.6390 -0.9192
  116OSM    H3F12159   3.987   0.553   6.779  0.5735 -1.1646  0.3055
  116OSM    H3G12160   4.130   0.661   6.798 -2.0961  0.5759 -2.0604
  116OSM    C4F12161   4.155   0.459   6.876  0.4322 -0.7345 -0.0606
  116OSM    H4F12162   4.256   0.419   6.853  1.2325  1.8808 -1.4750
  116OSM    H4G12163   4.096   0.365   6.867  2.5432 -2.0383 -1.1821
  116OSM    C5F12164   4.162   0.508   7.018 -0.4824 -0.2672  0.2482
  116OSM    H5F12165   4.070   0.569   7.033  0.9310  1.7179  1.3492
  116OSM    H5G12166   4.253   0.569   7.038  0.8832 -2.5553  1.4040
  116OSM    C6F12167   4.147   0.395   7.116  0.0249 -0.4788 -0.0857
  116OSM    H6F12168   4.216   0.313   7.085 -2.6589 -1.8885 -2.7670
  116OSM    H6G12169   4.041   0.364   7.111 -1.1198  2.7941  1.3372
  116OSM    C7F12170   4.189   0.436   7.257 -0.0506 -0.5140 -0.2185
  116OSM    H7F12171   4.112   0.507   7.291 -2.0135 -2.4458 -0.4074
  116OSM    H7G12172   4.291   0.480   7.270 -0.0451 -0.7322  0.5122
  116OSM    C8F12173   4.161   0.319   7.364  1.0614  0.5280 -0.1269
  116OSM    H8F12174   4.198   0.216   7.344 -1.2604 -0.5270  0.6643
  116OSM    H8G12175   4.051   0.306   7.369  1.3698 -2.8859  0.2875
  116OSM    C9F12176   4.227   0.369   7.493 -0.6788  0.1743 -0.1886
  116OSM    H9F12177   4.331   0.342   7.513 -0.7618 -0.0349 -0.0386
  116OSM   C10F12178   4.162   0.436   7.592  0.6614 -0.0625  1.2161
  116OSM   H10F12179   4.221   0.485   7.670 -0.4066  0.7018  1.5580
  116OSM   C11F12180   4.015   0.460   7.594  0.7810 -0.0630  0.4939
  116OSM   H11F12181   3.970   0.359   7.600 -0.1915  0.1519 -2.1483
  116OSM   H11G12182   3.972   0.492   7.497 -1.2265 -0.8600  1.0702
  116OSM   C12F12183   3.973   0.548   7.711  1.0521 -0.5731 -0.2313
  116OSM   H12F12184   3.862   0.550   7.709  1.0443 -1.2560 -1.8652
  116OSM   H12G12185   4.001   0.653   7.690 -1.1787 -0.3151 -2.4063
  116OSM   C13F12186   4.018   0.505   7.850 -0.6091  0.6274 -0.4361
  116OSM   H13F12187   4.128   0.515   7.863 -0.9739  4.0011  0.9398
  116OSM   H13G12188   3.985   0.400   7.865 -1.1611  1.0646  1.8593
  116OSM   C14F12189   3.960   0.579   7.966  0.4863  0.4307  0.2257
  116OSM   H14F12190   3.849   0.585   7.966  0.5157  1.5548  1.7773
  116OSM   H14G12191   4.000   0.682   7.953 -0.7481  0.7133 -1.8304
  116OSM   C15F12192   4.010   0.532   8.104  0.3356 -0.3068  0.3895
  116OSM   H15F12193   4.120   0.527   8.121  0.2291 -0.1315  1.2067
  116OSM   H15G12194   3.970   0.429   8.113 -0.2128 -0.1425 -0.1629
  116OSM   C16F12195   3.952   0.617   8.221  0.3738  0.1156  0.0077
  116OSM   H16F12196   3.841   0.616   8.222  0.2981 -3.3426  0.6537
  116OSM   H16G12197   3.989   0.721   8.214 -1.3189  0.8405  1.2052
  116OSM   C17F12198   3.987   0.567   8.364  0.0827 -0.5319  0.4810
  116OSM   H17F12199   4.098   0.563   8.359  0.2962  1.6844  2.2768
  116OSM   H17G12200   3.942   0.467   8.383  0.5815 -0.7410  0.5890
  116OSM   C18F12201   3.941   0.662   8.477 -0.5326  0.2359  0.3247
  116OSM   H18F12202   3.832   0.673   8.458 -0.1520  2.3747 -0.8900
  116OSM   H18G12203   4.002   0.754   8.485 -0.4545  0.1410  0.8740
  116OSM   H18H12204   3.954   0.610   8.574  1.4307 -0.9361 -0.5107
  117OSM      N12205   1.331   2.413   6.214  0.5674  0.0578  0.4007
  117OSM    C1512206   1.460   2.457   6.279  0.0217 -0.3843 -0.7265
  117OSM   H15A12207   1.544   2.408   6.233 -0.5465 -1.7165 -0.3898
  117OSM   H15B12208   1.458   2.423   6.381 -0.1205  0.7028 -0.3501
  117OSM   H15C12209   1.469   2.564   6.267  2.0670 -0.4245  0.1445
  117OSM    C1412210   1.340   2.262   6.207 -0.0370  0.0619 -0.0614
  117OSM   H14A12211   1.250   2.204   6.195  0.7741 -1.0583 -1.0903
  117OSM   H14B12212   1.397   2.222   6.290  0.9109 -0.5506 -0.9743
  117OSM   H14C12213   1.395   2.231   6.119 -1.5635  1.3850 -1.5408
  117OSM    C1312214   1.216   2.436   6.309  1.1056 -0.5024  0.3249
  117OSM   H13A12215   1.204   2.542   6.326 -0.7668 -0.6848  0.3751
  117OSM   H13B12216   1.233   2.392   6.406  3.3803  0.7811  0.5582
  117OSM   H13C12217   1.122   2.400   6.270  1.8226  0.8272 -2.8824
  117OSM    C1212218   1.307   2.464   6.080  0.2076 -0.2068  0.4176
  117OSM   H12A12219   1.219   2.425   6.030  0.2333  0.5392 -0.2269
  117OSM   H12B12220   1.389   2.432   6.017 -1.0126 -1.9133 -0.3982
  117OSM    C1112221   1.283   2.614   6.066 -0.0296  0.3551  0.2994
  117OSM   H11A12222   1.277   2.631   5.957 -1.9259 -1.4978  0.0588
  117OSM   H11B12223   1.367   2.674   6.109 -0.1316  0.0338  0.9565
  117OSM      P12224   1.074   2.777   6.095  0.2690  0.0770  0.3651
  117OSM    O1312225   1.124   2.855   5.978  0.3973  0.5488  0.0300
  117OSM    O1412226   0.936   2.727   6.083  0.1505  0.7350 -0.2753
  117OSM    O1112227   1.094   2.869   6.225 -0.5110  0.0076 -0.5294
  117OSM    O1212228   1.158   2.647   6.128 -0.3639  0.0557 -0.2936
  117OSM    C1S12229   1.127   2.801   6.347 -0.1248  0.0699  0.0898
  117OSM    H1S12230   1.214   2.735   6.325  1.1130  1.9129 -0.7828
  117OSM    H1T12231   1.033   2.752   6.380 -1.6932  0.1208 -3.8611
  117OSM     NF12232   1.272   2.832   6.551 -0.2640 -0.2943 -0.2762
  117OSM    HNF12233   1.214   2.795   6.622 -0.9517  0.1637 -0.5822
  117OSM    C2S12234   1.181   2.898   6.456 -0.2882 -0.2979 -0.2834
  117OSM    H2S12235   1.235   2.980   6.404 -1.7279  1.4022  0.7937
  117OSM    C3S12236   1.055   2.968   6.516  0.1229 -0.3583 -0.3590
  117OSM    H3S12237   0.984   2.892   6.556 -1.4520  0.4832 -1.4686
  117OSM     O312238   0.984   3.032   6.417  0.7922 -0.2536  0.3890
  117OSM    HO312239   1.013   2.975   6.346 -0.6496 -1.0012  0.3843
  117OSM    C4S12240   1.090   3.066   6.623  0.4392  0.3088  0.1560
  117OSM    H4S12241   1.158   3.145   6.587  0.5219  0.8780  1.5076
  117OSM    C5S12242   1.043   3.072   6.750 -0.1657 -0.3634  0.4783
  117OSM    H5S12243   0.966   2.999   6.779 -1.6345  1.0108  0.1698
  117OSM    C6S12244   1.091   3.181   6.844 -0.0123 -0.3712 -0.1129
  117OSM    H6S12245   1.003   3.230   6.890 -0.9995 -0.8962 -1.3582
  117OSM    H6T12246   1.145   3.260   6.787 -0.3636 -0.2309 -0.2565
  117OSM    C7S12247   1.198   3.138   6.947  0.0859 -0.0963 -0.6639
  117OSM    H7S12248   1.297   3.125   6.898 -0.2421 -0.3593 -1.2741
  117OSM    H7T12249   1.162   3.041   6.987 -2.5226  1.5485  1.2896
  117OSM    C8S12250   1.226   3.231   7.059  0.7402 -0.6667 -0.2769
  117OSM    H8S12251   1.299   3.177   7.123 -0.2763 -2.5910 -0.6548
  117OSM    H8T12252   1.132   3.249   7.115  1.1822  0.0242  0.2706
  117OSM    C9S12253   1.275   3.375   7.010 -0.3028 -0.1573  0.4642
  117OSM    H9S12254   1.186   3.420   6.962  1.0629  0.9446 -1.1017
  117OSM    H9T12255   1.353   3.353   6.934 -0.3204  1.4356 -0.0385
  117OSM   C10S12256   1.346   3.460   7.107 -0.2394 -0.3415 -0.2674
  117OSM   H10S12257   1.274   3.473   7.190 -1.0608  1.5549 -1.2244
  117OSM   H10T12258   1.352   3.556   7.051 -1.0257 -0.4347 -0.5219
  117OSM   C11S12259   1.482   3.405   7.162  0.1643  0.0859 -0.0934
  117OSM   H11S12260   1.532   3.347   7.082  0.6460  0.1402  0.1668
  117OSM   H11T12261   1.466   3.325   7.239  2.0313 -0.6512 -0.4283
  117OSM   C12S12262   1.575   3.506   7.228 -0.2005 -0.1525 -0.6366
  117OSM   H12S12263   1.609   3.589   7.162  0.9130  0.5346  0.7509
  117OSM   H12T12264   1.666   3.452   7.261  1.3244  1.3246 -2.1997
  117OSM   C13S12265   1.513   3.577   7.354  0.4059  0.3861  0.0303
  117OSM   H13S12266   1.439   3.652   7.319 -1.6667 -1.3257  0.4703
  117OSM   H13T12267   1.601   3.610   7.414  0.5120  0.6738 -0.2834
  117OSM   C14S12268   1.440   3.475   7.449 -0.3252  0.8629  0.5072
  117OSM   H14S12269   1.502   3.387   7.475 -0.4963  0.7700  0.6044
  117OSM   H14T12270   1.356   3.429   7.393 -0.4252 -0.7233  1.8731
  117OSM   C15S12271   1.387   3.537   7.578 -0.6186  0.2142  0.1770
  117OSM   H15S12272   1.323   3.468   7.637 -3.6525  2.2655 -0.4594
  117OSM   H15T12273   1.331   3.629   7.550  2.6692  2.0024 -1.0704
  117OSM   C16S12274   1.493   3.592   7.673  0.5924  0.7910  0.1890
  117OSM   H16S12275   1.528   3.691   7.635 -2.3426  2.4806  1.5559
  117OSM   H16T12276   1.578   3.521   7.685 -1.5676 -1.9023  0.3938
  117OSM   C17S12277   1.437   3.638   7.806  0.7289  0.0472 -0.3823
  117OSM   H17S12278   1.372   3.559   7.851  0.3987 -0.6081 -1.9010
  117OSM   H17T12279   1.356   3.714   7.799 -0.3768 -1.0491 -0.0588
  117OSM   C18S12280   1.542   3.690   7.905  0.0609  0.2802  0.1133
  117OSM   H18S12281   1.506   3.705   8.008 -1.7071 -2.3284 -0.0331
  117OSM   H18T12282   1.571   3.791   7.868 -0.4078 -0.4050 -2.3225
  117OSM   H18U12283   1.634   3.627   7.909  0.5062  0.8448 -0.7605
  117OSM    C1F12284   1.397   2.800   6.520  0.1821 -0.8274  0.1018
  117OSM     OF12285   1.454   2.855   6.421 -0.3498  0.1300  0.7073
  117OSM    C2F12286   1.460   2.713   6.620  0.3676  0.1649  0.6461
  117OSM    H2F12287   1.427   2.610   6.598  0.2931  0.0619  1.2220
  117OSM    H2G12288   1.431   2.749   6.721 -0.7671  0.4195  0.2462
  117OSM    C3F12289   1.614   2.706   6.604 -0.2943  1.0518  0.0095
  117OSM    H3F12290   1.671   2.800   6.625  0.7918  0.7850 -1.5265
  117OSM    H3G12291   1.641   2.684   6.498  0.4836  2.0286 -0.0118
  117OSM    C4F12292   1.684   2.599   6.691 -0.1367  0.5511  1.3976
  117OSM    H4F12293   1.789   2.592   6.656 -0.5229  0.7952  0.1472
  117OSM    H4G12294   1.631   2.504   6.666 -0.4777  0.6971  1.5555
  117OSM    C5F12295   1.690   2.641   6.832  0.3044 -0.8036  0.2210
  117OSM    H5F12296   1.592   2.669   6.876 -0.3192  1.0505 -2.1528
  117OSM    H5G12297   1.754   2.732   6.843 -0.3434 -0.2398 -0.5614
  117OSM    C6F12298   1.749   2.537   6.931 -0.2063 -0.0666 -0.6208
  117OSM    H6F12299   1.844   2.504   6.885  1.4703  2.1452  1.0303
  117OSM    H6G12300   1.684   2.446   6.927  0.8878 -0.8514 -0.9377
  117OSM    C7F12301   1.781   2.590   7.071 -0.1296 -0.6292  0.2568
  117OSM    H7F12302   1.702   2.664   7.096 -0.6845 -0.4390 -1.8543
  117OSM    H7G12303   1.879   2.642   7.079  1.6189 -3.7712  0.8647
  117OSM    C8F12304   1.782   2.483   7.177  0.4678 -0.4334 -0.1665
  117OSM    H8F12305   1.685   2.429   7.183 -0.5055  1.2472 -0.3121
  117OSM    H8G12306   1.796   2.537   7.273  3.6694 -1.3955  0.0232
  117OSM    C9F12307   1.896   2.381   7.163  0.6003 -0.4725 -0.1249
  117OSM    H9F12308   1.977   2.410   7.094 -0.3667 -0.7001 -1.4001
  117OSM   C10F12309   1.893   2.257   7.205  0.3459 -0.1343  0.2216
  117OSM   H10F12310   1.978   2.193   7.178 -0.7943 -1.2704 -0.7303
  117OSM   C11F12311   1.783   2.188   7.281  0.1440  0.6923 -0.0805
  117OSM   H11F12312   1.721   2.120   7.218 -0.2842  0.6293  0.3941
  117OSM   H11G12313   1.707   2.262   7.315 -1.4389  0.1942 -2.2637
  117OSM   C12F12314   1.834   2.101   7.398 -1.2131 -0.0940 -0.2550
  117OSM   H12F12315   1.907   2.027   7.358 -0.1036  1.8246 -1.9622
  117OSM   H12G12316   1.745   2.061   7.451 -1.5890  0.0435 -0.7764
  117OSM   C13F12317   1.905   2.183   7.496 -0.1439 -0.1247 -0.5014
  117OSM   H13F12318   1.837   2.237   7.566  1.4810  2.9089 -1.1365
  117OSM   H13G12319   1.973   2.254   7.444 -1.6924  2.0885  0.3364
  117OSM   C14F12320   2.004   2.103   7.581 -0.0858 -0.7866  0.2592
  117OSM   H14F12321   2.090   2.080   7.514  0.7669  1.2641  0.5587
  117OSM   H14G12322   1.955   2.008   7.608 -1.3974  0.9095  4.7900
  117OSM   C15F12323   2.048   2.179   7.706 -0.0895 -0.0750  0.6575
  117OSM   H15F12324   1.959   2.218   7.760 -0.6677  1.5127 -1.3038
  117OSM   H15G12325   2.109   2.267   7.675 -2.6738  1.8347  0.6174
  117OSM   C16F12326   2.141   2.085   7.793 -0.2095 -0.5738  0.7644
  117OSM   H16F12327   2.217   2.042   7.725 -1.7707 -1.3448 -0.5358
  117OSM   H16G12328   2.091   2.008   7.855  0.1035 -0.8299  0.6963
  117OSM   C17F12329   2.209   2.181   7.908  0.0107  0.2694  0.4741
  117OSM   H17F12330   2.257   2.266   7.856 -0.6095  0.1843 -0.2632
  117OSM   H17G12331   2.126   2.221   7.970 -0.4314  0.0689  0.0236
  117OSM   C18F12332   2.302   2.098   8.000 -0.0814  0.5781 -0.2603
  117OSM   H18F12333   2.379   2.059   7.932 -0.0642 -1.7102  0.9776
  117OSM   H18G12334   2.238   2.017   8.043 -1.5717 -0.1324 -3.5401
  117OSM   H18H12335   2.335   2.162   8.085  0.6692 -0.7846  0.5104
  118OSM      N12336   0.060   4.345   6.528 -0.7507 -0.2158 -0.5126
  118OSM    C1512337   0.108   4.440   6.413  1.0367  0.1238 -0.2090
  118OSM   H15A12338   0.203   4.488   6.433  0.3979  0.6097  1.9290
  118OSM   H15B12339   0.034   4.518   6.401  0.9241 -0.1353 -1.2556
  118OSM   H15C12340   0.108   4.380   6.324 -0.6499 -1.9732  1.1100
  118OSM    C1412341   0.169   4.254   6.557 -0.1449 -0.6347 -0.2297
  118OSM   H14A12342   0.175   4.217   6.658  2.1750  0.5755  0.1475
  118OSM   H14B12343   0.269   4.291   6.538  0.5572 -1.9229  0.7849
  118OSM   H14C12344   0.165   4.170   6.489 -2.0881  0.8126 -2.0294
  118OSM    C1312345   0.030   4.431   6.644  0.4026 -0.0387  0.0849
  118OSM   H13A12346  -0.016   4.381   6.728 -0.0591 -0.2783 -0.3040
  118OSM   H13B12347  -0.041   4.512   6.632  0.1624 -0.5098 -2.2879
  118OSM   H13C12348   0.126   4.473   6.669  0.1585 -0.8400  2.6310
  118OSM    C1212349  -0.071   4.273   6.481 -0.2897  0.4764 -0.1317
  118OSM   H12A12350  -0.035   4.203   6.406 -2.4877 -1.1159  0.2042
  118OSM   H12B12351  -0.144   4.338   6.437 -0.6820 -0.8331 -1.5021
  118OSM    C1112352  -0.135   4.179   6.590 -0.6922  0.0182  0.1090
  118OSM   H11A12353  -0.232   4.144   6.550 -1.0045 -0.7893  1.5087
  118OSM   H11B12354  -0.157   4.240   6.680 -1.0856 -0.1581  0.1321
  118OSM      P12355  -0.035   3.941   6.522  0.5100  0.3899  0.3523
  118OSM    O1312356  -0.053   3.980   6.383 -0.0770 -0.3234  0.2803
  118OSM    O1412357   0.084   3.858   6.555 -0.2043 -1.1423  0.3501
  118OSM    O1112358  -0.172   3.861   6.560  0.1592 -0.3615  0.1951
  118OSM    O1212359  -0.046   4.073   6.611 -0.5857 -0.1305 -0.3435
  118OSM    C1S12360  -0.212   3.824   6.683  0.2971  0.3272 -0.1359
  118OSM    H1S12361  -0.140   3.829   6.767  0.4862 -0.5259 -0.2369
  118OSM    H1T12362  -0.244   3.718   6.684  1.9414 -0.2081  1.5640
  118OSM     NF12363  -0.371   3.858   6.852 -0.6237 -0.0286 -0.3835
  118OSM    HNF12364  -0.439   3.785   6.854  0.0224 -0.6229  0.5598
  118OSM    C2S12365  -0.338   3.910   6.722  0.1668  0.1805  0.5372
  118OSM    H2S12366  -0.311   4.017   6.737 -1.3206  0.5320  0.9031
  118OSM    C3S12367  -0.447   3.890   6.616  0.5976 -0.1952 -0.1706
  118OSM    H3S12368  -0.471   3.782   6.619 -0.3290  0.0186  2.3386
  118OSM     O312369  -0.426   3.947   6.485 -0.4112 -0.3732 -0.1585
  118OSM    HO312370  -0.334   3.975   6.483 -0.3810 -0.3506  1.1612
  118OSM    C4S12371  -0.576   3.942   6.678 -0.2471 -0.1407  0.0710
  118OSM    H4S12372  -0.628   3.870   6.743 -2.3380  0.6929 -0.5892
  118OSM    C5S12373  -0.632   4.063   6.661  0.0012 -0.3358  0.4766
  118OSM    H5S12374  -0.568   4.143   6.622 -1.4994  0.4143 -0.5619
  118OSM    C6S12375  -0.752   4.104   6.725 -0.6039  0.5755 -0.5747
  118OSM    H6S12376  -0.833   4.084   6.651 -1.4609 -2.5479  1.0389
  118OSM    H6T12377  -0.742   4.206   6.769  0.6726  0.8534 -1.4493
  118OSM    C7S12378  -0.806   4.020   6.843  0.1291  0.1075  0.0324
  118OSM    H7S12379  -0.800   3.910   6.828 -0.5112 -0.0271  0.7110
  118OSM    H7T12380  -0.916   4.034   6.852  0.1872 -0.1351  1.4271
  118OSM    C8S12381  -0.748   4.070   6.974 -0.0517 -0.2849  0.0962
  118OSM    H8S12382  -0.809   4.144   7.031  3.8048  3.1396  0.2615
  118OSM    H8T12383  -0.645   4.110   6.962  0.6260 -1.3823  1.7778
  118OSM    C9S12384  -0.729   3.948   7.067  0.2916  0.7104 -0.3778
  118OSM    H9S12385  -0.666   3.866   7.025  0.8279  0.3507  1.0578
  118OSM    H9T12386  -0.819   3.912   7.122  0.7950 -0.6892 -0.4144
  118OSM   C10S12387  -0.652   3.992   7.198  0.2967  0.3719  0.1392
  118OSM   H10S12388  -0.551   4.028   7.168 -0.0921  0.8588 -0.6286
  118OSM   H10T12389  -0.635   3.897   7.252 -0.4748  0.2145  0.1152
  118OSM   C11S12390  -0.726   4.096   7.280  0.2024 -0.7049 -0.2743
  118OSM   H11S12391  -0.835   4.073   7.285  0.1782 -0.3986  0.8574
  118OSM   H11T12392  -0.731   4.193   7.226 -1.6255 -0.2473  0.6374
  118OSM   C12S12393  -0.662   4.119   7.422  0.7058 -0.5171  0.4515
  118OSM   H12S12394  -0.707   4.211   7.463  0.4899  0.0433 -1.0228
  118OSM   H12T12395  -0.553   4.139   7.413  0.9548 -1.1959  1.6249
  118OSM   C13S12396  -0.704   4.015   7.534  0.8872 -0.2037  0.7399
  118OSM   H13S12397  -0.673   3.913   7.503  3.5042  0.7467 -0.0740
  118OSM   H13T12398  -0.813   4.019   7.553  0.4424  1.8588 -1.6976
  118OSM   C14S12399  -0.631   4.048   7.669  0.5320  0.4903  0.7807
  118OSM   H14S12400  -0.529   4.017   7.639 -0.3838 -1.0963 -0.8981
  118OSM   H14T12401  -0.671   3.983   7.750  0.5187  1.1471  1.3078
  118OSM   C15S12402  -0.624   4.191   7.718 -0.3336 -0.2059 -0.1105
  118OSM   H15S12403  -0.717   4.252   7.722 -0.6865 -0.3610 -3.5976
  118OSM   H15T12404  -0.559   4.234   7.639  0.4481  0.3575  0.8072
  118OSM   C16S12405  -0.553   4.196   7.853  0.0128 -0.2735  0.1931
  118OSM   H16S12406  -0.456   4.143   7.860 -0.4330 -0.9017  2.4730
  118OSM   H16T12407  -0.623   4.157   7.930  1.0249  3.2408  3.2334
  118OSM   C17S12408  -0.523   4.337   7.900  0.0557 -0.5057  0.0178
  118OSM   H17S12409  -0.620   4.385   7.926  0.0359 -0.7859  0.4807
  118OSM   H17T12410  -0.476   4.400   7.821 -0.1650 -0.5792 -0.1712
  118OSM   C18S12411  -0.433   4.337   8.033 -0.3047  0.6049 -0.2628
  118OSM   H18S12412  -0.361   4.252   8.023 -3.3028 -1.9261 -2.2217
  118OSM   H18T12413  -0.500   4.326   8.121  3.6460 -1.3514  2.8191
  118OSM   H18U12414  -0.382   4.436   8.039  1.0322  0.1306 -2.4864
  118OSM    C1F12415  -0.308   3.898   6.968 -0.2830 -0.0319 -0.1378
  118OSM     OF12416  -0.246   4.001   6.973 -0.3601  0.0277  0.0442
  118OSM    C2F12417  -0.314   3.808   7.085  0.1326 -0.1963 -0.1472
  118OSM    H2F12418  -0.280   3.708   7.053  0.0117  0.1219 -1.3193
  118OSM    H2G12419  -0.420   3.796   7.116 -0.3539  1.1222 -1.1726
  118OSM    C3F12420  -0.250   3.871   7.209 -0.6313 -0.9807  0.8871
  118OSM    H3F12421  -0.308   3.961   7.237 -1.0478 -0.9337 -0.1049
  118OSM    H3G12422  -0.147   3.902   7.179 -0.8688 -2.7570 -2.2346
  118OSM    C4F12423  -0.233   3.786   7.334  0.0548  0.6331  0.4661
  118OSM    H4F12424  -0.152   3.827   7.398 -0.4740  1.3517  0.6971
  118OSM    H4G12425  -0.205   3.681   7.311  0.8763  0.6697  1.2393
  118OSM    C5F12426  -0.365   3.790   7.412 -0.6410  0.0288 -0.0994
  118OSM    H5F12427  -0.439   3.762   7.335 -0.1158  0.1676 -0.6586
  118OSM    H5G12428  -0.371   3.894   7.451  0.2130  0.1698 -0.3293
  118OSM    C6F12429  -0.370   3.698   7.535  0.5287  0.6397  0.0277
  118OSM    H6F12430  -0.314   3.606   7.508  0.3763  0.6341 -0.2759
  118OSM    H6G12431  -0.478   3.676   7.550  1.2484 -2.1110  2.0840
  118OSM    C7F12432  -0.308   3.750   7.665 -0.0560 -0.1010  0.4857
  118OSM    H7F12433  -0.341   3.854   7.687  1.1748  0.6295 -0.9739
  118OSM    H7G12434  -0.198   3.748   7.648  0.1633 -0.1247  1.8247
  118OSM    C8F12435  -0.313   3.660   7.793  0.1854  0.0844  0.5382
  118OSM    H8F12436  -0.266   3.563   7.769 -0.2380  0.0526 -0.1809
  118OSM    H8G12437  -0.419   3.646   7.823  0.3590  0.0507  1.1509
  118OSM    C9F12438  -0.228   3.718   7.904 -0.2235 -0.2273 -0.6630
  118OSM    H9F12439  -0.122   3.690   7.909  0.1080  0.9243 -0.8491
  118OSM   C10F12440  -0.284   3.787   8.004  0.5961 -0.1944  0.0999
  118OSM   H10F12441  -0.220   3.829   8.083  0.2523  1.4224 -0.4368
  118OSM   C11F12442  -0.430   3.839   8.023 -0.3690  0.2892 -0.2501
  118OSM   H11F12443  -0.483   3.808   7.931  1.5648  1.0484 -1.6821
  118OSM   H11G12444  -0.440   3.945   8.055  1.2071 -0.1996  2.1794
  118OSM   C12F12445  -0.491   3.757   8.138 -0.6533 -0.8961 -0.1554
  118OSM   H12F12446  -0.427   3.769   8.228 -0.3564 -1.0798 -0.3416
  118OSM   H12G12447  -0.489   3.652   8.103  2.2893 -0.3006 -2.1293
  118OSM   C13F12448  -0.636   3.797   8.172  0.8760  0.0077 -0.0086
  118OSM   H13F12449  -0.695   3.777   8.080  1.7171 -0.6131 -0.4357
  118OSM   H13G12450  -0.636   3.907   8.186  2.3809  0.1220 -0.6554
  118OSM   C14F12451  -0.685   3.711   8.288  0.9491 -0.7174 -0.1813
  118OSM   H14F12452  -0.603   3.702   8.363  1.8151  0.1854 -0.9893
  118OSM   H14G12453  -0.726   3.612   8.257 -0.0083 -0.0739 -1.0489
  118OSM   C15F12454  -0.803   3.790   8.346  0.2763  0.8073  0.2501
  118OSM   H15F12455  -0.881   3.787   8.266 -2.3947  0.0049  2.7147
  118OSM   H15G12456  -0.784   3.895   8.375 -0.6089  1.2027 -0.5458
  118OSM   C16F12457  -0.864   3.719   8.476  0.4009  0.1972  0.0299
  118OSM   H16F12458  -0.922   3.631   8.440  1.2303 -0.3662  0.0339
  118OSM   H16G12459  -0.931   3.789   8.530  1.7818  0.1062  1.9965
  118OSM   C17F12460  -0.759   3.662   8.577  0.7614 -0.7924  0.0657
  118OSM   H17F12461  -0.690   3.746   8.603  2.4178 -1.2246 -2.5748
  118OSM   H17G12462  -0.693   3.595   8.518  0.4210 -1.5773  0.5587
  118OSM   C18F12463  -0.822   3.590   8.696 -0.3081 -0.1734 -0.4934
  118OSM   H18F12464  -0.854   3.486   8.670  0.0086 -0.4939  0.3692
  118OSM   H18G12465  -0.911   3.633   8.746  0.3388 -0.2444  0.7592
  118OSM   H18H12466  -0.743   3.577   8.774  1.1428  2.7715 -1.3416
  119OSM      N12467   5.165   1.988   6.047 -0.6568 -0.4605 -0.0609
  119OSM    C1512468   5.207   2.122   6.088 -0.4041 -0.0794 -0.4581
  119OSM   H15A12469   5.174   2.194   6.015 -0.7255  1.6682  1.3272
  119OSM   H15B12470   5.313   2.126   6.106 -0.1218 -1.1515 -1.7102
  119OSM   H15C12471   5.161   2.153   6.181  2.0916 -0.5105  1.0232
  119OSM    C1412472   5.237   1.951   5.929  0.3507  0.5535  0.1257
  119OSM   H14A12473   5.204   2.021   5.853 -1.7868  1.4890  1.8334
  119OSM   H14B12474   5.204   1.856   5.892 -2.2983  1.3553  0.2469
  119OSM   H14C12475   5.345   1.953   5.927  0.3738  0.5179  1.1884
  119OSM    C1312476   5.216   1.901   6.158  0.5615  0.3308 -0.5836
  119OSM   H13A12477   5.321   1.918   6.177  0.2560  0.9529  0.6437
  119OSM   H13B12478   5.196   1.797   6.134 -0.9373  0.4058  0.2082
  119OSM   H13C12479   5.163   1.914   6.251  1.6647 -1.6676  0.3898
  119OSM    C1212480   5.015   1.989   6.042 -0.2403 -0.0596  0.1599
  119OSM   H12A12481   4.972   2.075   5.991 -0.3470 -0.4062 -0.3500
  119OSM   H12B12482   4.960   1.985   6.135 -1.0889 -1.4626 -0.3714
  119OSM    C1112483   4.946   1.873   5.974  0.2728 -0.5810  0.0052
  119OSM   H11A12484   4.971   1.777   6.025  1.0990  0.4659  1.6375
  119OSM   H11B12485   4.975   1.866   5.867 -1.6668  0.1468 -0.6234
  119OSM      P12486   4.724   1.981   5.894  0.0740  0.0156 -0.5248
  119OSM    O1312487   4.788   2.006   5.764 -0.1203  0.1633 -0.3876
  119OSM    O1412488   4.583   1.930   5.891  0.1400 -0.1792 -0.4933
  119OSM    O1112489   4.720   2.120   5.981  0.4648 -0.8640  0.2499
  119OSM    O1212490   4.805   1.887   5.992  0.5359 -0.2416 -0.0282
  119OSM    C1S12491   4.667   2.115   6.113 -0.2396 -0.0426 -0.1853
  119OSM    H1S12492   4.688   2.021   6.169  1.3119 -0.0879 -0.8002
  119OSM    H1T12493   4.556   2.116   6.110 -0.2380 -0.6281 -1.5417
  119OSM     NF12494   4.705   2.245   6.327 -0.2998 -0.3383  0.3495
  119OSM    HNF12495   4.631   2.305   6.357 -0.3365  0.2687 -0.8704
  119OSM    C2S12496   4.724   2.246   6.186 -0.1121  0.2235 -0.2666
  119OSM    H2S12497   4.832   2.241   6.159 -0.5278 -0.7438 -1.9119
  119OSM    C3S12498   4.675   2.380   6.118 -0.6037  0.1224 -0.4606
  119OSM    H3S12499   4.564   2.372   6.127 -0.6111 -0.3054 -0.8771
  119OSM     O312500   4.698   2.387   5.979  0.0766  0.3917  0.3406
  119OSM    HO312501   4.731   2.298   5.965  0.8792  0.9365 -1.5072
  119OSM    C4S12502   4.725   2.503   6.178  0.0435 -0.3038 -0.0749
  119OSM    H4S12503   4.834   2.521   6.179  0.4193 -2.3308  0.9191
  119OSM    C5S12504   4.646   2.586   6.251  0.9756  0.2715 -0.3535
  119OSM    H5S12505   4.543   2.551   6.267  0.9187  0.8398  0.6010
  119OSM    C6S12506   4.679   2.703   6.333 -0.0003  0.0784 -0.1920
  119OSM    H6S12507   4.658   2.802   6.287  0.4932  1.0794  1.6317
  119OSM    H6T12508   4.788   2.710   6.356  0.0776  3.3611 -1.1295
  119OSM    C7S12509   4.624   2.707   6.479  0.2863  0.3168  0.5137
  119OSM    H7S12510   4.515   2.687   6.484 -0.1442  1.9562 -1.1068
  119OSM    H7T12511   4.656   2.808   6.515 -2.4349  0.8041  1.8621
  119OSM    C8S12512   4.695   2.602   6.574 -0.4885  0.1345 -0.6065
  119OSM    H8S12513   4.801   2.630   6.592 -0.1709 -1.6685  0.5344
  119OSM    H8T12514   4.698   2.503   6.524 -0.2283 -0.2334  0.1269
  119OSM    C9S12515   4.635   2.595   6.713  0.1157  0.1908  0.8993
  119OSM    H9S12516   4.528   2.569   6.697  0.1811  0.6693 -0.4622
  119OSM    H9T12517   4.641   2.697   6.756  0.6702  0.6437 -0.1934
  119OSM   C10S12518   4.698   2.490   6.796  0.2570  1.2343  0.0110
  119OSM   H10S12519   4.804   2.523   6.800  0.2649  1.1388  0.9374
  119OSM   H10T12520   4.689   2.388   6.753  0.6742  0.8090  0.8884
  119OSM   C11S12521   4.634   2.485   6.939 -0.6300 -0.0565 -0.0249
  119OSM   H11S12522   4.536   2.435   6.922 -1.2955  1.0764  0.3415
  119OSM   H11T12523   4.614   2.583   6.986  0.8959  0.3326 -0.1294
  119OSM   C12S12524   4.714   2.400   7.032 -1.1209  0.2895 -0.1962
  119OSM   H12S12525   4.817   2.439   7.041 -1.5050  1.4911 -0.6825
  119OSM   H12T12526   4.718   2.295   6.994 -1.7614  0.1598  0.0819
  119OSM   C13S12527   4.637   2.397   7.171 -0.9494 -0.6352 -0.3880
  119OSM   H13S12528   4.543   2.343   7.145  0.4035 -2.6458 -1.4352
  119OSM   H13T12529   4.608   2.498   7.205  0.1955 -0.8339  1.2701
  119OSM   C14S12530   4.715   2.334   7.287  0.5232 -0.2730  0.3352
  119OSM   H14S12531   4.795   2.407   7.312  0.0191  0.4133 -0.0092
  119OSM   H14T12532   4.772   2.245   7.253 -1.5855 -1.3348 -0.6556
  119OSM   C15S12533   4.618   2.295   7.405 -0.2176 -0.0064  0.3369
  119OSM   H15S12534   4.556   2.212   7.367  2.0749 -1.8340  0.3707
  119OSM   H15T12535   4.548   2.380   7.419  0.3346  0.3456  1.0348
  119OSM   C16S12536   4.695   2.267   7.536  0.6256  0.2238 -0.0804
  119OSM   H16S12537   4.619   2.225   7.606  0.2243  1.6468  0.3698
  119OSM   H16T12538   4.729   2.362   7.581  1.3599 -0.1496  0.1722
  119OSM   C17S12539   4.810   2.162   7.520  0.1113 -0.1718  0.1670
  119OSM   H17S12540   4.891   2.209   7.461 -0.0973  1.4436  1.1130
  119OSM   H17T12541   4.766   2.079   7.460  0.5900  1.7863 -3.1492
  119OSM   C18S12542   4.855   2.116   7.659  0.7650  0.0573 -0.0019
  119OSM   H18S12543   4.896   2.208   7.706 -0.0146  0.8593 -0.8610
  119OSM   H18T12544   4.938   2.042   7.659  0.1180 -0.7238  1.5903
  119OSM   H18U12545   4.761   2.082   7.710  0.7911  1.2691  0.9117
  119OSM    C1F12546   4.777   2.164   6.400 -0.0080  0.0683 -0.1983
  119OSM     OF12547   4.872   2.098   6.361 -0.0614  0.4189  0.3898
  119OSM    C2F12548   4.744   2.154   6.539 -0.9544 -0.1619 -0.8065
  119OSM    H2F12549   4.648   2.104   6.565 -1.2169  0.9146  0.4141
  119OSM    H2G12550   4.734   2.256   6.583 -0.5843  0.4712 -2.1245
  119OSM    C3F12551   4.862   2.086   6.624  0.6490  0.2080 -0.3854
  119OSM    H3F12552   4.957   2.136   6.599  0.6955 -0.6259 -2.0372
  119OSM    H3G12553   4.881   1.979   6.598 -1.0868 -0.2228 -0.0615
  119OSM    C4F12554   4.842   2.084   6.782 -0.2206  0.0572  0.4095
  119OSM    H4F12555   4.735   2.059   6.802  0.3212 -1.0308  2.1677
  119OSM    H4G12556   4.860   2.187   6.819  2.3196 -0.4006  0.6247
  119OSM    C5F12557   4.922   1.984   6.857 -0.2338  0.2643  0.1633
  119OSM    H5F12558   5.022   2.033   6.855 -0.8925  1.7098  1.0407
  119OSM    H5G12559   4.940   1.887   6.806  0.0955  0.9813 -1.1338
  119OSM    C6F12560   4.870   1.964   6.996 -0.9385 -0.1745 -0.1123
  119OSM    H6F12561   4.767   1.922   6.989 -0.9319  0.0732 -2.3803
  119OSM    H6G12562   4.874   2.049   7.067  0.6466  0.8633 -1.3881
  119OSM    C7F12563   4.956   1.844   7.050  0.3265 -0.5208 -0.1546
  119OSM    H7F12564   5.059   1.866   7.083  0.3295 -1.6915  0.6726
  119OSM    H7G12565   4.972   1.764   6.975 -1.5464 -1.1508  0.0733
  119OSM    C8F12566   4.884   1.779   7.175 -0.1477  0.9561 -0.5717
  119OSM    H8F12567   4.940   1.686   7.195  2.4417  1.8662 -2.9070
  119OSM    H8G12568   4.782   1.750   7.141  0.3399  1.1112 -2.2620
  119OSM    C9F12569   4.878   1.867   7.297  0.5378 -0.0487  0.1486
  119OSM    H9F12570   4.885   1.975   7.280 -1.2017 -0.3808 -3.6449
  119OSM   C10F12571   4.873   1.821   7.424 -0.1086  0.3108 -0.1577
  119OSM   H10F12572   4.865   1.881   7.516  0.8743 -1.5317  1.2013
  119OSM   C11F12573   4.870   1.674   7.466  0.7670  0.1128 -0.9430
  119OSM   H11F12574   4.977   1.648   7.478  0.5682  0.1112  1.1553
  119OSM   H11G12575   4.834   1.602   7.389 -1.6958 -0.7275  0.8588
  119OSM   C12F12576   4.809   1.638   7.599 -0.8422  0.1210 -0.4488
  119OSM   H12F12577   4.813   1.528   7.610  3.7195  0.2375  1.3267
  119OSM   H12G12578   4.703   1.669   7.603 -0.3066  2.0750 -0.2308
  119OSM   C13F12579   4.895   1.700   7.719  0.7495  0.3848  0.0662
  119OSM   H13F12580   4.901   1.811   7.722  1.0773  0.3880 -0.4962
  119OSM   H13G12581   4.996   1.657   7.701  0.8164  1.4711 -2.7215
  119OSM   C14F12582   4.862   1.648   7.861 -0.1090 -0.2572 -0.7059
  119OSM   H14F12583   4.890   1.541   7.852  1.4339  0.1298 -0.7022
  119OSM   H14G12584   4.756   1.661   7.894  0.2828  1.0166  0.0936
  119OSM   C15F12585   4.963   1.685   7.968 -0.1799 -0.0851 -1.0620
  119OSM   H15F12586   4.976   1.795   7.984  2.7961 -0.5404  0.2837
  119OSM   H15G12587   5.063   1.647   7.937 -0.6278 -1.9442 -0.3312
  119OSM   C16F12588   4.929   1.628   8.107  0.4150  0.1708  0.9385
  119OSM   H16F12589   5.007   1.662   8.178 -0.3841  1.5402  1.2101
  119OSM   H16G12590   4.922   1.520   8.082 -1.2381  0.7499 -1.4860
  119OSM   C17F12591   4.803   1.680   8.178 -0.3287 -0.4171  0.5292
  119OSM   H17F12592   4.711   1.624   8.150 -0.6019 -0.1076  0.8045
  119OSM   H17G12593   4.801   1.788   8.149  4.8620  0.3352  1.8728
  119OSM   C18F12594   4.820   1.705   8.328 -0.4857  0.3623  0.4098
  119OSM   H18F12595   4.749   1.786   8.353 -0.0534  1.2046 -0.9437
  119OSM   H18G12596   4.924   1.732   8.357 -0.4283 -0.5330  1.0721
  119OSM   H18H12597   4.803   1.608   8.379  1.4593 -0.8169 -1.0219
  120OSM      N12598   2.183   2.462   6.107 -0.1068  0.1643  0.4106
  120OSM    C1512599   2.041   2.449   6.060  0.3390 -0.0295  0.3311
  120OSM   H15A12600   2.034   2.389   5.971  1.7281  0.0671  0.1307
  120OSM   H15B12601   2.003   2.550   6.046 -1.1000 -0.5511  0.2796
  120OSM   H15C12602   1.990   2.405   6.144 -0.0021  1.7723  1.1327
  120OSM    C1412603   2.259   2.541   6.010  0.4531  0.2199 -0.4638
  120OSM   H14A12604   2.360   2.543   6.048  0.9145 -1.0299 -1.5247
  120OSM   H14B12605   2.213   2.637   5.992 -0.9565 -0.1726  0.8522
  120OSM   H14C12606   2.277   2.491   5.916  1.9866 -0.2584  0.0560
  120OSM    C1312607   2.179   2.546   6.229 -0.1464 -0.1391 -0.3062
  120OSM   H13A12608   2.115   2.634   6.227 -0.2150 -0.1743  0.1464
  120OSM   H13B12609   2.278   2.577   6.257  0.3402 -0.8372 -1.2287
  120OSM   H13C12610   2.140   2.495   6.316  0.0718 -1.0322 -0.7222
  120OSM    C1212611   2.240   2.318   6.135 -0.0714 -0.4143 -0.3934
  120OSM   H12A12612   2.242   2.261   6.044  2.2439  0.5175 -0.9771
  120OSM   H12B12613   2.170   2.262   6.197 -1.5483  2.4482  0.7153
  120OSM    C1112614   2.396   2.304   6.190  0.3002  0.5550 -0.0020
  120OSM   H11A12615   2.419   2.201   6.225  1.8604  0.6255 -0.7279
  120OSM   H11B12616   2.401   2.363   6.284  0.0306 -0.1846  0.4879
  120OSM      P12617   2.509   2.229   5.970 -0.1031  0.0991 -0.2006
  120OSM    O1312618   2.381   2.173   5.926  0.3824 -0.5602  0.0280
  120OSM    O1412619   2.592   2.300   5.870 -0.3067  0.5504 -0.0640
  120OSM    O1112620   2.597   2.115   6.040  0.0383  0.0883  0.8017
  120OSM    O1212621   2.495   2.337   6.089 -0.0438 -0.0841 -0.3605
  120OSM    C1S12622   2.695   2.140   6.143 -0.3842 -0.1629 -0.7990
  120OSM    H1S12623   2.649   2.197   6.227  2.3485  1.5029 -0.3197
  120OSM    H1T12624   2.776   2.203   6.101  0.0739 -0.9939 -1.1898
  120OSM     NF12625   2.822   2.054   6.331 -0.0262  0.3258 -0.5603
  120OSM    HNF12626   2.921   2.055   6.321  0.3999  0.7352  2.6792
  120OSM    C2S12627   2.753   2.014   6.207 -0.2385  0.2027  0.0278
  120OSM    H2S12628   2.674   1.945   6.242 -0.4861  0.7177  0.4813
  120OSM    C3S12629   2.842   1.941   6.096  1.3053  0.5733  0.2236
  120OSM    H3S12630   2.922   2.004   6.052  0.3290  0.0672 -2.4440
  120OSM     O312631   2.763   1.878   5.992 -0.3977  0.5274  0.2485
  120OSM    HO312632   2.683   1.931   6.001  0.4185  1.4889  4.3643
  120OSM    C4S12633   2.928   1.830   6.166 -0.4376 -0.0736 -0.3938
  120OSM    H4S12634   3.038   1.823   6.157 -0.3016 -0.2141  1.1290
  120OSM    C5S12635   2.869   1.736   6.249  0.2224 -0.0592 -0.1608
  120OSM    H5S12636   2.759   1.737   6.247  0.1416  2.4631 -3.9268
  120OSM    C6S12637   2.927   1.614   6.300 -0.2144 -0.5054  0.1768
  120OSM    H6S12638   3.034   1.603   6.274  0.1300  3.9811 -1.1299
  120OSM    H6T12639   2.872   1.527   6.258  0.0931 -0.5650 -0.1075
  120OSM    C7S12640   2.923   1.581   6.451  0.3738  0.5118 -0.1561
  120OSM    H7S12641   2.985   1.656   6.505 -0.3489  0.6538  0.5076
  120OSM    H7T12642   2.976   1.484   6.443 -1.2900 -0.3006 -2.9796
  120OSM    C8S12643   2.785   1.560   6.511  0.0546 -0.3613  0.2973
  120OSM    H8S12644   2.733   1.480   6.454  0.0393 -0.4801  0.4783
  120OSM    H8T12645   2.730   1.655   6.495  0.1408 -0.3283  0.1961
  120OSM    C9S12646   2.808   1.524   6.662  0.1079 -0.7154  0.3401
  120OSM    H9S12647   2.897   1.458   6.668 -1.4280 -3.1174 -1.5825
  120OSM    H9T12648   2.729   1.451   6.691 -1.1820 -0.0476 -1.3018
  120OSM   C10S12649   2.822   1.646   6.751 -0.5489  0.2418  0.2205
  120OSM   H10S12650   2.734   1.711   6.738  0.4469  1.5806 -0.0652
  120OSM   H10T12651   2.910   1.712   6.734  0.8761 -1.8604 -1.0227
  120OSM   C11S12652   2.826   1.598   6.897  0.6638  0.6976  0.1904
  120OSM   H11S12653   2.922   1.545   6.920 -0.5231 -0.6241  2.5465
  120OSM   H11T12654   2.750   1.517   6.898  1.6142 -0.2211  0.7945
  120OSM   C12S12655   2.825   1.719   6.991 -0.3636 -0.5910 -0.2404
  120OSM   H12S12656   2.728   1.773   6.983 -1.5406 -2.3719  1.1191
  120OSM   H12T12657   2.901   1.788   6.949  0.3603 -0.4903  1.1563
  120OSM   C13S12658   2.865   1.698   7.139  0.1310 -0.0527  0.2102
  120OSM   H13S12659   2.956   1.636   7.145  0.5121  0.3721 -0.9236
  120OSM   H13T12660   2.784   1.645   7.193  0.9170 -0.4823  0.9818
  120OSM   C14S12661   2.882   1.834   7.208 -0.4407  0.1858  0.1336
  120OSM   H14S12662   2.796   1.903   7.209 -0.2805  0.4055  1.6365
  120OSM   H14T12663   2.955   1.880   7.138 -2.3495  0.2502 -1.9160
  120OSM   C15S12664   2.950   1.806   7.341  0.1240  0.5014  0.0191
  120OSM   H15S12665   3.017   1.891   7.368  0.7487  0.4534 -1.2999
  120OSM   H15T12666   3.008   1.712   7.339 -1.6780 -0.7173  1.7767
  120OSM   C16S12667   2.837   1.794   7.449 -0.8302  0.7402  0.4297
  120OSM   H16S12668   2.754   1.733   7.408 -1.1607 -0.2753  2.4478
  120OSM   H16T12669   2.798   1.896   7.468 -0.4802  0.7638  1.0597
  120OSM   C17S12670   2.888   1.736   7.575  0.6744 -0.6935 -0.4182
  120OSM   H17S12671   2.927   1.633   7.561 -0.0926 -1.3042  1.5721
  120OSM   H17T12672   2.804   1.736   7.647  1.0346  0.7363  0.0451
  120OSM   C18S12673   3.008   1.805   7.629 -0.4275 -0.4308 -1.1550
  120OSM   H18S12674   3.016   1.775   7.735 -2.7800  1.1702 -0.4513
  120OSM   H18T12675   3.008   1.916   7.632  0.2233 -0.4529  0.2585
  120OSM   H18U12676   3.102   1.766   7.585  0.5343 -2.3874  2.2529
  120OSM    C1F12677   2.770   2.080   6.452  0.1523 -0.3064 -0.3189
  120OSM     OF12678   2.647   2.067   6.461 -0.1062 -0.0733  0.7214
  120OSM    C2F12679   2.852   2.119   6.570  0.0183 -0.1958  0.0855
  120OSM    H2F12680   2.900   2.217   6.551  0.6376 -0.2813  1.1250
  120OSM    H2G12681   2.936   2.046   6.581  0.1914  0.0253  0.2330
  120OSM    C3F12682   2.779   2.123   6.710  0.1583  0.1289  0.3527
  120OSM    H3F12683   2.737   2.024   6.739 -1.1304  0.5773  0.0889
  120OSM    H3G12684   2.709   2.209   6.705  0.5469  0.4372  0.2051
  120OSM    C4F12685   2.881   2.147   6.823  0.0254 -0.0162  0.2403
  120OSM    H4F12686   2.929   2.243   6.796 -0.9863  0.6829  0.8566
  120OSM    H4G12687   2.959   2.069   6.827 -0.3976 -1.0176 -4.5388
  120OSM    C5F12688   2.815   2.168   6.969 -0.0185 -0.0782  0.2068
  120OSM    H5F12689   2.775   2.065   6.982 -1.3493  0.2821 -0.8490
  120OSM    H5G12690   2.733   2.243   6.978 -0.3718 -0.4518  0.1469
  120OSM    C6F12691   2.916   2.181   7.075  0.1979 -0.6177 -0.2733
  120OSM    H6F12692   2.997   2.106   7.063  1.1168  0.2839  0.1332
  120OSM    H6G12693   2.872   2.156   7.174  0.8335 -0.6558  0.0060
  120OSM    C7F12694   2.959   2.332   7.082 -0.2564 -0.7438  0.8420
  120OSM    H7F12695   2.868   2.392   7.060  0.8178  1.3905  1.9208
  120OSM    H7G12696   3.035   2.350   7.003 -1.8040  0.1324 -0.5024
  120OSM    C8F12697   3.029   2.369   7.217  0.9710  0.2217  0.2746
  120OSM    H8F12698   2.956   2.347   7.297  0.7948  3.6905  1.2223
  120OSM    H8G12699   3.045   2.479   7.204 -0.7097  0.3470 -1.0673
  120OSM    C9F12700   3.152   2.284   7.230 -0.5673 -0.2593 -0.0345
  120OSM    H9F12701   3.229   2.303   7.153 -0.6006 -1.7190 -0.4551
  120OSM   C10F12702   3.181   2.203   7.334  0.8112  0.9473  0.6486
  120OSM   H10F12703   3.275   2.148   7.320  2.1869  3.1225  0.7618
  120OSM   C11F12704   3.109   2.170   7.458  0.6902  0.5851 -0.0406
  120OSM   H11F12705   3.105   2.059   7.467  2.1509  0.4101 -1.2597
  120OSM   H11G12706   3.000   2.190   7.459  0.0680 -2.2459  1.5244
  120OSM   C12F12707   3.156   2.227   7.595 -1.2373  0.2893 -0.7602
  120OSM   H12F12708   3.267   2.225   7.599 -1.2726 -0.3049 -0.0333
  120OSM   H12G12709   3.116   2.165   7.677 -1.5867  0.6639 -0.6420
  120OSM   C13F12710   3.101   2.360   7.623 -0.0548  0.1311 -0.7486
  120OSM   H13F12711   2.992   2.345   7.613 -0.2951 -0.8414  2.3314
  120OSM   H13G12712   3.116   2.436   7.543 -1.1951  2.3660  1.0536
  120OSM   C14F12713   3.106   2.415   7.767 -0.5682 -0.1087  0.2185
  120OSM   H14F12714   3.024   2.371   7.828 -2.2515  0.9166 -1.2232
  120OSM   H14G12715   3.078   2.521   7.752 -0.9780  0.0521  1.9282
  120OSM   C15F12716   3.245   2.411   7.836  0.1111  0.1961 -0.5486
  120OSM   H15F12717   3.324   2.464   7.778  0.2459  1.1933  0.5066
  120OSM   H15G12718   3.290   2.312   7.858  0.5403  0.7117  1.0297
  120OSM   C16F12719   3.234   2.485   7.975  0.1440  0.0541 -1.2694
  120OSM   H16F12720   3.173   2.578   7.975 -0.6400 -0.4422 -0.3457
  120OSM   H16G12721   3.335   2.527   7.991 -0.4272  1.5918 -1.5040
  120OSM   C17F12722   3.183   2.406   8.098 -0.1449  0.2867 -0.4510
  120OSM   H17F12723   3.235   2.308   8.095 -0.4276  0.1379 -0.5341
  120OSM   H17G12724   3.074   2.387   8.089 -0.5875  0.7751  2.5786
  120OSM   C18F12725   3.207   2.483   8.225  0.7814 -0.1292 -0.5661
  120OSM   H18F12726   3.294   2.550   8.212  1.1316 -0.3478  0.5420
  120OSM   H18G12727   3.226   2.400   8.296 -0.9323 -1.4466 -1.5591
  120OSM   H18H12728   3.125   2.548   8.261  1.3250 -0.8932  2.3196
  121OSM      N12729   3.913   2.251   5.822 -0.4591 -0.3745  0.3534
  121OSM    C1512730   4.054   2.214   5.774 -0.9490 -0.4074  0.2318
  121OSM   H15A12731   4.076   2.206   5.669  1.2328 -0.0169  0.6135
  121OSM   H15B12732   4.089   2.126   5.825 -1.8678 -2.0288 -1.8013
  121OSM   H15C12733   4.110   2.303   5.800 -0.5939 -0.5858  0.0807
  121OSM    C1412734   3.873   2.387   5.763  0.0069  0.0870 -0.2001
  121OSM   H14A12735   3.956   2.456   5.759  1.8702 -2.0616 -1.2838
  121OSM   H14B12736   3.798   2.432   5.827  0.8178 -0.9501  1.5721
  121OSM   H14C12737   3.845   2.368   5.661 -3.8994 -1.2076  0.9507
  121OSM    C1312738   3.815   2.149   5.775  0.0885  0.1307 -0.4911
  121OSM   H13A12739   3.802   2.145   5.668  0.1007  0.1651 -0.4942
  121OSM   H13B12740   3.719   2.166   5.822 -0.8544  0.5340 -2.4260
  121OSM   H13C12741   3.847   2.051   5.805  0.0152  0.5332  0.9742
  121OSM    C1212742   3.906   2.263   5.966  0.1450  0.1561 -0.0646
  121OSM   H12A12743   3.986   2.328   6.001  1.2962 -0.8872 -0.6707
  121OSM   H12B12744   3.923   2.168   6.014 -1.9596 -0.0010  0.4506
  121OSM    C1112745   3.770   2.315   6.032 -0.2491  0.5382  0.0371
  121OSM   H11A12746   3.739   2.409   5.982  0.9993  0.4300 -0.9939
  121OSM   H11B12747   3.792   2.338   6.139  2.2420 -0.9084 -0.0685
  121OSM      P12748   3.668   2.081   6.106  0.6369 -0.3364 -0.0675
  121OSM    O1312749   3.550   2.004   6.063  0.4307  0.1321  0.0234
  121OSM    O1412750   3.797   2.013   6.088 -0.4215  0.0392 -0.5323
  121OSM    O1112751   3.652   2.135   6.255 -0.3127  0.0662  0.3653
  121OSM    O1212752   3.669   2.211   6.015  0.6542 -1.0112  0.2312
  121OSM    C1S12753   3.543   2.231   6.288 -0.1178  0.2846 -0.3518
  121OSM    H1S12754   3.447   2.176   6.282  0.4565 -0.8297  0.2532
  121OSM    H1T12755   3.535   2.299   6.201  0.4740  1.2480  0.3284
  121OSM     NF12756   3.456   2.393   6.458 -0.2225 -0.7061  0.3172
  121OSM    HNF12757   3.492   2.486   6.458  2.0733 -1.5354  0.3847
  121OSM    C2S12758   3.566   2.301   6.423 -0.7576 -0.1017 -0.6001
  121OSM    H2S12759   3.554   2.234   6.511  0.2486  2.2796  1.4683
  121OSM    C3S12760   3.715   2.362   6.438  0.1653  0.6794 -0.3412
  121OSM    H3S12761   3.741   2.441   6.364  1.1904  0.0545 -0.6813
  121OSM     O312762   3.819   2.267   6.416 -0.5554 -0.0727 -0.0347
  121OSM    HO312763   3.781   2.187   6.380 -1.3041 -0.0826  0.7405
  121OSM    C4S12764   3.732   2.429   6.577  0.4203 -0.2965  0.6333
  121OSM    H4S12765   3.668   2.518   6.573  1.2694  0.2976 -2.0259
  121OSM    C5S12766   3.791   2.394   6.686 -0.3467  0.2832  0.9296
  121OSM    H5S12767   3.857   2.306   6.687  1.6312  1.6290 -1.1058
  121OSM    C6S12768   3.755   2.460   6.822 -0.6832 -0.4780 -0.2009
  121OSM    H6S12769   3.678   2.539   6.807  0.2489  0.5730  0.4103
  121OSM    H6T12770   3.844   2.510   6.865 -2.3008 -1.0287  4.3601
  121OSM    C7S12771   3.713   2.355   6.930 -0.0735 -0.2449 -0.5537
  121OSM    H7S12772   3.773   2.263   6.914 -0.0035 -0.1370 -0.9241
  121OSM    H7T12773   3.610   2.317   6.912 -0.8315  1.2560  0.3870
  121OSM    C8S12774   3.738   2.408   7.074  0.0721 -0.4909  0.1648
  121OSM    H8S12775   3.671   2.497   7.080 -0.2687 -0.3756 -3.2685
  121OSM    H8T12776   3.837   2.453   7.094  0.2530 -0.6668 -0.3206
  121OSM    C9S12777   3.705   2.302   7.183 -0.1646  0.1609 -0.0682
  121OSM    H9S12778   3.738   2.200   7.154 -1.3077 -0.2667  0.0944
  121OSM    H9T12779   3.594   2.302   7.184 -0.1908 -1.8283 -0.0676
  121OSM   C10S12780   3.776   2.322   7.318 -0.5157  0.4787 -1.3790
  121OSM   H10S12781   3.803   2.427   7.344 -0.4945  0.2242 -0.3520
  121OSM   H10T12782   3.863   2.253   7.320 -1.2251 -0.4527  1.4744
  121OSM   C11S12783   3.681   2.286   7.426  0.2795 -0.1256 -0.3508
  121OSM   H11S12784   3.671   2.176   7.413 -0.0786 -0.1787  0.3538
  121OSM   H11T12785   3.586   2.342   7.412 -0.6949 -1.7030 -0.3747
  121OSM   C12S12786   3.739   2.311   7.562  0.0044 -0.1283 -0.2807
  121OSM   H12S12787   3.740   2.422   7.569 -0.4076 -0.2140  2.1933
  121OSM   H12T12788   3.843   2.272   7.567  0.0219 -0.1703 -0.9198
  121OSM   C13S12789   3.653   2.249   7.679  0.2458 -0.4114  0.8866
  121OSM   H13S12790   3.652   2.138   7.673 -0.6377 -0.4000  0.6053
  121OSM   H13T12791   3.549   2.288   7.670  1.0106  1.4252 -0.5958
  121OSM   C14S12792   3.705   2.288   7.813 -0.1499 -0.0476 -0.1729
  121OSM   H14S12793   3.716   2.398   7.822 -0.9098 -0.0344  0.6472
  121OSM   H14T12794   3.803   2.240   7.836 -0.7214 -0.4397  1.6317
  121OSM   C15S12795   3.616   2.238   7.932  0.6417  0.6376 -0.0214
  121OSM   H15S12796   3.610   2.128   7.919  0.8034  0.9457 -3.7430
  121OSM   H15T12797   3.509   2.269   7.933  0.3086 -0.4400 -0.3308
  121OSM   C16S12798   3.677   2.258   8.073 -0.1412 -0.0525  0.3144
  121OSM   H16S12799   3.701   2.366   8.083 -2.0278  0.2765  1.8150
  121OSM   H16T12800   3.779   2.214   8.068  0.2602  0.6711  1.6245
  121OSM   C17S12801   3.584   2.210   8.180 -0.3358  0.0418 -0.1849
  121OSM   H17S12802   3.587   2.099   8.187 -0.5257  0.0734  0.4592
  121OSM   H17T12803   3.478   2.237   8.159 -0.4825  0.9472  1.5216
  121OSM   C18S12804   3.624   2.277   8.311  0.3407  0.3029  0.2793
  121OSM   H18S12805   3.552   2.257   8.393  1.0492  2.1226  1.4025
  121OSM   H18T12806   3.624   2.385   8.288  0.2431 -0.2288 -2.6320
  121OSM   H18U12807   3.728   2.247   8.336  0.0414 -1.6453 -0.6339
  121OSM    C1F12808   3.328   2.368   6.461  0.0763  0.0440  0.0044
  121OSM     OF12809   3.292   2.251   6.447 -0.0063 -0.3199 -0.2329
  121OSM    C2F12810   3.227   2.489   6.465 -0.4792  0.1912  0.1829
  121OSM    H2F12811   3.177   2.506   6.367 -2.4849  0.6050  1.2242
  121OSM    H2G12812   3.283   2.574   6.510  3.0329 -3.0455  2.5136
  121OSM    C3F12813   3.119   2.452   6.569  0.1526 -0.2341 -0.6141
  121OSM    H3F12814   3.078   2.350   6.549  0.5802  0.2347 -4.7019
  121OSM    H3G12815   3.045   2.534   6.563 -0.6619 -0.7730  1.4169
  121OSM    C4F12816   3.176   2.422   6.713 -0.4953  0.0731 -0.2175
  121OSM    H4F12817   3.250   2.340   6.703  0.7734  1.3922 -2.4454
  121OSM    H4G12818   3.093   2.384   6.775 -0.2015 -1.0135 -0.4765
  121OSM    C5F12819   3.255   2.542   6.782 -0.8124  0.1357 -0.2954
  121OSM    H5F12820   3.189   2.630   6.798 -0.3944 -0.0746  3.6038
  121OSM    H5G12821   3.333   2.571   6.709 -0.3464 -0.8175 -0.1907
  121OSM    C6F12822   3.328   2.490   6.912 -0.1605 -0.5568  1.1251
  121OSM    H6F12823   3.408   2.414   6.899 -0.5581 -0.6664 -1.0178
  121OSM    H6G12824   3.248   2.450   6.978 -0.8602  1.8563  1.8471
  121OSM    C7F12825   3.384   2.614   6.986 -0.0469 -0.3740 -0.2525
  121OSM    H7F12826   3.301   2.687   6.976 -0.9936 -1.5750 -1.5189
  121OSM    H7G12827   3.480   2.646   6.940  1.8331 -3.1865  1.4008
  121OSM    C8F12828   3.418   2.591   7.137  0.2438 -0.4568 -0.3564
  121OSM    H8F12829   3.488   2.509   7.165  1.8446  1.3297  1.1376
  121OSM    H8G12830   3.327   2.575   7.198  0.9510 -0.6494  0.6763
  121OSM    C9F12831   3.493   2.715   7.193 -0.5035  0.6415 -0.6636
  121OSM    H9F12832   3.552   2.771   7.119 -1.6468  1.6015 -0.8746
  121OSM   C10F12833   3.492   2.767   7.316 -0.5488 -0.8690  0.2218
  121OSM   H10F12834   3.533   2.867   7.336  0.1138 -0.7398 -1.6550
  121OSM   C11F12835   3.428   2.709   7.436 -0.6488  0.1355 -0.2064
  121OSM   H11F12836   3.445   2.600   7.449  4.6106  0.9106  1.9999
  121OSM   H11G12837   3.318   2.722   7.437 -0.7120 -0.3398 -0.5426
  121OSM   C12F12838   3.491   2.784   7.560 -0.5177 -0.0412  0.1347
  121OSM   H12F12839   3.452   2.888   7.565 -1.6994 -0.5183  1.5031
  121OSM   H12G12840   3.600   2.772   7.542 -0.9144 -1.4751 -1.5821
  121OSM   C13F12841   3.449   2.728   7.697  0.8681  1.3263  0.1835
  121OSM   H13F12842   3.451   2.618   7.705 -1.0612  1.1162 -1.4989
  121OSM   H13G12843   3.345   2.753   7.728  0.7155 -0.3714  1.1639
  121OSM   C14F12844   3.541   2.784   7.816  0.2142  0.2404  0.5164
  121OSM   H14F12845   3.553   2.894   7.824  0.7466  0.4494 -2.0676
  121OSM   H14G12846   3.645   2.754   7.791  0.3756 -0.7186  2.2263
  121OSM   C15F12847   3.520   2.719   7.948 -0.0758 -0.3973 -0.0588
  121OSM   H15F12848   3.535   2.609   7.951  0.9111 -0.2559  1.2867
  121OSM   H15G12849   3.417   2.740   7.983  0.1361 -0.2318  0.4736
  121OSM   C16F12850   3.617   2.772   8.047  0.0393 -0.2512 -0.3859
  121OSM   H16F12851   3.614   2.883   8.036 -1.4533 -0.4369 -2.5852
  121OSM   H16G12852   3.715   2.752   8.000 -0.4478 -1.2626 -1.0009
  121OSM   C17F12853   3.607   2.734   8.200  0.4121  0.3011 -0.1651
  121OSM   H17F12854   3.619   2.623   8.204 -1.5225  0.0907  0.7800
  121OSM   H17G12855   3.503   2.755   8.232 -0.7442 -1.4620 -2.4192
  121OSM   C18F12856   3.715   2.790   8.288 -0.2453 -0.7268  0.1298
  121OSM   H18F12857   3.704   2.899   8.311 -3.2796 -1.1637  1.2129
  121OSM   H18G12858   3.820   2.773   8.257 -0.3532 -0.0759 -0.6538
  121OSM   H18H12859   3.708   2.748   8.391 -1.1763  1.5499  1.0620
  122OSM      N12860   5.383   4.568   5.963 -0.7633  0.2893 -0.2854
  122OSM    C1512861   5.270   4.652   5.907 -0.6240 -0.1453  1.1122
  122OSM   H15A12862   5.206   4.690   5.985 -0.8210  0.7097  0.5472
  122OSM   H15B12863   5.216   4.595   5.833  1.1534  2.2920 -2.3617
  122OSM   H15C12864   5.311   4.739   5.858  0.5722 -2.9504 -3.4631
  122OSM    C1412865   5.311   4.446   6.014  0.2224  0.7860 -0.6836
  122OSM   H14A12866   5.217   4.477   6.057 -0.0117 -0.8160  0.0302
  122OSM   H14B12867   5.376   4.389   6.080  0.7368 -0.4986 -2.2416
  122OSM   H14C12868   5.286   4.372   5.940 -1.5491  1.3633 -0.7087
  122OSM    C1312869   5.475   4.528   5.856 -0.2247 -0.2933  0.2630
  122OSM   H13A12870   5.423   4.497   5.767 -2.0486 -2.2104  1.9014
  122OSM   H13B12871   5.553   4.457   5.881  0.7307 -0.3920 -2.5790
  122OSM   H13C12872   5.527   4.619   5.829  2.4677 -1.8746 -0.2348
  122OSM    C1212873   5.455   4.644   6.066 -0.0132  0.4170  0.2285
  122OSM   H12A12874   5.393   4.653   6.155 -0.2694  0.0469  0.0907
  122OSM   H12B12875   5.482   4.737   6.018 -1.0285  0.2069 -0.8123
  122OSM    C1112876   5.590   4.581   6.120  0.5076  0.2165  0.3361
  122OSM   H11A12877   5.631   4.661   6.186 -0.5068  0.2244  0.9895
  122OSM   H11B12878   5.657   4.568   6.033  0.3715  1.6120 -0.0026
  122OSM      P12879   5.671   4.350   6.217 -0.0432  0.4705  0.0366
  122OSM    O1312880   5.641   4.243   6.124  0.1665  0.3647 -0.0366
  122OSM    O1412881   5.811   4.403   6.210  0.8070 -0.0964  0.5165
  122OSM    O1112882   5.645   4.310   6.368  0.4584 -0.3560 -0.5550
  122OSM    O1212883   5.564   4.460   6.194  0.5820 -0.3387 -0.6245
  122OSM    C1S12884   5.673   4.415   6.463  0.3591  0.1732  0.1796
  122OSM    H1S12885   5.609   4.505   6.450 -2.0392 -1.2327  1.5251
  122OSM    H1T12886   5.778   4.449   6.467  0.4292  0.1261 -0.8469
  122OSM     NF12887   5.628   4.486   6.703  0.1889  0.3598 -0.7593
  122OSM    HNF12888   5.710   4.486   6.759  1.1893 -1.6843 -2.1069
  122OSM    C2S12889   5.631   4.369   6.609 -0.5784  0.2927  0.8538
  122OSM    H2S12890   5.526   4.336   6.608 -0.5230  0.1156 -0.2081
  122OSM    C3S12891   5.725   4.253   6.647 -0.3391  0.2776 -0.2852
  122OSM    H3S12892   5.824   4.304   6.650 -0.2077  0.0118 -0.1585
  122OSM     O312893   5.733   4.150   6.547 -0.3327 -0.3089 -0.8140
  122OSM    HO312894   5.710   4.203   6.471 -0.1104  1.3671  0.2495
  122OSM    C4S12895   5.683   4.210   6.781 -0.0097 -0.4346  0.1868
  122OSM    H4S12896   5.741   4.270   6.854  0.9054 -0.3717 -0.5764
  122OSM    C5S12897   5.597   4.120   6.825  0.7162  0.0372  0.6769
  122OSM    H5S12898   5.540   4.069   6.747 -1.5853  0.7757  1.7858
  122OSM    C6S12899   5.555   4.094   6.967 -0.2458  0.4140  0.1270
  122OSM    H6S12900   5.499   3.998   6.970  2.6395 -1.4161  0.0493
  122OSM    H6T12901   5.493   4.178   7.003  0.4364  0.7873  0.4595
  122OSM    C7S12902   5.668   4.086   7.069 -0.6161 -0.1535  0.5633
  122OSM    H7S12903   5.738   4.171   7.051 -0.7559 -0.4568 -1.5414
  122OSM    H7T12904   5.726   3.993   7.051 -0.7786  0.0277 -0.9511
  122OSM    C8S12905   5.603   4.088   7.204  0.0464 -0.1079  0.3106
  122OSM    H8S12906   5.536   4.000   7.210  0.3361 -0.3259  0.4131
  122OSM    H8T12907   5.543   4.181   7.216 -1.3448 -0.5501 -2.4343
  122OSM    C9S12908   5.706   4.075   7.315 -0.3571  0.0958 -0.1037
  122OSM    H9S12909   5.771   4.165   7.310 -0.5614  0.1766 -1.9995
  122OSM    H9T12910   5.775   3.989   7.294 -1.0540 -0.6473  0.6012
  122OSM   C10S12911   5.656   4.061   7.457  0.6973  0.0656  0.5998
  122OSM   H10S12912   5.608   3.961   7.468 -0.2721  0.1269 -2.1982
  122OSM   H10T12913   5.575   4.136   7.469 -0.2077 -0.3439 -2.1876
  122OSM   C11S12914   5.762   4.093   7.555  0.4630 -0.3390 -0.3775
  122OSM   H11S12915   5.835   4.170   7.523  0.5829  1.0137  2.7960
  122OSM   H11T12916   5.822   4.000   7.569  0.9841 -0.1185 -1.1377
  122OSM   C12S12917   5.708   4.107   7.695 -0.2534 -0.4170 -0.2775
  122OSM   H12S12918   5.657   4.016   7.734 -1.3751  0.5440  0.5981
  122OSM   H12T12919   5.632   4.188   7.705  0.0210 -0.2330  0.3646
  122OSM   C13S12920   5.821   4.140   7.793  0.5890 -0.1118 -0.3944
  122OSM   H13S12921   5.846   4.244   7.763 -0.8559  0.4044  0.1067
  122OSM   H13T12922   5.909   4.076   7.771 -0.2589 -1.5945  0.3437
  122OSM   C14S12923   5.773   4.125   7.941 -0.8517 -0.2525 -0.3480
  122OSM   H14S12924   5.734   4.021   7.946 -0.3899 -0.6351 -3.1490
  122OSM   H14T12925   5.699   4.207   7.944 -0.0285  0.4877  0.4041
  122OSM   C15S12926   5.889   4.158   8.038 -0.3203 -0.0615 -0.1346
  122OSM   H15S12927   5.944   4.250   8.008  0.8253 -0.5145  0.4944
  122OSM   H15T12928   5.960   4.073   8.035  0.2127  0.3058  1.2224
  122OSM   C16S12929   5.848   4.160   8.183  0.1106  0.0947  0.2246
  122OSM   H16S12930   5.782   4.071   8.195 -2.1652  1.3976 -1.7487
  122OSM   H16T12931   5.779   4.247   8.194  2.0566  1.4837  2.2775
  122OSM   C17S12932   5.959   4.166   8.287  0.5013 -0.6933 -0.0090
  122OSM   H17S12933   6.022   4.256   8.270 -1.2277  0.6646  0.4646
  122OSM   H17T12934   6.029   4.081   8.272  1.5520 -0.1682  1.6335
  122OSM   C18S12935   5.890   4.182   8.424 -0.2615  0.5391  0.1810
  122OSM   H18S12936   5.971   4.209   8.496  0.4128 -1.1356  0.1047
  122OSM   H18T12937   5.854   4.085   8.463 -0.5144  0.7244  0.4099
  122OSM   H18U12938   5.815   4.263   8.416 -1.1974 -0.2610  0.6832
  122OSM    C1F12939   5.539   4.586   6.692  0.0094  0.1775 -0.5786
  122OSM     OF12940   5.448   4.600   6.605 -0.2923  0.7208  0.0110
  122OSM    C2F12941   5.566   4.703   6.786  0.5559  0.2686  0.1420
  122OSM    H2F12942   5.668   4.741   6.764  0.3552 -0.0617 -1.4273
  122OSM    H2G12943   5.579   4.662   6.889  0.7998  0.1547  0.0673
  122OSM    C3F12944   5.453   4.817   6.785 -0.6222  0.1319  0.4459
  122OSM    H3F12945   5.352   4.775   6.805 -0.6527 -0.3080 -0.5617
  122OSM    H3G12946   5.446   4.868   6.687  1.8162 -2.9578 -1.5454
  122OSM    C4F12947   5.475   4.917   6.895 -0.0140 -0.5605 -0.0929
  122OSM    H4F12948   5.535   4.876   6.978  0.9507  1.2779  0.1872
  122OSM    H4G12949   5.373   4.957   6.917 -0.1967  1.1061 -3.3541
  122OSM    C5F12950   5.565   5.034   6.848 -0.1264 -0.1433 -0.4836
  122OSM    H5F12951   5.522   5.082   6.758 -1.4745  0.2488  0.3388
  122OSM    H5G12952   5.655   4.981   6.810 -0.2219 -0.7436  0.1007
  122OSM    C6F12953   5.594   5.140   6.954  0.2386 -0.3895  0.6789
  122OSM    H6F12954   5.644   5.095   7.043 -2.9943 -3.8073  1.0748
  122OSM    H6G12955   5.500   5.190   6.986  0.4526 -0.6986  1.8301
  122OSM    C7F12956   5.683   5.255   6.916  0.3532 -0.5473  0.1195
  122OSM    H7F12957   5.654   5.309   6.823  1.7496  0.1262  0.0551
  122OSM    H7G12958   5.786   5.222   6.891  0.0758 -0.5218 -1.1346
  122OSM    C8F12959   5.685   5.365   7.024 -0.0551  0.3931 -0.3745
  122OSM    H8F12960   5.787   5.408   7.018  0.4884 -0.1188  3.1238
  122OSM    H8G12961   5.685   5.323   7.127  1.1498  0.2659 -0.4128
  122OSM    C9F12962   5.578   5.471   7.013 -0.3287 -0.5905 -0.3676
  122OSM    H9F12963   5.537   5.488   6.913 -2.3031  2.5509  0.8284
  122OSM   C10F12964   5.507   5.528   7.109  0.4056 -0.3774  0.7389
  122OSM   H10F12965   5.448   5.615   7.077  0.9954 -1.0128 -2.4728
  122OSM   C11F12966   5.525   5.517   7.252  0.2753  0.2828 -0.4405
  122OSM   H11F12967   5.609   5.581   7.288  1.3677 -0.8320 -0.9263
  122OSM   H11G12968   5.550   5.417   7.292 -1.2260 -0.7870 -2.0303
  122OSM   C12F12969   5.390   5.541   7.325 -0.6480  0.5061  0.0362
  122OSM   H12F12970   5.313   5.472   7.285 -2.0473  1.0109  1.7332
  122OSM   H12G12971   5.341   5.641   7.327 -1.1585  0.2634 -0.4253
  122OSM   C13F12972   5.405   5.510   7.478 -0.5520 -0.5408 -0.1576
  122OSM   H13F12973   5.476   5.590   7.508 -2.3271  2.1369 -2.5714
  122OSM   H13G12974   5.443   5.411   7.511  0.8192  0.8181  2.7366
  122OSM   C14F12975   5.273   5.526   7.540  0.9081 -0.1679 -0.2727
  122OSM   H14F12976   5.203   5.451   7.496 -1.8047  3.7439 -3.3103
  122OSM   H14G12977   5.247   5.630   7.513 -2.5625 -0.2830  1.9177
  122OSM   C15F12978   5.276   5.510   7.697 -0.1033  0.7229  0.1598
  122OSM   H15F12979   5.176   5.546   7.728  0.6062  1.3489  1.8408
  122OSM   H15G12980   5.357   5.581   7.728  1.0748  0.0731 -1.2794
  122OSM   C16F12981   5.310   5.370   7.746 -0.0299  0.7108  0.0860
  122OSM   H16F12982   5.405   5.342   7.694  0.1620 -0.1050  0.8496
  122OSM   H16G12983   5.242   5.293   7.702 -0.8877  1.2576  0.4502
  122OSM   C17F12984   5.329   5.362   7.900  0.3024  0.2970 -0.0012
  122OSM   H17F12985   5.422   5.419   7.919  0.3367  0.9135 -1.7653
  122OSM   H17G12986   5.347   5.254   7.922  0.1716 -0.0944 -1.6777
  122OSM   C18F12987   5.206   5.406   7.977 -0.6067  0.0276  0.3953
  122OSM   H18F12988   5.210   5.358   8.077 -0.6857  0.2947  0.5282
  122OSM   H18G12989   5.106   5.393   7.930 -0.8814  0.3291  0.8799
  122OSM   H18H12990   5.211   5.515   7.997  0.0216  0.5431 -2.2672
  123OSM      N12991   1.958   5.894   6.394 -0.4610 -0.5553  0.2623
  123OSM    C1512992   1.937   5.764   6.315 -0.4050 -1.3300 -0.1071
  123OSM   H15A12993   1.833   5.761   6.286 -0.6522  0.8138  0.3905
  123OSM   H15B12994   1.951   5.678   6.378 -1.5939 -0.3920  1.5272
  123OSM   H15C12995   2.000   5.774   6.229  0.0786  1.1546  0.4542
  123OSM    C1412996   1.930   6.011   6.305  0.1417 -0.1445 -1.2755
  123OSM   H14A12997   1.998   6.029   6.223 -0.3454 -2.0572 -2.1434
  123OSM   H14B12998   1.939   6.098   6.369  2.6293 -0.8824 -0.5059
  123OSM   H14C12999   1.828   6.003   6.272 -0.0859  0.2800 -0.6909
  123OSM    C1313000   1.858   5.890   6.503  1.3345 -0.2750 -0.6212
  123OSM   H13A13001   1.757   5.886   6.466  0.0418  0.8267  2.4785
  123OSM   H13B13002   1.879   5.973   6.568  1.5487 -0.3957 -0.5340
  123OSM   H13C13003   1.873   5.800   6.561 -1.3953 -1.4409 -1.5544
  123OSM    C1213004   2.099   5.901   6.444  0.0135  0.5338 -0.3497
  123OSM   H12A13005   2.171   5.900   6.363  0.6409 -1.6605  0.1675
  123OSM   H12B13006   2.117   5.810   6.500  1.1162  0.0811 -1.4010
  123OSM    C1113007   2.123   6.023   6.541  0.1059 -0.9053 -0.5151
  123OSM   H11A13008   2.218   6.007   6.596 -0.0065 -2.1780 -0.6773
  123OSM   H11B13009   2.043   6.036   6.617 -0.3892  3.3023 -1.4623
  123OSM      P13010   2.260   6.198   6.407 -0.5779 -0.1438 -0.0688
  123OSM    O1313011   2.333   6.094   6.334  0.1969  0.6322  0.7480
  123OSM    O1413012   2.229   6.321   6.332  0.0656 -0.4472  0.3616
  123OSM    O1113013   2.342   6.243   6.532  0.6342  0.3746 -0.0522
  123OSM    O1213014   2.121   6.142   6.462 -0.1798 -0.0336  0.5270
  123OSM    C1S13015   2.274   6.330   6.627  0.2286 -1.3617 -0.3724
  123OSM    H1S13016   2.166   6.343   6.602  0.2714 -0.7128 -0.2293
  123OSM    H1T13017   2.325   6.428   6.625  0.3078 -1.3832 -2.9359
  123OSM     NF13018   2.219   6.349   6.871 -0.3162 -0.2394 -0.4202
  123OSM    HNF13019   2.272   6.411   6.928  0.3553 -0.0774 -1.1996
  123OSM    C2S13020   2.291   6.267   6.774  0.5649 -0.6594 -0.6531
  123OSM    H2S13021   2.254   6.163   6.775 -2.6235  0.3554  1.2072
  123OSM    C3S13022   2.442   6.263   6.810 -0.0156 -0.2141 -0.3367
  123OSM    H3S13023   2.484   6.364   6.789 -1.1837 -0.0098 -1.8378
  123OSM     O313024   2.527   6.187   6.729 -0.4617 -0.1627 -0.3397
  123OSM    HO313025   2.473   6.165   6.652 -0.7824 -2.7409  0.5151
  123OSM    C4S13026   2.465   6.228   6.958 -0.1478 -0.3629  0.2086
  123OSM    H4S13027   2.475   6.321   7.015  2.0796 -1.2472  1.4190
  123OSM    C5S13028   2.493   6.110   7.011  0.3472 -0.7614  0.0079
  123OSM    H5S13029   2.503   6.016   6.954 -3.2180 -1.2070 -0.0813
  123OSM    C6S13030   2.525   6.096   7.158 -0.4612 -0.1244 -0.4874
  123OSM    H6S13031   2.459   6.152   7.227  0.9226 -0.2129  0.9743
  123OSM    H6T13032   2.634   6.118   7.167  0.0521 -2.5233 -0.0059
  123OSM    C7S13033   2.520   5.946   7.182 -0.6776  0.2549 -1.2346
  123OSM    H7S13034   2.589   5.887   7.118 -2.3105  0.5890 -3.4226
  123OSM    H7T13035   2.417   5.909   7.163 -0.2454 -2.0117  0.3347
  123OSM    C8S13036   2.543   5.916   7.333 -0.1061 -0.2925  0.0737
  123OSM    H8S13037   2.636   5.971   7.358  0.4815  1.3760 -4.8102
  123OSM    H8T13038   2.572   5.809   7.343 -1.4061 -0.6844 -0.1543
  123OSM    C9S13039   2.420   5.946   7.425 -0.3189 -0.5524 -1.2380
  123OSM    H9S13040   2.352   5.860   7.409 -0.6962 -0.4808 -0.1380
  123OSM    H9T13041   2.364   6.040   7.403 -1.5658 -1.2711 -1.2003
  123OSM   C10S13042   2.457   5.937   7.578 -0.8364 -0.2579 -1.0749
  123OSM   H10S13043   2.555   5.986   7.597 -2.3591  2.8275 -0.6457
  123OSM   H10T13044   2.473   5.827   7.588 -3.8234 -0.5780  3.3669
  123OSM   C11S13045   2.338   5.988   7.651 -0.4939  0.4301  0.1153
  123OSM   H11S13046   2.244   5.949   7.605 -0.1337  1.7190 -1.7815
  123OSM   H11T13047   2.320   6.096   7.635  0.6322  0.6589  0.3209
  123OSM   C12S13048   2.329   5.948   7.798  1.0133 -0.2177 -0.9296
  123OSM   H12S13049   2.358   5.843   7.818  1.0172  0.0009  0.3476
  123OSM   H12T13050   2.222   5.952   7.828  0.3861 -3.2189 -2.4997
  123OSM   C13S13051   2.392   6.060   7.879 -0.3381  0.1962 -0.0833
  123OSM   H13S13052   2.376   6.158   7.829  0.2724  0.0027 -0.6722
  123OSM   H13T13053   2.501   6.040   7.878 -0.6412 -1.8005  1.6633
  123OSM   C14S13054   2.356   6.060   8.029 -0.3891  0.2593 -0.6914
  123OSM   H14S13055   2.247   6.082   8.033 -0.5835 -0.7633  1.8559
  123OSM   H14T13056   2.414   6.147   8.068  1.4920  0.2547 -3.2498
  123OSM   C15S13057   2.397   5.932   8.110 -0.6351  0.9991 -0.1147
  123OSM   H15S13058   2.502   5.899   8.100 -1.8070 -2.9626 -0.8493
  123OSM   H15T13059   2.339   5.857   8.052 -1.5577  0.8809  0.9323
  123OSM   C16S13060   2.371   5.936   8.262  0.1575  0.0633  0.3313
  123OSM   H16S13061   2.282   5.989   8.301  0.3036 -0.3177  1.2086
  123OSM   H16T13062   2.458   5.992   8.303 -0.5284  0.4375  1.3007
  123OSM   C17S13063   2.367   5.795   8.316 -0.8106 -0.2868  0.2647
  123OSM   H17S13064   2.463   5.745   8.340  0.4172  2.2248  0.9969
  123OSM   H17T13065   2.329   5.738   8.229 -1.6495  1.7304 -0.7778
  123OSM   C18S13066   2.268   5.765   8.432 -0.0488  0.6922  0.1281
  123OSM   H18S13067   2.305   5.803   8.529 -2.7814  0.3454  1.4069
  123OSM   H18T13068   2.231   5.661   8.441  1.4218  0.2183  1.0712
  123OSM   H18U13069   2.174   5.817   8.404  0.7093  0.9810 -2.1769
  123OSM    C1F13070   2.088   6.350   6.879 -0.2433  0.2258  0.2682
  123OSM     OF13071   2.025   6.271   6.807 -0.1174 -0.3569 -0.3345
  123OSM    C2F13072   2.024   6.459   6.963  0.8492 -0.3522  0.5212
  123OSM    H2F13073   2.053   6.453   7.070 -0.3074  1.6495  0.9933
  123OSM    H2G13074   1.918   6.434   6.942  1.2864 -1.5494 -0.3849
  123OSM    C3F13075   2.051   6.603   6.912  0.2468 -0.9177 -0.5286
  123OSM    H3F13076   2.016   6.601   6.807  0.3657 -2.7368 -0.5705
  123OSM    H3G13077   2.160   6.621   6.904  0.1534 -0.7921 -1.5997
  123OSM    C4F13078   1.975   6.707   6.998  0.0301 -0.2171 -0.3072
  123OSM    H4F13079   1.995   6.696   7.107 -0.1826  2.4681  0.0679
  123OSM    H4G13080   1.865   6.703   6.982  0.0008 -1.3016  0.0811
  123OSM    C5F13081   2.005   6.857   6.950 -0.1375 -0.3252  0.3386
  123OSM    H5F13082   1.948   6.880   6.857  0.3092 -0.0119  0.1363
  123OSM    H5G13083   2.110   6.860   6.915  0.6298 -0.5569  2.5006
  123OSM    C6F13084   1.971   6.963   7.055 -0.0849 -0.1319 -1.0860
  123OSM    H6F13085   2.042   6.953   7.139  0.4327 -0.4575 -1.5526
  123OSM    H6G13086   1.872   6.938   7.098  0.5980  0.4869  0.9549
  123OSM    C7F13087   1.958   7.108   7.003  0.1433  0.1943 -0.2374
  123OSM    H7F13088   1.866   7.117   6.942  0.5590  1.7261 -0.6838
  123OSM    H7G13089   2.041   7.096   6.929  0.8214 -2.5841  0.8609
  123OSM    C8F13090   1.968   7.209   7.114 -0.1477 -0.7358 -0.5869
  123OSM    H8F13091   1.982   7.312   7.075 -0.7821 -1.2289 -2.2205
  123OSM    H8G13092   2.061   7.188   7.172  1.4237 -1.3411 -3.1435
  123OSM    C9F13093   1.850   7.208   7.208 -0.7716 -0.0548  0.2075
  123OSM    H9F13094   1.753   7.228   7.159 -0.1984  1.8872 -0.2243
  123OSM   C10F13095   1.846   7.167   7.335  0.0636 -0.2206  0.3912
  123OSM   H10F13096   1.745   7.181   7.376 -1.0087 -0.8793 -1.8258
  123OSM   C11F13097   1.951   7.112   7.426  0.7734 -0.0289 -0.2434
  123OSM   H11F13098   1.978   7.185   7.505 -0.1622 -1.8311  1.8428
  123OSM   H11G13099   2.049   7.089   7.378  2.9061  0.7134  3.3763
  123OSM   C12F13100   1.916   6.977   7.487  0.2416  0.0110  0.3388
  123OSM   H12F13101   1.935   6.882   7.432 -3.0994 -0.2604 -0.5685
  123OSM   H12G13102   1.807   6.972   7.505 -0.2610 -0.2457 -2.4122
  123OSM   C13F13103   1.989   6.966   7.619  0.3313  0.0466 -0.1731
  123OSM   H13F13104   2.097   6.983   7.604  0.0111  0.6665 -1.9184
  123OSM   H13G13105   1.976   6.860   7.651 -0.7024 -0.4972 -2.2203
  123OSM   C14F13106   1.932   7.052   7.735  0.6270 -0.0489  0.0067
  123OSM   H14F13107   1.824   7.032   7.750  0.2525  2.4153  1.0921
  123OSM   H14G13108   1.943   7.159   7.704 -1.3125 -0.2197 -1.3935
  123OSM   C15F13109   2.005   7.015   7.868  0.1742 -0.9305 -0.3990
  123OSM   H15F13110   2.110   7.050   7.875 -0.5146  0.9618  2.4337
  123OSM   H15G13111   2.009   6.907   7.892  0.0839 -0.9638 -0.5334
  123OSM   C16F13112   1.922   7.087   7.986 -0.3899  0.2346  0.3309
  123OSM   H16F13113   1.814   7.066   7.970 -0.0008 -1.7742  0.0254
  123OSM   H16G13114   1.943   7.195   7.977  1.1690 -0.1146 -0.5989
  123OSM   C17F13115   1.957   7.035   8.129 -0.2745  0.0375 -0.4580
  123OSM   H17F13116   2.066   7.057   8.134 -0.4123  0.8540 -0.8780
  123OSM   H17G13117   1.939   6.926   8.130 -1.2179  0.1305  2.4725
  123OSM   C18F13118   1.893   7.093   8.253  0.6732  0.4132 -0.5122
  123OSM   H18F13119   1.922   7.054   8.353  2.4067  0.2821 -1.0277
  123OSM   H18G13120   1.786   7.066   8.248  1.0337 -1.2411 -0.0068
  123OSM   H18H13121   1.912   7.202   8.258 -2.2711  0.9556  0.2471
  124OSM      N13122   3.747   4.336   5.824 -0.2786 -0.7043 -0.2689
  124OSM    C1513123   3.817   4.460   5.861 -0.0051 -0.8509  0.5392
  124OSM   H15A13124   3.832   4.525   5.776  3.4747  0.8735  2.2782
  124OSM   H15B13125   3.911   4.423   5.899  0.8967 -0.0344 -0.8327
  124OSM   H15C13126   3.762   4.509   5.940 -1.2667 -2.1160  0.4907
  124OSM    C1413127   3.608   4.365   5.785 -0.1011 -0.2439 -0.0133
  124OSM   H14A13128   3.546   4.279   5.771  0.3338 -0.7635  1.0932
  124OSM   H14B13129   3.610   4.409   5.687  0.2103 -1.3696 -0.5212
  124OSM   H14C13130   3.560   4.414   5.869 -3.4062 -1.6009 -0.9960
  124OSM    C1313131   3.817   4.262   5.716 -0.0999 -0.1249  0.2275
  124OSM   H13A13132   3.898   4.214   5.768  0.0026  1.6603  1.7796
  124OSM   H13B13133   3.847   4.323   5.632  4.2510 -0.6581  1.1809
  124OSM   H13C13134   3.772   4.171   5.677  1.1861 -0.0842 -1.4588
  124OSM    C1213135   3.740   4.245   5.946 -0.2485  0.2595 -0.6951
  124OSM   H12A13136   3.682   4.161   5.910  1.3402 -2.2428  2.0362
  124OSM   H12B13137   3.677   4.290   6.021  2.1516  0.9943  1.0114
  124OSM    C1113138   3.867   4.202   6.023  0.3148 -0.2261  0.0998
  124OSM   H11A13139   3.852   4.156   6.123 -1.6242 -0.6025 -0.3242
  124OSM   H11B13140   3.926   4.295   6.035 -1.7325  1.1843 -0.2215
  124OSM      P13141   3.932   3.962   5.950 -0.1580 -0.1523  0.0933
  124OSM    O1313142   3.791   3.921   5.970 -0.5215 -0.2861  0.1729
  124OSM    O1413143   4.013   3.897   5.840  0.4571 -1.0004  0.1423
  124OSM    O1113144   3.993   3.935   6.091  0.3566  0.2161 -0.0070
  124OSM    O1213145   3.943   4.118   5.936  0.5454 -0.0990 -0.1550
  124OSM    C1S13146   4.134   3.942   6.115 -0.0424  0.1290  0.0174
  124OSM    H1S13147   4.179   4.042   6.094 -1.0774  0.6278  0.0981
  124OSM    H1T13148   4.189   3.865   6.056  0.0504 -0.2757  0.6227
  124OSM     NF13149   4.296   3.947   6.285 -0.3822  0.2364 -0.1406
  124OSM    HNF13150   4.365   3.875   6.290 -2.9108 -2.3595 -0.1653
  124OSM    C2S13151   4.164   3.897   6.262  0.5215 -0.2759 -0.2098
  124OSM    H2S13152   4.093   3.961   6.318 -0.9530 -0.5562 -1.6593
  124OSM    C3S13153   4.126   3.758   6.289  0.7622  0.6995  0.5761
  124OSM    H3S13154   4.176   3.691   6.215  1.6886 -0.1186  1.8909
  124OSM     O313155   3.994   3.725   6.249  0.1588  0.0830  0.2652
  124OSM    HO313156   3.978   3.800   6.191  0.8750 -0.7118 -1.0135
  124OSM    C4S13157   4.153   3.704   6.432 -0.1565 -0.0470  0.5276
  124OSM    H4S13158   4.104   3.765   6.509 -0.5720  0.8888 -0.4531
  124OSM    C5S13159   4.231   3.603   6.473 -0.2751  0.0168 -0.8969
  124OSM    H5S13160   4.281   3.538   6.400 -0.5751  0.3576 -1.4148
  124OSM    C6S13161   4.263   3.569   6.621 -0.0855  0.4503  0.0996
  124OSM    H6S13162   4.188   3.490   6.643  0.2944 -0.2877 -1.1429
  124OSM    H6T13163   4.248   3.660   6.683  2.3244  0.5087  0.7234
  124OSM    C7S13164   4.403   3.507   6.650 -0.2960 -0.6284 -0.3355
  124OSM    H7S13165   4.481   3.581   6.622 -1.7732  0.9624 -0.4014
  124OSM    H7T13166   4.419   3.415   6.589 -0.5254 -0.7002 -0.2913
  124OSM    C8S13167   4.433   3.471   6.798  0.4459  0.3420  0.8658
  124OSM    H8S13168   4.419   3.564   6.858  2.6799  0.3320  1.4902
  124OSM    H8T13169   4.539   3.438   6.808  0.3656 -0.3369 -0.3393
  124OSM    C9S13170   4.346   3.367   6.869 -0.7210 -0.2155 -0.0196
  124OSM    H9S13171   4.355   3.270   6.816  0.5705  0.3498 -0.8840
  124OSM    H9T13172   4.240   3.402   6.871  0.1190  2.5671  0.8820
  124OSM   C10S13173   4.381   3.354   7.014  0.3723  0.2722 -0.3656
  124OSM   H10S13174   4.361   3.448   7.070 -2.2962 -1.8948  2.7529
  124OSM   H10T13175   4.486   3.322   7.030 -0.3505 -1.8432  0.6376
  124OSM   C11S13176   4.287   3.261   7.094  0.1804  0.0232 -1.6315
  124OSM   H11S13177   4.328   3.160   7.076  1.0032 -0.5573  2.5175
  124OSM   H11T13178   4.187   3.264   7.046  0.0512  2.1374 -1.3209
  124OSM   C12S13179   4.277   3.284   7.246  0.7265 -0.2312 -0.1044
  124OSM   H12S13180   4.186   3.225   7.273  1.5648 -3.3152 -3.1988
  124OSM   H12T13181   4.257   3.393   7.252  1.6450 -0.0792  0.2393
  124OSM   C13S13182   4.405   3.256   7.324  0.5852  0.2272 -0.0904
  124OSM   H13S13183   4.469   3.333   7.278  0.8804 -0.7347 -1.3430
  124OSM   H13T13184   4.439   3.153   7.298 -1.7292 -0.5365 -0.4148
  124OSM   C14S13185   4.417   3.278   7.479 -0.2815  0.1312  0.5551
  124OSM   H14S13186   4.376   3.378   7.504  0.8076  0.6257  0.4245
  124OSM   H14T13187   4.525   3.287   7.505 -0.0050  1.8397 -0.9622
  124OSM   C15S13188   4.348   3.172   7.563  0.6431  0.5548  0.1224
  124OSM   H15S13189   4.390   3.071   7.544  0.1817  0.5563 -0.9784
  124OSM   H15T13190   4.247   3.167   7.518  0.0505  0.1764  1.4375
  124OSM   C16S13191   4.334   3.191   7.717  0.5704  0.1301  0.6153
  124OSM   H16S13192   4.247   3.132   7.751  0.6088 -1.3676 -1.6822
  124OSM   H16T13193   4.315   3.299   7.734  0.4305  0.4344 -1.2559
  124OSM   C17S13194   4.460   3.145   7.788 -0.2425  0.1885  0.0796
  124OSM   H17S13195   4.553   3.194   7.750 -0.5801  2.1770  1.6545
  124OSM   H17T13196   4.474   3.038   7.762 -1.1210  0.0667  0.0879
  124OSM   C18S13197   4.455   3.144   7.940  0.1374  0.1036 -0.7059
  124OSM   H18S13198   4.547   3.095   7.978  0.7567  2.2556  0.7348
  124OSM   H18T13199   4.369   3.088   7.982  0.6497 -0.6716 -0.6690
  124OSM   H18U13200   4.445   3.245   7.985  0.7478 -0.4849  0.8296
  124OSM    C1F13201   4.331   4.075   6.295  0.4009 -0.2567 -0.1464
  124OSM     OF13202   4.239   4.155   6.302 -0.4431 -0.7076 -0.4657
  124OSM    C2F13203   4.475   4.107   6.296  0.6969  0.1192 -0.3017
  124OSM    H2F13204   4.492   4.205   6.245  2.0593 -1.3588 -2.9393
  124OSM    H2G13205   4.524   4.027   6.237 -0.9647 -1.0936 -0.0860
  124OSM    C3F13206   4.522   4.131   6.444  0.3853  0.3150 -0.1596
  124OSM    H3F13207   4.459   4.214   6.483  0.9454  1.2066 -1.1134
  124OSM    H3G13208   4.620   4.184   6.446  0.9334 -0.6607 -0.2938
  124OSM    C4F13209   4.528   4.007   6.534  0.2603  0.3818  0.4052
  124OSM    H4F13210   4.532   3.913   6.476 -0.4653 -0.1418  1.1798
  124OSM    H4G13211   4.434   3.997   6.593  1.0273  0.1740  1.6322
  124OSM    C5F13212   4.647   4.015   6.633  0.5553  1.2001 -0.5084
  124OSM    H5F13213   4.649   4.114   6.685  2.4175  0.3215  1.2314
  124OSM    H5G13214   4.738   4.014   6.570  0.4311  0.4642 -0.6825
  124OSM    C6F13215   4.639   3.892   6.730  0.7139  0.2707 -0.0196
  124OSM    H6F13216   4.630   3.796   6.674 -0.8977 -0.3733  1.2734
  124OSM    H6G13217   4.548   3.903   6.792 -0.4188  2.7787 -1.9564
  124OSM    C7F13218   4.751   3.879   6.824 -0.5750  0.4873 -0.3196
  124OSM    H7F13219   4.731   3.947   6.910  0.1173 -1.0002  1.0656
  124OSM    H7G13220   4.855   3.894   6.790 -0.3335  0.2210  0.2747
  124OSM    C8F13221   4.756   3.738   6.888 -0.5561  0.3046  0.0998
  124OSM    H8F13222   4.658   3.697   6.920  1.4087 -4.7648  0.5621
  124OSM    H8G13223   4.825   3.762   6.972 -0.7657  2.7241 -0.3536
  124OSM    C9F13224   4.817   3.628   6.801  0.2540  0.0343 -0.4568
  124OSM    H9F13225   4.791   3.634   6.694 -2.5942  0.7632  0.1737
  124OSM   C10F13226   4.890   3.518   6.841  0.1900  0.7222 -0.3534
  124OSM   H10F13227   4.913   3.447   6.760 -1.2440  1.7867 -1.7779
  124OSM   C11F13228   4.918   3.493   6.984 -0.8713 -0.4670  0.4578
  124OSM   H11F13229   4.908   3.583   7.048  0.3188  0.4999 -0.6567
  124OSM   H11G13230   5.023   3.465   7.006 -0.3053  2.1985  1.4567
  124OSM   C12F13231   4.817   3.397   7.044  0.1826 -0.3068  0.0757
  124OSM   H12F13232   4.802   3.305   6.982 -1.5065  0.9479 -1.4979
  124OSM   H12G13233   4.713   3.436   7.036  0.6987  0.7919 -2.2070
  124OSM   C13F13234   4.840   3.364   7.190 -0.0904  0.4206  0.3209
  124OSM   H13F13235   4.948   3.346   7.210 -0.4623  1.0025  3.1644
  124OSM   H13G13236   4.786   3.275   7.228 -1.0783  1.2133  0.8255
  124OSM   C14F13237   4.796   3.476   7.280  0.2324  0.3627 -0.5200
  124OSM   H14F13238   4.688   3.489   7.261  0.5913  1.1549 -2.2901
  124OSM   H14G13239   4.838   3.576   7.255  2.0085  0.1637  1.3751
  124OSM   C15F13240   4.824   3.456   7.433 -0.5323  0.4001 -0.1031
  124OSM   H15F13241   4.928   3.422   7.449 -1.6346 -2.3159  2.1192
  124OSM   H15G13242   4.767   3.365   7.463 -0.1423 -0.6009 -2.1854
  124OSM   C16F13243   4.794   3.575   7.519  0.2801 -0.4695  0.1478
  124OSM   H16F13244   4.693   3.619   7.504  1.5643  2.4606 -0.4947
  124OSM   H16G13245   4.863   3.658   7.494 -0.0326 -0.1217  0.4336
  124OSM   C17F13246   4.824   3.548   7.671  0.0657  0.1156 -0.4090
  124OSM   H17F13247   4.812   3.646   7.720 -0.7458  0.0104 -0.3858
  124OSM   H17G13248   4.930   3.513   7.676 -0.1405 -0.9997 -2.4712
  124OSM   C18F13249   4.741   3.451   7.750 -0.4967 -0.1317 -0.6276
  124OSM   H18F13250   4.775   3.435   7.854  0.5815  0.8684 -0.8054
  124OSM   H18G13251   4.760   3.358   7.692 -1.6859 -0.3935 -0.6135
  124OSM   H18H13252   4.637   3.490   7.747  0.0362  1.4478  0.2505
  125OSM      N13253   4.366   1.289   5.560 -0.0163  0.4858  0.2922
  125OSM    C1513254   4.461   1.402   5.572  0.3390 -0.6070  0.4576
  125OSM   H15A13255   4.424   1.483   5.634 -1.5822 -0.8729 -0.2823
  125OSM   H15B13256   4.485   1.448   5.477 -0.0753 -1.0198  0.1443
  125OSM   H15C13257   4.554   1.382   5.622 -0.3900  1.1978  2.7279
  125OSM    C1413258   4.250   1.337   5.485  0.3206 -0.2992  0.0844
  125OSM   H14A13259   4.174   1.261   5.474  1.7747 -1.8036  0.1441
  125OSM   H14B13260   4.269   1.374   5.385  3.1123 -1.8928 -0.0475
  125OSM   H14C13261   4.209   1.422   5.538  1.8593 -0.7650  2.1271
  125OSM    C1313262   4.428   1.184   5.478 -0.3274  0.0056  0.2604
  125OSM   H13A13263   4.365   1.097   5.469  1.4417 -1.3099 -0.0718
  125OSM   H13B13264   4.515   1.144   5.529  1.2002 -0.3337 -2.4354
  125OSM   H13C13265   4.460   1.219   5.381 -0.1956  0.7521  0.5601
  125OSM    C1213266   4.346   1.239   5.706  0.1579 -0.2309  0.6193
  125OSM   H12A13267   4.429   1.178   5.738 -1.4121 -1.4578  2.5288
  125OSM   H12B13268   4.270   1.163   5.697  1.0949 -1.2523  1.0308
  125OSM    C1113269   4.299   1.340   5.811  0.0387 -0.2414 -0.7516
  125OSM   H11A13270   4.370   1.425   5.816 -0.2837  0.3672 -4.0762
  125OSM   H11B13271   4.290   1.287   5.909 -1.1632 -1.0279 -1.2640
  125OSM      P13272   4.045   1.312   5.816  0.3976  0.1432  0.2085
  125OSM    O1313273   3.930   1.382   5.755 -0.5369 -0.2963 -0.1032
  125OSM    O1413274   4.055   1.168   5.782 -0.8787 -0.3506  0.7023
  125OSM    O1113275   4.042   1.330   5.974 -0.3858 -0.0567 -0.1309
  125OSM    O1213276   4.172   1.391   5.773 -0.0602 -0.0353 -0.6509
  125OSM    C1S13277   4.001   1.452   6.027 -0.2393 -0.0884 -0.0484
  125OSM    H1S13278   3.901   1.478   5.986 -1.4559 -2.2636  1.3326
  125OSM    H1T13279   4.079   1.527   6.002  1.1774 -1.8986 -1.2939
  125OSM     NF13280   3.931   1.560   6.238  0.7021  0.4424  0.3645
  125OSM    HNF13281   3.999   1.618   6.282  0.0704 -0.2494  2.3736
  125OSM    C2S13282   3.994   1.442   6.183  0.3165  1.2894 -0.4951
  125OSM    H2S13283   3.932   1.352   6.207  0.8848  0.6811 -1.2841
  125OSM    C3S13284   4.140   1.399   6.238 -0.1094 -0.4981  0.2450
  125OSM    H3S13285   4.201   1.488   6.214  0.7062 -0.7273  1.4086
  125OSM     O313286   4.211   1.301   6.174  0.1273  0.7026  0.1659
  125OSM    HO313287   4.162   1.294   6.092  1.8327 -3.1151 -0.7785
  125OSM    C4S13288   4.133   1.368   6.383 -0.1491 -0.4375 -0.9936
  125OSM    H4S13289   4.063   1.286   6.406  0.1053 -0.1292  1.1204
  125OSM    C5S13290   4.202   1.434   6.481 -0.0780  0.1054 -0.2598
  125OSM    H5S13291   4.266   1.512   6.437  2.5690 -2.8666 -2.1513
  125OSM    C6S13292   4.220   1.420   6.628 -0.2707 -0.2348  0.0258
  125OSM    H6S13293   4.191   1.513   6.681 -1.5728  0.0383 -1.1116
  125OSM    H6T13294   4.329   1.411   6.650 -0.0293 -0.2749 -1.1330
  125OSM    C7S13295   4.143   1.300   6.691 -0.6171 -0.2791  0.3872
  125OSM    H7S13296   4.185   1.208   6.646 -0.4627 -0.0934  0.1509
  125OSM    H7T13297   4.035   1.306   6.663 -0.4464 -0.6296 -0.3597
  125OSM    C8S13298   4.155   1.310   6.845 -0.1779  0.0772  0.0574
  125OSM    H8S13299   4.094   1.395   6.883 -0.6378 -1.8647  4.1432
  125OSM    H8T13300   4.262   1.324   6.872  0.0624 -0.5604 -0.5244
  125OSM    C9S13301   4.120   1.181   6.924  0.2475  0.3552  0.4591
  125OSM    H9S13302   4.164   1.090   6.878 -0.0797 -1.8515  4.1578
  125OSM    H9T13303   4.011   1.169   6.942  0.5646 -3.2679  0.6570
  125OSM   C10S13304   4.180   1.185   7.067 -0.3525  0.3316 -0.0776
  125OSM   H10S13305   4.288   1.166   7.049 -0.3977 -0.2751  0.2602
  125OSM   H10T13306   4.135   1.097   7.118 -0.4249  0.2289 -0.3130
  125OSM   C11S13307   4.166   1.316   7.147  0.0148  0.0230  0.5024
  125OSM   H11S13308   4.218   1.399   7.095 -0.1454  0.3689  0.8915
  125OSM   H11T13309   4.228   1.301   7.238  0.4751  1.6467  0.4849
  125OSM   C12S13310   4.030   1.378   7.180 -0.1227  0.0165  0.7084
  125OSM   H12S13311   3.989   1.407   7.081 -0.4925 -0.5342  0.6944
  125OSM   H12T13312   4.044   1.465   7.248  1.1193  2.6189 -2.5851
  125OSM   C13S13313   3.923   1.280   7.234 -0.3539  0.1039 -0.1160
  125OSM   H13S13314   3.978   1.207   7.298 -0.9234  2.0310  2.7398
  125OSM   H13T13315   3.873   1.221   7.155  1.7881 -0.6606 -0.9760
  125OSM   C14S13316   3.832   1.345   7.335  0.7390  0.0967 -0.1155
  125OSM   H14S13317   3.767   1.257   7.353  0.1637 -0.7217 -4.9196
  125OSM   H14T13318   3.769   1.426   7.292  1.5155  0.3310 -0.8337
  125OSM   C15S13319   3.914   1.380   7.461  0.3010 -0.1972 -0.0890
  125OSM   H15S13320   3.978   1.468   7.440  0.1661 -0.0890 -0.0444
  125OSM   H15T13321   3.989   1.302   7.489 -0.2406 -0.1966  1.4128
  125OSM   C16S13322   3.820   1.421   7.580  0.4968  0.1017  0.6735
  125OSM   H16S13323   3.747   1.344   7.610  1.0645 -0.7109 -0.0048
  125OSM   H16T13324   3.763   1.512   7.551  1.9519  0.6569 -0.6160
  125OSM   C17S13325   3.892   1.450   7.712 -1.1971 -0.5513 -0.2848
  125OSM   H17S13326   3.947   1.547   7.709 -0.2217 -1.0537  0.5819
  125OSM   H17T13327   3.960   1.367   7.743  0.9951  2.0645  2.5111
  125OSM   C18S13328   3.782   1.463   7.812  0.0436  0.3049 -0.2387
  125OSM   H18S13329   3.718   1.543   7.770 -1.6809 -1.6516 -1.5421
  125OSM   H18T13330   3.823   1.499   7.909  1.1492  1.3295 -1.0624
  125OSM   H18U13331   3.733   1.364   7.825 -0.8574  0.8128  0.3138
  125OSM    C1F13332   3.803   1.592   6.225  0.6057 -0.4076  0.3995
  125OSM     OF13333   3.728   1.528   6.156  0.3090  0.1081  0.3633
  125OSM    C2F13334   3.755   1.712   6.304 -0.0590 -0.0458  0.2326
  125OSM    H2F13335   3.680   1.672   6.375  1.5851 -1.5737  1.1587
  125OSM    H2G13336   3.716   1.776   6.221  0.2011  0.7418  0.7092
  125OSM    C3F13337   3.869   1.784   6.385 -0.1633  0.6959 -0.1561
  125OSM    H3F13338   3.944   1.799   6.305 -1.3258 -3.6820 -2.3523
  125OSM    H3G13339   3.904   1.710   6.460  0.2703  0.2793 -0.7637
  125OSM    C4F13340   3.832   1.910   6.444 -0.1315 -0.0910 -0.3169
  125OSM    H4F13341   3.741   1.960   6.404 -0.0459 -0.1047 -0.5272
  125OSM    H4G13342   3.919   1.979   6.451 -0.2177  0.1159 -1.1834
  125OSM    C5F13343   3.797   1.879   6.593 -0.8974  0.5456 -0.3417
  125OSM    H5F13344   3.876   1.820   6.644 -2.7336 -1.3009  0.4910
  125OSM    H5G13345   3.710   1.811   6.574 -0.5059  0.2858 -1.2668
  125OSM    C6F13346   3.745   2.000   6.678  0.7095  0.9901 -0.2102
  125OSM    H6F13347   3.673   2.056   6.615  1.3881  1.8849 -0.2077
  125OSM    H6G13348   3.831   2.066   6.701  0.6760  0.5115  1.4089
  125OSM    C7F13349   3.663   1.954   6.806 -0.6632  0.2339 -0.3457
  125OSM    H7F13350   3.584   1.879   6.782 -0.5047 -0.5935  1.5649
  125OSM    H7G13351   3.618   2.036   6.865  0.4206 -1.5732  3.2942
  125OSM    C8F13352   3.756   1.885   6.915 -0.5439  0.0487  0.1657
  125OSM    H8F13353   3.800   1.795   6.867 -1.2904 -0.3532  0.2228
  125OSM    H8G13354   3.701   1.849   7.005  0.2612 -1.0794  0.2270
  125OSM    C9F13355   3.847   1.986   6.977 -0.3578 -0.3970 -0.0332
  125OSM    H9F13356   3.873   2.066   6.906 -1.2010 -0.9566 -0.9878
  125OSM   C10F13357   3.916   1.983   7.093  0.5599  0.5038 -0.6380
  125OSM   H10F13358   3.973   2.070   7.129  0.4926 -0.5159  2.2137
  125OSM   C11F13359   3.906   1.880   7.204 -0.3222 -0.3337 -0.0861
  125OSM   H11F13360   4.006   1.835   7.220 -0.2607 -0.6129 -1.2205
  125OSM   H11G13361   3.833   1.798   7.187 -1.4971  0.8580 -1.0500
  125OSM   C12F13362   3.861   1.947   7.336  0.6317 -0.2001 -0.0082
  125OSM   H12F13363   3.754   1.978   7.339  0.1217 -1.8684  0.3408
  125OSM   H12G13364   3.936   2.026   7.358  2.4188 -2.3886  2.3141
  125OSM   C13F13365   3.876   1.843   7.451  0.2520  0.2884  0.9086
  125OSM   H13F13366   3.978   1.801   7.460 -0.0494 -0.7593 -0.2619
  125OSM   H13G13367   3.804   1.758   7.450 -0.0525  0.4195  3.6223
  125OSM   C14F13368   3.856   1.926   7.585  0.4237  0.1203 -0.0439
  125OSM   H14F13369   3.750   1.959   7.588  0.1634 -0.7224  0.3682
  125OSM   H14G13370   3.918   2.018   7.581 -1.8274  1.7257 -0.2228
  125OSM   C15F13371   3.894   1.850   7.709 -0.6209 -0.1566 -0.2654
  125OSM   H15F13372   3.999   1.812   7.712 -1.1825 -1.6837  0.5360
  125OSM   H15G13373   3.829   1.760   7.710 -0.4501 -0.2893 -0.6433
  125OSM   C16F13374   3.852   1.931   7.830 -0.6733  0.5007 -0.4494
  125OSM   H16F13375   3.743   1.945   7.817 -0.9501 -1.5117 -0.5823
  125OSM   H16G13376   3.900   2.031   7.829  1.9372 -0.6335  1.0316
  125OSM   C17F13377   3.872   1.849   7.961  0.1811 -0.0424  0.5539
  125OSM   H17F13378   3.981   1.843   7.982  1.2165 -0.3271 -3.8398
  125OSM   H17G13379   3.833   1.748   7.937  0.3469 -0.2459  1.1181
  125OSM   C18F13380   3.798   1.903   8.081  0.2150 -0.6102 -0.4821
  125OSM   H18F13381   3.809   1.828   8.163  2.4131 -0.1040 -0.2716
  125OSM   H18G13382   3.690   1.904   8.054  0.5087 -0.8606 -1.7508
  125OSM   H18H13383   3.828   2.004   8.114 -0.8663  0.0973 -1.5946
  126OSM      N13384   5.095   0.235   5.797 -0.6254  0.3689  0.3070
  126OSM    C1513385   4.998   0.125   5.748  0.2806 -0.1617 -0.3623
  126OSM   H15A13386   5.000   0.113   5.641 -2.5793 -0.6047 -0.4231
  126OSM   H15B13387   4.896   0.152   5.769  0.3010 -0.6789  0.4448
  126OSM   H15C13388   5.011   0.023   5.783  0.3204 -0.3814 -1.0136
  126OSM    C1413389   5.229   0.200   5.734 -0.1728  0.4081 -0.4705
  126OSM   H14A13390   5.235   0.206   5.627 -0.1326  3.3169 -0.3868
  126OSM   H14B13391   5.257   0.101   5.766 -0.2029  0.4100 -0.4385
  126OSM   H14C13392   5.301   0.269   5.776 -0.1489 -1.4845  3.0195
  126OSM    C1313393   5.051   0.372   5.751 -0.5521  0.4626  0.3795
  126OSM   H13A13394   5.118   0.441   5.800  3.0692 -2.1975 -0.4281
  126OSM   H13B13395   4.953   0.384   5.796 -0.1477  0.0818  1.3949
  126OSM   H13C13396   5.052   0.388   5.645 -0.1271  2.9189  0.6782
  126OSM    C1213397   5.099   0.223   5.951  0.3499  0.0283 -0.2073
  126OSM   H12A13398   5.130   0.122   5.973  0.3096  0.1618  0.4627
  126OSM   H12B13399   5.001   0.242   5.993  0.3985  2.5529 -1.1054
  126OSM    C1113400   5.193   0.314   6.026 -0.3688 -0.4777  0.2208
  126OSM   H11A13401   5.298   0.300   5.991  0.1528  0.6804  1.2439
  126OSM   H11B13402   5.194   0.290   6.134  0.1176 -0.1075  0.3022
  126OSM      P13403   5.031   0.506   6.095 -0.1247 -0.0366  0.2241
  126OSM    O1313404   5.077   0.638   6.147 -0.0443  0.6243 -0.5389
  126OSM    O1413405   4.914   0.507   6.007  0.8032  0.1433 -0.1077
  126OSM    O1113406   5.002   0.412   6.216  0.3093  0.4589 -0.5931
  126OSM    O1213407   5.156   0.449   6.014  0.1346 -0.0874  0.7052
  126OSM    C1S13408   4.881   0.331   6.218  0.1659  0.5204 -0.3344
  126OSM    H1S13409   4.900   0.230   6.175  2.8874  0.6900  0.2715
  126OSM    H1T13410   4.793   0.375   6.165  0.8040  0.2352 -1.6733
  126OSM     NF13411   4.741   0.196   6.384 -0.4805 -0.2167  0.5664
  126OSM    HNF13412   4.656   0.210   6.435  0.3411 -0.1749  1.9715
  126OSM    C2S13413   4.828   0.312   6.372 -0.1966  0.2579  0.2833
  126OSM    H2S13414   4.912   0.300   6.443  0.1354  2.0313  0.2312
  126OSM    C3S13415   4.753   0.438   6.423 -0.6785 -0.2762  0.1809
  126OSM    H3S13416   4.662   0.444   6.361 -0.7003 -0.3900  0.2010
  126OSM     O313417   4.837   0.557   6.420 -0.6129 -0.6525  0.3675
  126OSM    HO313418   4.911   0.524   6.369  0.8206 -0.1794  2.0850
  126OSM    C4S13419   4.711   0.424   6.565  0.5390  0.0454 -0.0503
  126OSM    H4S13420   4.794   0.418   6.637  0.7381 -0.4101 -0.3178
  126OSM    C5S13421   4.585   0.455   6.608 -0.0410  0.7458  0.1424
  126OSM    H5S13422   4.512   0.495   6.536 -0.5096 -0.9740 -0.3883
  126OSM    C6S13423   4.537   0.446   6.753  0.1037 -0.0305 -0.5930
  126OSM    H6S13424   4.468   0.358   6.751 -0.8395  0.5514  1.9568
  126OSM    H6T13425   4.470   0.532   6.769 -2.6165 -2.3042  1.2046
  126OSM    C7S13426   4.632   0.431   6.876  0.0896  0.0211  0.0786
  126OSM    H7S13427   4.692   0.524   6.876 -2.3518  1.7105 -0.0429
  126OSM    H7T13428   4.684   0.334   6.870 -0.8108 -0.4507 -0.2695
  126OSM    C8S13429   4.550   0.435   7.009 -0.0193  0.1855  0.3296
  126OSM    H8S13430   4.486   0.344   7.008 -0.0624  0.2037  1.0506
  126OSM    H8T13431   4.497   0.533   7.015  0.2262  0.3788 -0.5761
  126OSM    C9S13432   4.645   0.431   7.139  0.1247 -0.2986  0.8457
  126OSM    H9S13433   4.715   0.516   7.153  0.7219 -0.6258 -0.1163
  126OSM    H9T13434   4.713   0.343   7.138  0.1533 -0.3157 -1.8472
  126OSM   C10S13435   4.576   0.423   7.273 -0.3701  0.2032  0.3876
  126OSM   H10S13436   4.512   0.333   7.261 -0.4711  0.4669 -1.3118
  126OSM   H10T13437   4.514   0.512   7.296  1.6024  1.9329 -0.6143
  126OSM   C11S13438   4.686   0.410   7.380 -0.5072  0.6329 -0.2186
  126OSM   H11S13439   4.741   0.506   7.383  0.4468  0.1483 -1.0142
  126OSM   H11T13440   4.761   0.332   7.350 -1.8218 -0.3939 -0.9361
  126OSM   C12S13441   4.617   0.366   7.515 -0.4245 -0.1364  0.0802
  126OSM   H12S13442   4.576   0.262   7.518 -3.5053  1.0023  0.6457
  126OSM   H12T13443   4.532   0.433   7.538 -0.5798  0.9115 -3.0251
  126OSM   C13S13444   4.722   0.357   7.627  0.6936 -0.6109 -0.5037
  126OSM   H13S13445   4.774   0.455   7.619 -1.2424  0.3857 -1.6556
  126OSM   H13T13446   4.794   0.278   7.597  0.3655 -0.4697 -1.7305
  126OSM   C14S13447   4.663   0.341   7.763 -0.4281 -0.2112  0.0076
  126OSM   H14S13448   4.611   0.242   7.764  1.6517 -1.3969 -1.4737
  126OSM   H14T13449   4.586   0.418   7.785 -1.2405 -1.0647  0.2377
  126OSM   C15S13450   4.779   0.343   7.864  0.5105  0.2769  0.0037
  126OSM   H15S13451   4.837   0.437   7.853 -1.2764  1.4872  0.4928
  126OSM   H15T13452   4.840   0.255   7.833 -0.1361 -0.0688 -0.3086
  126OSM   C16S13453   4.722   0.313   8.005 -0.0029 -0.2668 -0.0692
  126OSM   H16S13454   4.655   0.225   7.994 -1.0992  0.4022  1.1226
  126OSM   H16T13455   4.657   0.400   8.028  0.4722  0.1677 -0.3658
  126OSM   C17S13456   4.827   0.303   8.112 -0.0576 -0.4166  0.1504
  126OSM   H17S13457   4.875   0.402   8.124  0.6715 -0.9204  1.7793
  126OSM   H17T13458   4.896   0.225   8.073 -1.0404 -0.6864 -1.1005
  126OSM   C18S13459   4.772   0.276   8.255  0.4996 -0.1836  0.6474
  126OSM   H18S13460   4.723   0.367   8.298  0.8456  0.2213  0.2043
  126OSM   H18T13461   4.863   0.251   8.312  0.5145 -0.0712  0.6741
  126OSM   H18U13462   4.704   0.189   8.245  0.1836  0.2316 -1.2927
  126OSM    C1F13463   4.786   0.071   6.382  0.0034  0.9260  0.4385
  126OSM     OF13464   4.903   0.046   6.348 -0.6671 -0.2108 -0.2211
  126OSM    C2F13465   4.696  -0.029   6.437  0.3587 -0.0808 -0.4402
  126OSM    H2F13466   4.631  -0.068   6.356 -1.2430 -1.2593  1.3175
  126OSM    H2G13467   4.625   0.025   6.503  3.3626  1.5271  1.7180
  126OSM    C3F13468   4.769  -0.147   6.507  0.7418 -0.4104  0.4180
  126OSM    H3F13469   4.824  -0.206   6.430  1.6385 -0.1240  0.8232
  126OSM    H3G13470   4.690  -0.214   6.545 -0.4487  0.3836 -0.5943
  126OSM    C4F13471   4.865  -0.111   6.625 -0.2059 -0.1225 -0.0085
  126OSM    H4F13472   4.951  -0.049   6.591  1.2793 -0.8762  2.1451
  126OSM    H4G13473   4.907  -0.207   6.662 -1.4552 -0.8509 -0.3979
  126OSM    C5F13474   4.788  -0.044   6.734 -0.4741  0.4517  0.1740
  126OSM    H5F13475   4.705  -0.116   6.751 -0.3012  0.6370  1.9705
  126OSM    H5G13476   4.738   0.050   6.703 -1.2728 -0.4397 -1.3545
  126OSM    C6F13477   4.872  -0.044   6.863  0.2947  0.6052  0.5242
  126OSM    H6F13478   4.969   0.006   6.844  0.3148  0.3321 -0.1141
  126OSM    H6G13479   4.898  -0.140   6.914  1.0247 -0.1460 -1.1999
  126OSM    C7F13480   4.811   0.038   6.983  0.2917 -0.5108  0.8320
  126OSM    H7F13481   4.712  -0.007   7.005  0.7256 -1.9790 -0.0388
  126OSM    H7G13482   4.795   0.140   6.943  0.4994 -0.7584  0.0963
  126OSM    C8F13483   4.899   0.042   7.107  0.1843 -0.1490 -0.3283
  126OSM    H8F13484   4.882   0.140   7.156  1.9872 -0.0668  0.2064
  126OSM    H8G13485   5.006   0.053   7.080  0.4322 -0.2431  0.6078
  126OSM    C9F13486   4.881  -0.071   7.204 -0.3584  0.6596 -0.3299
  126OSM    H9F13487   4.919  -0.169   7.171 -0.6252 -0.4164  2.3381
  126OSM   C10F13488   4.838  -0.075   7.332 -0.2197 -0.3686  0.4002
  126OSM   H10F13489   4.833  -0.171   7.385  0.2543 -0.8642 -0.4303
  126OSM   C11F13490   4.783   0.042   7.413  0.5742  0.4577  0.3275
  126OSM   H11F13491   4.703   0.088   7.352 -0.8038 -0.4970  1.3285
  126OSM   H11G13492   4.862   0.119   7.416  0.2055  0.8677 -0.3631
  126OSM   C12F13493   4.739  -0.011   7.554 -0.6140 -0.0804  0.8461
  126OSM   H12F13494   4.666  -0.095   7.551 -1.8104  0.9219  0.7919
  126OSM   H12G13495   4.684   0.069   7.608 -1.0255 -0.1573  0.5488
  126OSM   C13F13496   4.859  -0.053   7.641 -1.0124 -0.1617  0.0876
  126OSM   H13F13497   4.930   0.033   7.639 -1.3326  0.1605 -2.8445
  126OSM   H13G13498   4.921  -0.129   7.588  2.8266  2.1255  0.9188
  126OSM   C14F13499   4.808  -0.100   7.785 -0.7763 -0.0335 -0.0178
  126OSM   H14F13500   4.735  -0.183   7.775 -0.3170 -0.5396  0.7106
  126OSM   H14G13501   4.760  -0.011   7.830 -2.9514 -1.4811  0.6955
  126OSM   C15F13502   4.916  -0.156   7.879  0.6679 -0.1750  0.3454
  126OSM   H15F13503   4.992  -0.076   7.885 -0.9497  1.5852 -1.2249
  126OSM   H15G13504   4.943  -0.250   7.826 -2.6612 -0.6525 -0.7663
  126OSM   C16F13505   4.866  -0.198   8.018 -0.2624 -0.1109  0.4758
  126OSM   H16F13506   4.926  -0.280   8.061  1.4440  1.1488  0.6046
  126OSM   H16G13507   4.761  -0.235   8.011 -0.4989 -0.0803  3.0288
  126OSM   C17F13508   4.888  -0.076   8.107  0.1074 -0.0649  0.4573
  126OSM   H17F13509   4.815   0.001   8.073 -0.0821  1.5220  4.0726
  126OSM   H17G13510   4.989  -0.030   8.101  0.1733 -0.3080 -0.3618
  126OSM   C18F13511   4.852  -0.102   8.258  0.0615  0.1408  0.3658
  126OSM   H18F13512   4.829  -0.005   8.307 -1.0946  0.0799 -0.0282
  126OSM   H18G13513   4.924  -0.167   8.313  0.7992 -0.1663 -0.9126
  126OSM   H18H13514   4.753  -0.153   8.255  0.5252 -0.7523 -1.0337
  127OSM      N13515   1.036   0.439   5.561 -0.4335  0.0494 -0.2238
  127OSM    C1513516   1.151   0.351   5.595 -0.8304 -0.7870 -0.1679
  127OSM   H15A13517   1.158   0.260   5.536  1.8479 -1.8939  1.6126
  127OSM   H15B13518   1.150   0.309   5.694  1.4073 -0.8988 -0.1373
  127OSM   H15C13519   1.241   0.411   5.584 -0.9752 -0.7694 -1.4235
  127OSM    C1413520   1.031   0.556   5.651 -0.1614  0.0213 -0.0116
  127OSM   H14A13521   1.122   0.613   5.656  0.2639 -0.6896  0.7326
  127OSM   H14B13522   0.995   0.518   5.746 -1.3308  2.4822  0.5958
  127OSM   H14C13523   0.955   0.625   5.619 -0.2387  0.3463  0.8435
  127OSM    C1313524   1.062   0.476   5.412 -0.3797  0.1324 -0.1104
  127OSM   H13A13525   1.070   0.392   5.345 -1.3126 -0.4283  0.4603
  127OSM   H13B13526   1.158   0.527   5.412 -1.2425  1.8749  0.6934
  127OSM   H13C13527   0.997   0.555   5.379 -1.2065  0.4093  1.9988
  127OSM    C1213528   0.911   0.361   5.563  0.1410 -0.0213  0.1973
  127OSM   H12A13529   0.921   0.282   5.490 -0.2124 -0.2130  0.3544
  127OSM   H12B13530   0.830   0.424   5.531 -0.8328 -0.5833  1.4654
  127OSM    C1113531   0.867   0.292   5.697  0.5959 -0.4217  0.1077
  127OSM   H11A13532   0.953   0.231   5.732  1.4113 -0.8760 -2.4302
  127OSM   H11B13533   0.772   0.236   5.681 -0.1020  1.2569 -2.1676
  127OSM      P13534   0.762   0.378   5.928  0.0936 -0.5478  0.2821
  127OSM    O1313535   0.783   0.498   6.010 -0.2734  0.1720 -1.1521
  127OSM    O1413536   0.627   0.344   5.889  0.0795 -0.5922  0.4956
  127OSM    O1113537   0.824   0.251   5.999  0.0247  0.4826 -0.0194
  127OSM    O1213538   0.840   0.396   5.793  0.0781  0.5213 -0.5137
  127OSM    C1S13539   0.960   0.248   6.036 -0.8013 -0.1234 -0.0760
  127OSM    H1S13540   1.020   0.331   5.995  1.3357  0.9103  4.4507
  127OSM    H1T13541   0.999   0.156   5.987 -1.5753  0.6330 -2.1910
  127OSM     NF13542   1.126   0.232   6.234 -0.3105  0.0671 -0.0104
  127OSM    HNF13543   1.158   0.148   6.278  2.0298 -0.2913 -2.1420
  127OSM    C2S13544   0.985   0.246   6.198  0.0528  0.2216 -0.0807
  127OSM    H2S13545   0.940   0.341   6.231 -1.1802 -0.6092  0.7099
  127OSM    C3S13546   0.890   0.143   6.261  0.1796  0.6456  0.0739
  127OSM    H3S13547   0.920   0.041   6.228  0.1258  0.2586  1.1660
  127OSM     O313548   0.748   0.148   6.234 -0.1421 -0.0449 -0.3643
  127OSM    HO313549   0.748   0.210   6.160  1.1998  1.6273  0.9371
  127OSM    C4S13550   0.911   0.139   6.410  0.7718 -0.5782 -0.8841
  127OSM    H4S13551   0.997   0.078   6.442 -0.0578 -1.3554 -0.0765
  127OSM    C5S13552   0.848   0.212   6.507 -0.0023  0.0738  0.0940
  127OSM    H5S13553   0.766   0.278   6.476  1.8593  1.4174 -2.2422
  127OSM    C6S13554   0.874   0.200   6.660  0.5826 -0.5981  0.7072
  127OSM    H6S13555   0.776   0.191   6.712 -1.9678  4.1789 -2.4018
  127OSM    H6T13556   0.921   0.296   6.691  0.6979  0.0997 -1.4496
  127OSM    C7S13557   0.966   0.087   6.717 -0.1295  0.4613 -0.2236
  127OSM    H7S13558   1.069   0.082   6.675  0.1357 -2.4051  0.5247
  127OSM    H7T13559   0.922  -0.011   6.688 -0.1858  0.4816 -0.2066
  127OSM    C8S13560   0.981   0.110   6.874 -0.1082  0.8160 -0.2040
  127OSM    H8S13561   1.014   0.215   6.889  0.4336  0.8236 -1.3811
  127OSM    H8T13562   1.057   0.038   6.910 -2.4249 -1.8640 -0.3003
  127OSM    C9S13563   0.854   0.079   6.966 -0.0610 -1.1310  0.2442
  127OSM    H9S13564   0.818  -0.026   6.954 -1.8462 -0.7078  1.4792
  127OSM    H9T13565   0.779   0.151   6.928 -0.3523 -1.4485  0.2127
  127OSM   C10S13566   0.874   0.094   7.122  0.5894  0.2105  0.5536
  127OSM   H10S13567   0.956   0.027   7.155 -0.1902 -0.8006  0.4545
  127OSM   H10T13568   0.774   0.057   7.153  0.3765 -2.0420 -2.4724
  127OSM   C11S13569   0.900   0.240   7.175 -0.1208 -0.9404 -0.6766
  127OSM   H11S13570   0.828   0.308   7.124 -0.1284 -0.0095  0.5351
  127OSM   H11T13571   1.003   0.258   7.139 -0.6399  1.1954 -1.2211
  127OSM   C12S13572   0.886   0.256   7.322  0.5445 -1.0844 -0.3125
  127OSM   H12S13573   0.782   0.236   7.353 -0.5853  0.0997 -2.9877
  127OSM   H12T13574   0.909   0.361   7.349 -1.8244 -0.4730 -0.5228
  127OSM   C13S13575   0.968   0.159   7.409  0.2365 -0.2080  0.0729
  127OSM   H13S13576   1.075   0.164   7.380  0.1929 -1.8213 -0.4441
  127OSM   H13T13577   0.929   0.059   7.379  0.0238 -0.2999  0.6459
  127OSM   C14S13578   0.944   0.161   7.566 -1.1343  0.1831  0.4301
  127OSM   H14S13579   0.836   0.158   7.591 -1.5328  0.0197 -1.1909
  127OSM   H14T13580   0.985   0.255   7.609 -0.6983  1.1454 -1.9302
  127OSM   C15S13581   1.021   0.048   7.639  0.0151  0.5282 -0.2409
  127OSM   H15S13582   1.128   0.054   7.611  0.2948  0.2826  0.7551
  127OSM   H15T13583   0.991  -0.050   7.596 -2.9607  1.5174 -0.6508
  127OSM   C16S13584   1.008   0.051   7.789  0.4982  0.4875  0.1823
  127OSM   H16S13585   0.992   0.159   7.810  0.6761  0.5383  0.0637
  127OSM   H16T13586   1.103   0.020   7.838  0.4408  1.7938  1.1636
  127OSM   C17S13587   0.887  -0.024   7.845 -0.3478 -0.1398 -0.2922
  127OSM   H17S13588   0.912  -0.132   7.859  1.8877  0.3910  0.0917
  127OSM   H17T13589   0.811  -0.033   7.764 -1.2274 -0.6120  0.5557
  127OSM   C18S13590   0.818   0.044   7.960  0.0975  0.2172 -0.8967
  127OSM   H18S13591   0.816   0.155   7.958  0.6998  0.2148 -1.7553
  127OSM   H18T13592   0.862   0.018   8.059  0.3580  3.3988 -0.0405
  127OSM   H18U13593   0.714   0.009   7.977  1.0456 -2.2292  0.3986
  127OSM    C1F13594   1.215   0.335   6.219 -0.0494 -0.4224  0.1753
  127OSM     OF13595   1.176   0.440   6.159 -0.5502  0.2236  0.2308
  127OSM    C2F13596   1.355   0.334   6.271 -1.2437 -0.8514  0.4031
  127OSM    H2F13597   1.429   0.324   6.188 -2.1269  2.1406 -0.8762
  127OSM    H2G13598   1.366   0.253   6.347  1.1314 -1.9824 -1.0245
  127OSM    C3F13599   1.396   0.471   6.333 -0.3167  0.3985  0.7049
  127OSM    H3F13600   1.386   0.546   6.253  0.8134  0.4471  0.5914
  127OSM    H3G13601   1.505   0.467   6.355 -0.1729 -0.2889 -0.0681
  127OSM    C4F13602   1.317   0.519   6.454  1.0991  0.1122 -0.3551
  127OSM    H4F13603   1.212   0.537   6.424  1.8031  1.0701 -2.4059
  127OSM    H4G13604   1.365   0.613   6.488  1.4188 -0.0952 -0.2252
  127OSM    C5F13605   1.328   0.419   6.575  0.1898  0.0095 -0.8270
  127OSM    H5F13606   1.431   0.379   6.580  0.3464  0.2542 -1.9218
  127OSM    H5G13607   1.256   0.337   6.553 -2.3302  2.1971 -1.2534
  127OSM    C6F13608   1.280   0.490   6.704  0.1546  0.3109  0.2733
  127OSM    H6F13609   1.174   0.520   6.689  0.4712  1.1105 -0.4569
  127OSM    H6G13610   1.331   0.587   6.719 -0.2219  0.5651 -0.0851
  127OSM    C7F13611   1.305   0.397   6.815  0.1792 -0.3109  0.7538
  127OSM    H7F13612   1.411   0.383   6.842  0.3675  0.3956  0.4006
  127OSM    H7G13613   1.272   0.295   6.786  1.3887 -0.0141 -1.9616
  127OSM    C8F13614   1.240   0.433   6.951 -0.4938  0.1770  0.1304
  127OSM    H8F13615   1.268   0.352   7.020  1.2889  1.2144  0.6782
  127OSM    H8G13616   1.129   0.435   6.941 -0.4627  0.1428 -0.2415
  127OSM    C9F13617   1.278   0.564   7.013 -0.2577 -0.0277  0.3924
  127OSM    H9F13618   1.240   0.654   6.963 -0.1557  0.7288  1.6634
  127OSM   C10F13619   1.357   0.577   7.121 -0.9046 -0.1740 -0.0717
  127OSM   H10F13620   1.391   0.675   7.159 -0.9714 -1.5420  3.9873
  127OSM   C11F13621   1.436   0.473   7.197 -0.0758  0.0612 -0.3157
  127OSM   H11F13622   1.543   0.501   7.199  0.5903 -2.1014 -2.2756
  127OSM   H11G13623   1.443   0.372   7.153 -0.0218 -0.9257  1.8257
  127OSM   C12F13624   1.362   0.454   7.329 -0.2852 -0.1740  0.1057
  127OSM   H12F13625   1.257   0.422   7.312  0.2246 -1.5378 -0.5998
  127OSM   H12G13626   1.362   0.555   7.375 -0.6861  0.5159 -1.3461
  127OSM   C13F13627   1.444   0.356   7.415  1.0182 -0.0264  0.2047
  127OSM   H13F13628   1.542   0.408   7.422  0.8047  0.1985  2.2646
  127OSM   H13G13629   1.458   0.270   7.347  0.3917  0.7496 -0.9372
  127OSM   C14F13630   1.367   0.329   7.543 -0.0843  0.1026  0.7178
  127OSM   H14F13631   1.286   0.254   7.530  1.0842 -1.2798  1.1739
  127OSM   H14G13632   1.338   0.425   7.591  0.7175  0.6139  0.1937
  127OSM   C15F13633   1.468   0.252   7.636 -0.0364 -0.2060 -0.1091
  127OSM   H15F13634   1.557   0.317   7.621 -0.8021  0.3990 -2.4363
  127OSM   H15G13635   1.480   0.150   7.593 -0.1442 -0.5932  0.7748
  127OSM   C16F13636   1.433   0.236   7.786  0.3807 -0.9297  0.4670
  127OSM   H16F13637   1.348   0.168   7.810 -0.5124  0.0312  0.0809
  127OSM   H16G13638   1.407   0.333   7.833 -1.5000 -0.6011 -1.1454
  127OSM   C17F13639   1.547   0.167   7.869 -0.0926 -0.4993 -0.2916
  127OSM   H17F13640   1.637   0.230   7.854  1.6417 -2.4339  1.2353
  127OSM   H17G13641   1.573   0.070   7.821  3.0646  0.9061 -1.6804
  127OSM   C18F13642   1.516   0.165   8.016 -0.2079 -0.0371  0.4804
  127OSM   H18F13643   1.491   0.268   8.049  0.1187  0.4011 -0.6068
  127OSM   H18G13644   1.605   0.127   8.070 -1.0056 -1.7287  0.6966
  127OSM   H18H13645   1.423   0.106   8.036 -0.2505  0.2538  1.1616
  128OSM      N13646   1.846   3.187   6.102 -0.1438  1.0621 -0.4468
  128OSM    C1513647   1.733   3.146   6.015 -0.3774 -0.3697 -0.0958
  128OSM   H15A13648   1.655   3.104   6.077  2.1273 -2.6294  1.7424
  128OSM   H15B13649   1.757   3.067   5.945 -1.1004 -3.3875  2.8022
  128OSM   H15C13650   1.698   3.237   5.968  0.7404 -0.0454 -0.3256
  128OSM    C1413651   1.882   3.062   6.180  0.0447 -0.4735 -0.1623
  128OSM   H14A13652   1.817   3.058   6.266  2.4490 -0.8589  1.7448
  128OSM   H14B13653   1.982   3.056   6.220 -1.0206  0.6891  2.9984
  128OSM   H14C13654   1.867   2.971   6.124  2.5924 -2.2936  1.8979
  128OSM    C1313655   1.962   3.227   6.015 -0.2512 -0.3461  0.5794
  128OSM   H13A13656   1.938   3.317   5.962  1.1230 -1.6498 -2.4861
  128OSM   H13B13657   1.971   3.156   5.934 -1.8948  0.3541 -0.2634
  128OSM   H13C13658   2.056   3.228   6.069 -0.4167 -2.0708  0.9622
  128OSM    C1213659   1.816   3.295   6.194  0.4640 -0.4628  0.0404
  128OSM   H12A13660   1.905   3.323   6.248  1.1400  1.0961 -1.7721
  128OSM   H12B13661   1.740   3.275   6.267 -0.6822  1.6532 -0.4916
  128OSM    C1113662   1.760   3.435   6.140 -0.3426  0.0955  0.5631
  128OSM   H11A13663   1.855   3.481   6.103 -0.6152 -0.5002 -0.9661
  128OSM   H11B13664   1.729   3.508   6.217  1.1458  1.0803  0.2793
  128OSM      P13665   1.510   3.421   6.075  0.5915  0.1411  0.3579
  128OSM    O1313666   1.465   3.564   6.066 -0.1403  0.0414 -0.4370
  128OSM    O1413667   1.443   3.317   5.993  0.3137 -0.8203 -0.4042
  128OSM    O1113668   1.513   3.364   6.222 -0.0897  0.0561  0.2887
  128OSM    O1213669   1.666   3.420   6.033 -0.3319  0.3727 -0.2361
  128OSM    C1S13670   1.474   3.446   6.334 -0.0014  0.4692 -0.0128
  128OSM    H1S13671   1.373   3.489   6.314  0.1866  0.1056 -1.8845
  128OSM    H1T13672   1.548   3.527   6.353  0.9896  0.2187 -2.4537
  128OSM     NF13673   1.404   3.471   6.561  0.1802  0.2420 -0.3786
  128OSM    HNF13674   1.460   3.498   6.639 -0.9644 -2.6897  1.6130
  128OSM    C2S13675   1.455   3.368   6.473  1.1659 -0.2047  0.0561
  128OSM    H2S13676   1.377   3.293   6.452 -1.0342  2.3552 -1.6102
  128OSM    C3S13677   1.582   3.282   6.512 -0.1192  0.5072  0.5099
  128OSM    H3S13678   1.660   3.361   6.509  0.7990 -0.3925  0.3814
  128OSM     O313679   1.626   3.191   6.411 -0.3759  0.0825 -0.6535
  128OSM    HO313680   1.580   3.224   6.334  0.3970 -1.4269 -1.8235
  128OSM    C4S13681   1.576   3.218   6.649 -0.2003  0.1078 -0.1194
  128OSM    H4S13682   1.620   3.280   6.729  1.9458 -0.9728 -0.3912
  128OSM    C5S13683   1.536   3.092   6.678 -0.4274 -0.2500 -0.9136
  128OSM    H5S13684   1.517   3.019   6.598 -0.7942  0.9683 -1.9752
  128OSM    C6S13685   1.579   3.022   6.809  0.1297 -0.3305  0.8976
  128OSM    H6S13686   1.653   2.940   6.796 -0.1224 -0.8383  2.3939
  128OSM    H6T13687   1.489   2.966   6.841 -0.9846  0.1654 -1.2116
  128OSM    C7S13688   1.643   3.101   6.927  0.4774 -0.2209  0.7359
  128OSM    H7S13689   1.567   3.180   6.946 -0.9415 -1.2044 -0.6282
  128OSM    H7T13690   1.738   3.149   6.898  1.7013 -0.4267  4.0035
  128OSM    C8S13691   1.662   3.016   7.057 -0.2569 -0.2201  0.6910
  128OSM    H8S13692   1.753   2.954   7.044  1.0961  1.5878  1.0724
  128OSM    H8T13693   1.571   2.961   7.088  0.0849 -0.0051  2.1452
  128OSM    C9S13694   1.688   3.100   7.182 -0.2139 -0.1709 -0.4568
  128OSM    H9S13695   1.597   3.157   7.212 -0.3463 -1.1370  1.0864
  128OSM    H9T13696   1.766   3.176   7.162 -1.3081  0.6292 -1.8649
  128OSM   C10S13697   1.721   3.016   7.306 -0.0997 -0.6158  0.4783
  128OSM   H10S13698   1.625   2.966   7.331 -0.1982 -0.0023  1.3562
  128OSM   H10T13699   1.742   3.083   7.392 -2.0295  1.4045 -0.4945
  128OSM   C11S13700   1.828   2.918   7.295 -0.6575  0.8588  0.9948
  128OSM   H11S13701   1.927   2.963   7.272  0.3215 -1.7416 -0.2958
  128OSM   H11T13702   1.807   2.839   7.219 -0.5286  1.5691  0.2064
  128OSM   C12S13703   1.837   2.836   7.421 -0.2138 -0.2896  0.0533
  128OSM   H12S13704   1.739   2.784   7.425  0.3401 -1.5894 -1.8120
  128OSM   H12T13705   1.851   2.892   7.516 -0.0722 -1.6842  0.8851
  128OSM   C13S13706   1.942   2.725   7.418 -0.1688  0.1074  1.3966
  128OSM   H13S13707   2.038   2.772   7.448  0.5648  1.0674 -2.0300
  128OSM   H13T13708   1.957   2.672   7.321 -3.1108  1.5264  0.0364
  128OSM   C14S13709   1.917   2.611   7.523  0.5907 -0.5034 -0.0612
  128OSM   H14S13710   1.984   2.524   7.503  1.6591 -1.0306  4.5699
  128OSM   H14T13711   1.809   2.589   7.507  0.2594  1.3989 -0.6880
  128OSM   C15S13712   1.943   2.655   7.664  0.3256 -0.0527 -0.0145
  128OSM   H15S13713   1.870   2.738   7.675  0.0051 -0.0401 -1.8404
  128OSM   H15T13714   2.047   2.693   7.666 -0.4933  2.3442 -0.1215
  128OSM   C16S13715   1.941   2.541   7.765  0.2980  0.8474  0.4513
  128OSM   H16S13716   2.014   2.468   7.725  0.5226  2.4650 -2.3830
  128OSM   H16T13717   1.839   2.497   7.769  0.1400  1.0501 -0.8899
  128OSM   C17S13718   1.999   2.585   7.897 -0.7346 -0.2493  0.6177
  128OSM   H17S13719   1.923   2.661   7.925 -1.8940 -1.8282  1.9964
  128OSM   H17T13720   2.098   2.626   7.867  0.5620 -3.7541 -0.4730
  128OSM   C18S13721   2.006   2.479   8.006  0.2545 -0.4847 -0.5061
  128OSM   H18S13722   1.966   2.385   7.962  1.7392 -1.1960 -0.4120
  128OSM   H18T13723   1.965   2.514   8.103  0.0216  2.3379 -1.5328
  128OSM   H18U13724   2.111   2.449   8.028  0.6645 -1.1071 -2.9754
  128OSM    C1F13725   1.272   3.502   6.552 -0.1986 -0.9858 -0.7586
  128OSM     OF13726   1.198   3.457   6.472 -0.1863  0.2320 -0.1417
  128OSM    C2F13727   1.213   3.587   6.664  0.0523 -0.3256  0.5915
  128OSM    H2F13728   1.151   3.524   6.731 -1.7867  2.4485  1.6796
  128OSM    H2G13729   1.135   3.645   6.610  0.6261 -0.4872 -0.4348
  128OSM    C3F13730   1.315   3.665   6.736  0.2700  0.3063 -0.6009
  128OSM    H3F13731   1.376   3.723   6.664 -0.7797  0.7026 -1.1986
  128OSM    H3G13732   1.373   3.600   6.806 -1.0322  2.3814  2.6638
  128OSM    C4F13733   1.236   3.761   6.828 -0.1798 -0.0789  0.3200
  128OSM    H4F13734   1.169   3.710   6.900  0.0540 -1.6793 -0.5426
  128OSM    H4G13735   1.181   3.836   6.767  1.0028  0.5489 -0.0263
  128OSM    C5F13736   1.340   3.837   6.908  0.2646  0.6593 -0.6854
  128OSM    H5F13737   1.415   3.881   6.838  1.0963  0.5913  0.1485
  128OSM    H5G13738   1.394   3.767   6.976  1.8575  1.1400 -1.4090
  128OSM    C6F13739   1.285   3.956   6.982  0.6946 -0.0594 -0.3118
  128OSM    H6F13740   1.222   4.016   6.914 -1.9969 -2.9581 -0.6250
  128OSM    H6G13741   1.361   4.031   7.013 -0.1836 -0.0265  1.9116
  128OSM    C7F13742   1.196   3.937   7.116 -0.4158  0.6209 -0.3156
  128OSM    H7F13743   1.099   3.892   7.084 -0.2339  0.4356 -0.6186
  128OSM    H7G13744   1.186   4.040   7.155  1.0544  1.3419 -1.7266
  128OSM    C8F13745   1.260   3.837   7.224 -0.4660  0.4348  0.5469
  128OSM    H8F13746   1.295   3.739   7.188  1.6194  0.2631  2.7852
  128OSM    H8G13747   1.178   3.818   7.296 -2.2879  1.7213 -1.0698
  128OSM    C9F13748   1.381   3.910   7.270 -0.0905 -0.2419 -0.6621
  128OSM    H9F13749   1.468   3.906   7.203 -1.0264  1.8984 -2.1206
  128OSM   C10F13750   1.400   3.966   7.390  0.1328 -0.3190 -0.3444
  128OSM   H10F13751   1.492   4.023   7.409  0.4993 -1.2785  0.9359
  128OSM   C11F13752   1.291   3.990   7.492 -1.5130  0.5689  0.2513
  128OSM   H11F13753   1.282   3.896   7.550  0.9331  0.9488  1.3667
  128OSM   H11G13754   1.188   3.999   7.450 -2.0698 -0.9092  1.2221
  128OSM   C12F13755   1.311   4.111   7.589  0.1865  0.7358 -0.2481
  128OSM   H12F13756   1.311   4.199   7.521  0.6543  1.5955  0.8220
  128OSM   H12G13757   1.407   4.105   7.645 -0.6718 -0.2179  1.1587
  128OSM   C13F13758   1.192   4.123   7.684  0.1761  0.0921 -0.3463
  128OSM   H13F13759   1.152   4.022   7.708  0.3781  0.2976  0.9522
  128OSM   H13G13760   1.120   4.186   7.627  1.1591 -0.9587 -2.9020
  128OSM   C14F13761   1.238   4.197   7.815 -0.3733  0.2692 -0.4425
  128OSM   H14F13762   1.257   4.293   7.762  0.3508  0.0745 -0.5400
  128OSM   H14G13763   1.336   4.177   7.864 -0.6790  0.9444  0.4848
  128OSM   C15F13764   1.132   4.201   7.924 -0.0700 -0.4237 -0.5575
  128OSM   H15F13765   1.163   4.250   8.019  0.1464 -0.6851 -0.4911
  128OSM   H15G13766   1.111   4.095   7.950 -1.3723 -0.3962 -1.4476
  128OSM   C16F13767   1.000   4.267   7.897  0.4184  0.6477 -0.0344
  128OSM   H16F13768   0.928   4.242   7.978  2.2844 -1.2865  1.1661
  128OSM   H16G13769   0.969   4.207   7.809  2.5272  0.4669 -0.7141
  128OSM   C17F13770   1.004   4.419   7.879 -0.0618  0.1776 -0.2451
  128OSM   H17F13771   1.055   4.426   7.780  2.3023  0.3755  0.9147
  128OSM   H17G13772   1.069   4.461   7.959  1.2432 -2.7517  0.3949
  128OSM   C18F13773   0.870   4.480   7.874 -0.5939  0.5669  0.5415
  128OSM   H18F13774   0.813   4.457   7.967  0.8356  1.8097  1.7601
  128OSM   H18G13775   0.813   4.436   7.789  2.1753 -1.0277 -0.6205
  128OSM   H18H13776   0.877   4.590   7.863  2.3446  0.3475 -0.6269
  129OSM      N13777   6.502   6.172   5.664 -0.2140 -0.2427  0.7288
  129OSM    C1513778   6.601   6.075   5.607  0.2902  0.8675 -0.6794
  129OSM   H15A13779   6.705   6.100   5.621  1.1290 -1.8876 -1.3453
  129OSM   H15B13780   6.584   6.061   5.501  1.7621  0.4311 -0.8789
  129OSM   H15C13781   6.581   5.979   5.652 -0.7016  1.7851  0.9584
  129OSM    C1413782   6.482   6.275   5.554  0.3026 -0.8182  0.2228
  129OSM   H14A13783   6.421   6.236   5.473  2.0197  1.9605 -2.6350
  129OSM   H14B13784   6.577   6.309   5.516  0.4990 -1.3342  0.2417
  129OSM   H14C13785   6.424   6.360   5.586 -1.1916 -1.7985  0.2375
  129OSM    C1313786   6.378   6.099   5.696 -0.6015 -0.2550  0.6158
  129OSM   H13A13787   6.299   6.143   5.755  0.2537 -0.0864  1.6670
  129OSM   H13B13788   6.417   6.021   5.759  0.8224  0.2599  0.3999
  129OSM   H13C13789   6.332   6.067   5.603 -1.4004 -1.9736  1.5506
  129OSM    C1213790   6.558   6.246   5.788 -0.3969  0.7418  0.2593
  129OSM   H12A13791   6.484   6.319   5.817 -1.9949 -0.4020 -0.8225
  129OSM   H12B13792   6.653   6.290   5.761  0.1195  0.0431  0.8778
  129OSM    C1113793   6.594   6.156   5.910 -0.2353 -0.0255  0.1777
  129OSM   H11A13794   6.504   6.100   5.943 -1.0559  0.5776 -0.9671
  129OSM   H11B13795   6.611   6.224   5.996 -0.9535  0.8917 -0.3886
  129OSM      P13796   6.854   6.116   5.916  0.1825  0.2397 -0.3322
  129OSM    O1313797   6.939   5.996   5.895  0.4637 -0.1064 -0.2719
  129OSM    O1413798   6.880   6.229   5.819 -0.2233  0.6410  0.0634
  129OSM    O1113799   6.863   6.159   6.062 -0.7696  0.0077  0.0510
  129OSM    O1213800   6.704   6.064   5.891 -0.8180  0.3375 -0.6780
  129OSM    C1S13801   6.861   6.068   6.176 -0.0870 -0.2382 -0.0228
  129OSM    H1S13802   6.926   5.979   6.168 -0.1498 -0.2147 -0.9229
  129OSM    H1T13803   6.761   6.026   6.196  0.6093 -1.6383  0.6265
  129OSM     NF13804   6.948   6.067   6.421 -0.1593  0.0805 -0.7104
  129OSM    HNF13805   6.896   6.053   6.505 -0.4632  0.4638 -0.8339
  129OSM    C2S13806   6.902   6.150   6.310  0.0930 -0.3333 -0.0931
  129OSM    H2S13807   6.990   6.213   6.285  0.7330 -1.1419  0.0485
  129OSM    C3S13808   6.785   6.245   6.351 -0.0691  0.4204  0.1342
  129OSM    H3S13809   6.708   6.175   6.389  0.5019 -1.4986 -2.0322
  129OSM     O313810   6.736   6.313   6.236 -0.0039  0.8874 -0.3180
  129OSM    HO313811   6.769   6.258   6.165 -0.4342  0.2266 -0.0216
  129OSM    C4S13812   6.819   6.344   6.460  0.0953 -0.0687 -0.0262
  129OSM    H4S13813   6.878   6.431   6.428  1.5223 -0.7951  0.5414
  129OSM    C5S13814   6.792   6.329   6.591  0.0007  0.0271  0.3216
  129OSM    H5S13815   6.744   6.235   6.622 -0.0308  0.8793  3.1251
  129OSM    C6S13816   6.818   6.421   6.704  0.6222 -0.2376  0.1643
  129OSM    H6S13817   6.741   6.405   6.783  1.4290 -2.2991  0.5995
  129OSM    H6T13818   6.827   6.523   6.663 -0.0992  0.4716  1.6828
  129OSM    C7S13819   6.958   6.413   6.770 -0.6257 -0.3978 -0.3801
  129OSM    H7S13820   7.042   6.438   6.702  0.0058 -1.2460  0.0753
  129OSM    H7T13821   6.957   6.312   6.816  1.7071 -0.2383  0.1456
  129OSM    C8S13822   6.979   6.520   6.884  0.3702  0.2402 -0.0965
  129OSM    H8S13823   6.963   6.619   6.835 -0.1446 -0.0321 -0.4837
  129OSM    H8T13824   7.088   6.522   6.902  0.4276 -1.4146 -0.1436
  129OSM    C9S13825   6.890   6.507   7.008 -0.1231 -0.2514  0.0207
  129OSM    H9S13826   6.791   6.471   6.971  0.5126 -1.2782 -0.7454
  129OSM    H9T13827   6.896   6.606   7.058 -0.5130  0.5523 -1.4571
  129OSM   C10S13828   6.938   6.399   7.099 -0.1910  0.2344 -0.1069
  129OSM   H10S13829   7.048   6.407   7.111 -0.4174  1.8777  1.1634
  129OSM   H10T13830   6.923   6.302   7.046  1.5697  1.3805 -2.9681
  129OSM   C11S13831   6.871   6.391   7.235  0.0024  0.1446  0.4867
  129OSM   H11S13832   6.767   6.353   7.222  0.3539 -1.3987  1.7774
  129OSM   H11T13833   6.875   6.491   7.283 -0.7031  0.0728  0.7019
  129OSM   C12S13834   6.936   6.284   7.323  0.0148  0.3694 -0.4569
  129OSM   H12S13835   7.038   6.314   7.356  0.3310 -2.5299  1.5731
  129OSM   H12T13836   6.948   6.200   7.251 -2.2425  1.1207 -1.8202
  129OSM   C13S13837   6.852   6.249   7.447  0.1116 -0.1028  0.0057
  129OSM   H13S13838   6.876   6.150   7.491 -1.2302  0.1032  1.2647
  129OSM   H13T13839   6.744   6.256   7.421  0.0940  0.0598  0.1214
  129OSM   C14S13840   6.876   6.355   7.561  0.0044  0.6193 -0.5612
  129OSM   H14S13841   6.838   6.452   7.524 -0.4822  0.9609  0.7544
  129OSM   H14T13842   6.981   6.365   7.597 -1.1685 -1.5212  4.4242
  129OSM   C15S13843   6.798   6.324   7.691  0.4604  0.1508  0.7064
  129OSM   H15S13844   6.844   6.233   7.734  1.7666 -0.5065 -1.8807
  129OSM   H15T13845   6.692   6.309   7.663  0.4171  1.0830  0.3331
  129OSM   C16S13846   6.796   6.438   7.796  0.3386  0.3068 -0.1144
  129OSM   H16S13847   6.726   6.515   7.757 -1.8509 -1.3985  0.1816
  129OSM   H16T13848   6.900   6.471   7.812  0.0641  0.5250  1.3706
  129OSM   C17S13849   6.749   6.387   7.931 -0.2895  1.0873  0.6547
  129OSM   H17S13850   6.811   6.298   7.956  2.4541  1.5297 -3.6286
  129OSM   H17T13851   6.643   6.362   7.909 -0.1562 -2.4442  3.1240
  129OSM   C18S13852   6.749   6.476   8.053  0.3848  0.4733 -0.8233
  129OSM   H18S13853   6.682   6.562   8.035 -0.9153 -0.1938  0.5878
  129OSM   H18T13854   6.849   6.513   8.086 -0.3485  2.2204 -0.4529
  129OSM   H18U13855   6.688   6.422   8.129  2.6654  1.9454  2.2652
  129OSM    C1F13856   7.066   5.996   6.414  0.6092  0.0850  0.8875
  129OSM     OF13857   7.149   6.012   6.322 -0.0508 -0.2145 -0.3005
  129OSM    C2F13858   7.072   5.878   6.509 -0.5738 -0.3821  0.4739
  129OSM    H2F13859   6.990   5.804   6.498  0.8476 -1.8798 -0.4936
  129OSM    H2G13860   7.076   5.927   6.609  1.5985  1.5789 -0.4859
  129OSM    C3F13861   7.201   5.804   6.498 -0.0057 -0.1471  0.5307
  129OSM    H3F13862   7.282   5.877   6.520  0.7052 -0.9124  0.4550
  129OSM    H3G13863   7.220   5.747   6.405  0.3055 -1.4510  1.3723
  129OSM    C4F13864   7.227   5.701   6.613 -0.7199  0.0260  0.9016
  129OSM    H4F13865   7.322   5.648   6.593 -0.7397  0.6275 -1.0844
  129OSM    H4G13866   7.154   5.618   6.627  2.3671 -2.7030  1.9657
  129OSM    C5F13867   7.240   5.766   6.751  0.3412  0.3009 -0.7941
  129OSM    H5F13868   7.149   5.819   6.787  0.6173  0.6179 -0.5456
  129OSM    H5G13869   7.325   5.837   6.750  1.3713 -0.8839 -0.3976
  129OSM    C6F13870   7.293   5.661   6.859 -0.4581  0.0782 -0.3024
  129OSM    H6F13871   7.384   5.614   6.817 -0.2399 -0.5776  0.8697
  129OSM    H6G13872   7.220   5.582   6.885 -3.1149  2.1554 -0.9861
  129OSM    C7F13873   7.350   5.728   6.989  0.9407 -0.0927  0.2266
  129OSM    H7F13874   7.267   5.750   7.060 -0.7831 -0.7329 -1.5033
  129OSM    H7G13875   7.378   5.832   6.960 -2.3162  1.0014  0.5474
  129OSM    C8F13876   7.454   5.634   7.060 -0.5895  0.1104  0.1264
  129OSM    H8F13877   7.507   5.696   7.135 -0.8498  0.2726  0.1796
  129OSM    H8G13878   7.523   5.613   6.975 -0.8491 -0.8631  0.1446
  129OSM    C9F13879   7.386   5.510   7.099  0.5172  0.5877  0.2996
  129OSM    H9F13880   7.397   5.421   7.035  0.2399  0.0657  0.9642
  129OSM   C10F13881   7.314   5.490   7.213 -0.3490 -0.5505  0.8706
  129OSM   H10F13882   7.277   5.387   7.223 -1.1659 -0.4914 -1.0393
  129OSM   C11F13883   7.289   5.586   7.325 -0.1735  0.0870 -0.1076
  129OSM   H11F13884   7.182   5.583   7.355 -0.6315  0.3178 -1.6332
  129OSM   H11G13885   7.299   5.690   7.288 -0.1572 -0.5020 -1.8092
  129OSM   C12F13886   7.373   5.568   7.451 -0.1525 -0.4425  0.2357
  129OSM   H12F13887   7.483   5.568   7.432 -0.3323 -0.7818 -0.8896
  129OSM   H12G13888   7.340   5.472   7.496 -0.8517 -1.2436 -1.8801
  129OSM   C13F13889   7.335   5.675   7.554  0.1122  0.2902  0.1338
  129OSM   H13F13890   7.231   5.661   7.592  0.5219 -0.0376  1.1535
  129OSM   H13G13891   7.348   5.776   7.509  3.7113 -0.3668 -0.5835
  129OSM   C14F13892   7.422   5.668   7.681 -0.7032 -0.5993 -0.2730
  129OSM   H14F13893   7.523   5.691   7.642 -1.4819  1.6017 -1.1426
  129OSM   H14G13894   7.410   5.564   7.719 -3.6517  0.2621  1.5031
  129OSM   C15F13895   7.392   5.774   7.787  0.2166  0.6462 -0.1999
  129OSM   H15F13896   7.284   5.767   7.811  0.6228 -0.3649  1.4662
  129OSM   H15G13897   7.419   5.877   7.753 -0.1092  1.5251  2.0517
  129OSM   C16F13898   7.492   5.739   7.898 -1.0526  0.6766 -0.0423
  129OSM   H16F13899   7.588   5.773   7.854  0.1503 -3.1317 -0.7608
  129OSM   H16G13900   7.506   5.636   7.938  0.5990  1.3737  1.3085
  129OSM   C17F13901   7.480   5.815   8.037 -0.8579  0.2136  0.0223
  129OSM   H17F13902   7.547   5.774   8.115 -0.0134 -2.6621 -2.0833
  129OSM   H17G13903   7.385   5.780   8.084  1.4036 -2.1556  3.1891
  129OSM   C18F13904   7.479   5.962   8.034  0.3686 -0.2158  0.0825
  129OSM   H18F13905   7.470   6.004   8.136  2.6058 -1.3861  0.8355
  129OSM   H18G13906   7.396   5.996   7.969 -1.0423  0.1317  1.9765
  129OSM   H18H13907   7.573   5.996   7.987  0.6832 -0.9167  0.1955
  130OSM      N13908   6.556   2.285   5.967  0.4063 -0.2178  0.3153
  130OSM    C1513909   6.599   2.410   5.904  0.2205 -0.1154  1.1221
  130OSM   H15A13910   6.581   2.418   5.798  0.2539 -1.1964  1.0337
  130OSM   H15B13911   6.707   2.413   5.909  0.3408 -0.1798 -0.8358
  130OSM   H15C13912   6.556   2.489   5.965  1.8064  2.0903 -0.4273
  130OSM    C1413913   6.406   2.266   5.989  0.4018  0.2405  0.5318
  130OSM   H14A13914   6.381   2.332   6.070  2.7781 -0.3244  1.8086
  130OSM   H14B13915   6.375   2.166   6.015 -4.1554  1.9528  2.8127
  130OSM   H14C13916   6.354   2.304   5.902  0.8591  2.8069  1.2941
  130OSM    C1313917   6.587   2.174   5.867 -0.1913  0.0383 -0.5879
  130OSM   H13A13918   6.691   2.154   5.847 -0.2463  0.5937 -1.5245
  130OSM   H13B13919   6.556   2.201   5.767  0.5710  1.7443 -0.3998
  130OSM   H13C13920   6.544   2.079   5.894 -0.8826  0.5537  0.1831
  130OSM    C1213921   6.632   2.259   6.092 -0.2771  0.5327 -0.2747
  130OSM   H12A13922   6.734   2.273   6.062 -0.3243 -0.0206 -0.7252
  130OSM   H12B13923   6.621   2.155   6.118  1.9141  0.1282 -0.7701
  130OSM    C1113924   6.609   2.346   6.221  0.1100  0.2342  0.2820
  130OSM   H11A13925   6.629   2.282   6.309  0.6584 -1.4046 -0.9694
  130OSM   H11B13926   6.501   2.368   6.240 -0.6108 -3.1854  0.8255
  130OSM      P13927   6.848   2.461   6.222 -0.1998  0.3348  0.4215
  130OSM    O1313928   6.901   2.396   6.104  0.4228  0.4020  0.7341
  130OSM    O1413929   6.893   2.602   6.237 -0.0069 -0.0067  0.0126
  130OSM    O1113930   6.885   2.376   6.349  0.8195 -0.1258  0.2562
  130OSM    O1213931   6.687   2.461   6.224  0.2979 -0.4416 -0.1546
  130OSM    C1S13932   6.852   2.414   6.477 -0.0566  0.6080 -0.2403
  130OSM    H1S13933   6.772   2.489   6.489  0.1477  0.6832  0.7601
  130OSM    H1T13934   6.948   2.449   6.522  0.7448  0.9147 -2.1129
  130OSM     NF13935   6.801   2.316   6.708 -0.1153  0.3163  0.8904
  130OSM    HNF13936   6.875   2.286   6.767 -0.4218 -2.1910  0.1390
  130OSM    C2S13937   6.803   2.285   6.565 -0.7908 -0.1365  0.2919
  130OSM    H2S13938   6.698   2.272   6.531 -0.7096 -1.5937  0.5470
  130OSM    C3S13939   6.887   2.159   6.537  0.3587 -0.1979 -0.7221
  130OSM    H3S13940   6.990   2.183   6.569  0.5482  0.1881 -1.6250
  130OSM     O313941   6.884   2.109   6.407 -0.8540 -0.0008  0.1579
  130OSM    HO313942   6.843   2.179   6.357 -1.6346 -0.6256 -0.1048
  130OSM    C4S13943   6.832   2.040   6.610 -0.4043  0.6826 -0.5211
  130OSM    H4S13944   6.723   2.048   6.618 -0.7094 -2.1188 -1.1554
  130OSM    C5S13945   6.901   1.950   6.681 -0.4362 -0.3156  0.1746
  130OSM    H5S13946   7.011   1.951   6.676 -0.1908 -3.5048  2.0428
  130OSM    C6S13947   6.835   1.856   6.780 -0.4996  0.0476 -0.1559
  130OSM    H6S13948   6.862   1.749   6.762 -2.7251 -1.2444  3.2485
  130OSM    H6T13949   6.724   1.851   6.777 -0.4940 -2.2514  1.1765
  130OSM    C7S13950   6.899   1.861   6.923  0.0181 -0.7734 -1.1699
  130OSM    H7S13951   6.900   1.968   6.951  0.3069 -1.1751  0.4452
  130OSM    H7T13952   6.998   1.812   6.930  0.3440 -0.0770 -0.8627
  130OSM    C8S13953   6.806   1.802   7.026  0.2389 -0.4713 -0.0900
  130OSM    H8S13954   6.784   1.696   7.001 -2.7917 -0.2224  1.0829
  130OSM    H8T13955   6.706   1.849   7.016 -0.0957 -1.4878 -1.9783
  130OSM    C9S13956   6.877   1.815   7.162 -0.0352  1.1209 -0.1179
  130OSM    H9S13957   6.881   1.920   7.198 -0.0058  0.9100  0.4983
  130OSM    H9T13958   6.982   1.783   7.148  0.9187  3.0093  2.0725
  130OSM   C10S13959   6.797   1.739   7.271 -1.0715  0.0820  0.3775
  130OSM   H10S13960   6.780   1.631   7.253 -2.6550  0.2772  0.6196
  130OSM   H10T13961   6.696   1.784   7.270 -1.5729 -0.9083  1.8740
  130OSM   C11S13962   6.856   1.755   7.411 -0.4949  0.4661  0.3937
  130OSM   H11S13963   6.873   1.861   7.442  1.9889 -0.3364  2.0869
  130OSM   H11T13964   6.954   1.706   7.431 -0.5074 -1.0497 -2.6885
  130OSM   C12S13965   6.762   1.701   7.516  0.1008  0.5517  0.3351
  130OSM   H12S13966   6.762   1.590   7.504  1.7513  0.3699  1.6647
  130OSM   H12T13967   6.656   1.733   7.505 -0.0647  0.1466  0.6985
  130OSM   C13S13968   6.806   1.742   7.661 -0.4140  0.1822  1.6082
  130OSM   H13S13969   6.847   1.846   7.666  0.5534 -0.2432  4.3385
  130OSM   H13T13970   6.902   1.688   7.673 -0.4996 -0.2734  0.3243
  130OSM   C14S13971   6.699   1.720   7.768 -0.1281 -0.1258  0.1521
  130OSM   H14S13972   6.654   1.623   7.739  0.7664 -0.2845 -0.7726
  130OSM   H14T13973   6.630   1.807   7.756  0.7766  0.7164  0.8801
  130OSM   C15S13974   6.756   1.733   7.914  0.2377 -0.2101 -0.5455
  130OSM   H15S13975   6.802   1.832   7.933  0.0084 -0.0033 -1.0431
  130OSM   H15T13976   6.841   1.663   7.929  2.1966  2.0299 -0.6376
  130OSM   C16S13977   6.655   1.700   8.028  0.5993  0.0778  0.0777
  130OSM   H16S13978   6.621   1.596   8.007 -0.4525  0.5062 -0.4432
  130OSM   H16T13979   6.564   1.763   8.036  2.1443  2.2657  1.4751
  130OSM   C17S13980   6.716   1.691   8.171 -0.1703  0.1196  0.5139
  130OSM   H17S13981   6.645   1.629   8.230  0.6872 -2.8130 -1.3067
  130OSM   H17T13982   6.725   1.793   8.215  4.0865  1.1028 -2.0003
  130OSM   C18S13983   6.859   1.626   8.177  0.2697  0.4139  0.1073
  130OSM   H18S13984   6.898   1.610   8.280 -0.7036 -1.6043  0.2123
  130OSM   H18T13985   6.930   1.687   8.116 -1.1909  2.2862  0.1829
  130OSM   H18U13986   6.856   1.523   8.135 -2.4985  0.3230  0.3476
  130OSM    C1F13987   6.713   2.408   6.745 -0.0258 -0.6913  0.4551
  130OSM     OF13988   6.619   2.439   6.669 -0.1889  0.1023 -0.4374
  130OSM    C2F13989   6.728   2.481   6.871 -0.2138 -0.2760 -0.2852
  130OSM    H2F13990   6.825   2.536   6.865  1.7170 -3.3913  0.1716
  130OSM    H2G13991   6.747   2.412   6.956  1.4699 -0.0343 -0.4325
  130OSM    C3F13992   6.600   2.565   6.906 -0.0303 -0.0123  0.2573
  130OSM    H3F13993   6.514   2.498   6.924  1.5051 -2.5249 -1.1661
  130OSM    H3G13994   6.582   2.634   6.821  0.4249 -0.6162 -0.3461
  130OSM    C4F13995   6.598   2.648   7.039 -0.1334 -0.1343 -0.1743
  130OSM    H4F13996   6.503   2.705   7.043  0.4257  0.7797  0.2496
  130OSM    H4G13997   6.685   2.716   7.028 -0.3074 -0.1706 -2.1152
  130OSM    C5F13998   6.631   2.564   7.164  0.3687 -0.7432 -0.0416
  130OSM    H5F13999   6.720   2.502   7.141  0.8286  0.0149 -0.3465
  130OSM    H5G14000   6.550   2.494   7.195  0.9240 -0.7707  1.3927
  130OSM    C6F14001   6.665   2.656   7.286  0.3822 -0.2334  0.1211
  130OSM    H6F14002   6.585   2.734   7.292  1.1036  0.3966  3.4286
  130OSM    H6G14003   6.760   2.711   7.270 -0.1992  1.7409  2.6730
  130OSM    C7F14004   6.656   2.576   7.411  0.5234 -0.1046  0.0177
  130OSM    H7F14005   6.700   2.474   7.410 -2.5333 -1.5390  0.5968
  130OSM    H7G14006   6.553   2.546   7.437  0.5784 -1.4469 -1.1804
  130OSM    C8F14007   6.725   2.657   7.523 -0.2712 -0.3336  0.5742
  130OSM    H8F14008   6.669   2.753   7.528  1.2307  0.6927 -1.0598
  130OSM    H8G14009   6.825   2.685   7.483 -0.5943 -0.7990 -0.6311
  130OSM    C9F14010   6.731   2.594   7.656 -0.3361  0.8616 -0.0232
  130OSM    H9F14011   6.643   2.605   7.721  1.4048 -0.6786  2.8010
  130OSM   C10F14012   6.833   2.526   7.711  0.0488 -0.1820  1.0569
  130OSM   H10F14013   6.821   2.484   7.811  0.4014  0.4537  1.3728
  130OSM   C11F14014   6.968   2.502   7.653  1.2073 -0.5361  0.4821
  130OSM   H11F14015   7.024   2.598   7.649 -1.8019  1.5192  2.5464
  130OSM   H11G14016   6.946   2.461   7.553  0.5359 -1.5110  1.0063
  130OSM   C12F14017   7.049   2.403   7.737  0.2044  0.4014  0.1439
  130OSM   H12F14018   7.143   2.367   7.689  0.1064 -1.2966  1.1334
  130OSM   H12G14019   6.985   2.312   7.742 -0.9516  1.1707 -0.2886
  130OSM   C13F14020   7.083   2.454   7.880  0.0500 -0.7554  0.1405
  130OSM   H13F14021   7.004   2.494   7.947  0.5989 -1.2463  1.1013
  130OSM   H13G14022   7.157   2.536   7.870  0.0668 -0.4993  1.9864
  130OSM   C14F14023   7.158   2.339   7.953 -0.3711  0.3663 -0.2259
  130OSM   H14F14024   7.230   2.292   7.881 -0.5898 -1.0049  0.4239
  130OSM   H14G14025   7.078   2.266   7.978  0.3197 -0.4412 -0.3025
  130OSM   C15F14026   7.232   2.376   8.084 -0.1483 -0.5389  0.7728
  130OSM   H15F14027   7.154   2.430   8.142 -2.4024 -3.3332  0.5695
  130OSM   H15G14028   7.316   2.444   8.058 -0.4804  0.1242  1.3820
  130OSM   C16F14029   7.282   2.259   8.163 -0.9747  0.1489  0.1647
  130OSM   H16F14030   7.358   2.202   8.106 -2.1167 -0.7007 -0.5700
  130OSM   H16G14031   7.209   2.175   8.167  0.3397 -1.1060 -1.3240
  130OSM   C17F14032   7.309   2.286   8.310 -0.0753  0.8221 -0.5964
  130OSM   H17F14033   7.227   2.336   8.366  0.4338  1.9937 -0.8806
  130OSM   H17G14034   7.388   2.362   8.325 -1.1371  1.7087  0.7654
  130OSM   C18F14035   7.335   2.147   8.383 -0.3578 -0.6514 -0.6783
  130OSM   H18F14036   7.245   2.082   8.388 -1.2612  0.5471 -1.0058
  130OSM   H18G14037   7.380   2.156   8.484  0.9445  1.7044 -1.3961
  130OSM   H18H14038   7.412   2.087   8.330  0.7003 -1.2325  1.4176
  131OSM      N14039   0.543   0.800   6.016  0.0866 -1.0853 -0.9664
  131OSM    C1514040   0.512   0.944   5.995  0.6234 -0.4071  0.0873
  131OSM   H15A14041   0.575   1.003   6.059 -0.1117 -2.1983  2.5786
  131OSM   H15B14042   0.411   0.976   6.019 -0.9533 -1.3279 -4.2779
  131OSM   H15C14043   0.527   0.969   5.891 -1.2044 -0.5176 -0.2482
  131OSM    C1414044   0.491   0.753   6.148 -0.6518 -0.1881 -0.0324
  131OSM   H14A14045   0.530   0.655   6.168 -0.7396 -0.3675 -0.7272
  131OSM   H14B14046   0.383   0.750   6.147 -0.6230 -1.2526 -0.3174
  131OSM   H14C14047   0.533   0.824   6.217  1.3836  0.5277 -1.8840
  131OSM    C1314048   0.474   0.720   5.907 -0.0738 -0.7606  0.6551
  131OSM   H13A14049   0.511   0.618   5.911  0.7639 -0.4437  1.1811
  131OSM   H13B14050   0.509   0.760   5.813 -2.1920  0.4817  0.3185
  131OSM   H13C14051   0.366   0.713   5.901 -0.3365  1.6906  1.6206
  131OSM    C1214052   0.689   0.783   6.009 -0.2809 -0.1995 -0.2742
  131OSM   H12A14053   0.705   0.676   6.018  1.4252  0.0089 -0.4118
  131OSM   H12B14054   0.741   0.819   6.097 -0.9489 -0.1224  0.0901
  131OSM    C1114055   0.764   0.843   5.885  0.4207  0.6866 -0.4567
  131OSM   H11A14056   0.700   0.818   5.798 -0.9249  0.6416  0.4958
  131OSM   H11B14057   0.864   0.796   5.880  0.6033  0.5640  2.5845
  131OSM      P14058   0.878   1.069   5.952 -0.1658  0.4044  0.1249
  131OSM    O1314059   1.007   1.040   5.882 -0.1486 -0.2241 -0.3303
  131OSM    O1414060   0.844   1.211   5.968  0.0179  0.3941 -0.2983
  131OSM    O1114061   0.882   1.002   6.092  0.4024  0.0783 -0.4883
  131OSM    O1214062   0.768   0.985   5.877 -0.1962 -0.2413  0.1189
  131OSM    C1S14063   0.978   1.043   6.193  0.0265  0.3529 -0.5894
  131OSM    H1S14064   1.016   1.147   6.191  3.1273 -0.6979 -0.5585
  131OSM    H1T14065   1.070   0.982   6.192 -0.9916 -1.2463 -0.0202
  131OSM     NF14066   0.974   1.110   6.438 -0.1240 -0.4407  0.1023
  131OSM    HNF14067   1.057   1.086   6.488  0.5580 -0.4805 -1.0309
  131OSM    C2S14068   0.917   1.023   6.341 -0.3239  1.0492 -0.4159
  131OSM    H2S14069   0.809   1.047   6.343 -0.5374  0.1203  1.3401
  131OSM    C3S14070   0.922   0.873   6.379  0.2086  0.0297  0.3815
  131OSM    H3S14071   1.025   0.830   6.381 -0.2077 -1.1486 -1.4557
  131OSM     O314072   0.875   0.791   6.272  0.4636  0.0815 -0.4750
  131OSM    HO314073   0.860   0.852   6.199  1.8247  0.7163 -0.2615
  131OSM    C4S14074   0.866   0.839   6.513 -0.2396  0.2234 -0.0882
  131OSM    H4S14075   0.756   0.828   6.517 -0.1169 -1.1473  0.0597
  131OSM    C5S14076   0.948   0.789   6.609  0.4418 -0.6870  0.5676
  131OSM    H5S14077   1.054   0.778   6.582  0.6454  1.0151  0.5258
  131OSM    C6S14078   0.904   0.724   6.739  1.1068 -0.6965 -0.6585
  131OSM    H6S14079   0.962   0.773   6.820  0.3924 -0.3454 -0.3424
  131OSM    H6T14080   0.941   0.620   6.734  1.5481 -0.4973 -1.8304
  131OSM    C7S14081   0.754   0.739   6.769  0.6164  0.3679 -0.1400
  131OSM    H7S14082   0.694   0.695   6.687  0.5252  2.0836 -1.0474
  131OSM    H7T14083   0.738   0.849   6.773  2.2247  0.6155  0.2821
  131OSM    C8S14084   0.703   0.656   6.893 -0.3167 -0.1713 -0.1931
  131OSM    H8S14085   0.694   0.550   6.864  1.8966 -0.3985 -0.2802
  131OSM    H8T14086   0.600   0.695   6.908  0.1832  1.4534 -0.7016
  131OSM    C9S14087   0.796   0.684   7.009  0.1872 -0.6788 -0.0512
  131OSM    H9S14088   0.815   0.793   7.017 -0.3882 -0.6417  1.0445
  131OSM    H9T14089   0.882   0.614   7.000 -0.4966 -1.4252 -0.8583
  131OSM   C10S14090   0.737   0.654   7.148  0.4183  0.2006 -0.4336
  131OSM   H10S14091   0.725   0.544   7.158  0.2519  0.3875  1.9151
  131OSM   H10T14092   0.643   0.707   7.172  1.1236  1.2814  0.0660
  131OSM   C11S14093   0.835   0.697   7.263 -0.1141 -0.3614  0.1460
  131OSM   H11S14094   0.859   0.804   7.246  2.0102 -0.2039  3.1926
  131OSM   H11T14095   0.933   0.649   7.243  0.1866  0.2479  0.1405
  131OSM   C12S14096   0.779   0.661   7.401 -0.0617  0.6942  0.7183
  131OSM   H12S14097   0.737   0.559   7.386 -2.5198  1.4546  1.9477
  131OSM   H12T14098   0.691   0.725   7.424  0.2159  1.4683 -0.3315
  131OSM   C13S14099   0.884   0.670   7.508 -0.3929 -0.2417 -0.0286
  131OSM   H13S14100   0.929   0.771   7.512  0.2319 -0.3969 -1.9336
  131OSM   H13T14101   0.965   0.596   7.495  0.7495  0.5300  2.2253
  131OSM   C14S14102   0.829   0.635   7.650  0.1299 -0.2965  0.0717
  131OSM   H14S14103   0.801   0.528   7.649  1.3004 -0.6213 -1.6137
  131OSM   H14T14104   0.734   0.691   7.667  0.2568 -0.0256 -0.0976
  131OSM   C15S14105   0.925   0.661   7.761  0.1255  0.6115  0.4337
  131OSM   H15S14106   0.962   0.765   7.771 -0.0833  0.5552  2.2416
  131OSM   H15T14107   1.015   0.598   7.747 -1.2851 -1.0049 -2.1086
  131OSM   C16S14108   0.875   0.634   7.902 -0.2551 -0.0937 -0.0260
  131OSM   H16S14109   0.770   0.670   7.910 -0.4433 -0.5244 -0.4460
  131OSM   H16T14110   0.935   0.691   7.976 -0.4047  0.0874 -0.0428
  131OSM   C17S14111   0.868   0.486   7.936 -0.1933 -0.3745 -0.1115
  131OSM   H17S14112   0.967   0.439   7.953 -0.6932 -1.2925  0.3799
  131OSM   H17T14113   0.827   0.432   7.848 -1.3349  0.9611 -0.4306
  131OSM   C18S14114   0.776   0.454   8.053 -0.3375  0.2502 -0.6314
  131OSM   H18S14115   0.669   0.451   8.027 -0.4901 -1.2396  0.0080
  131OSM   H18T14116   0.800   0.528   8.132  0.2188  0.6532 -1.1651
  131OSM   H18U14117   0.793   0.348   8.084 -2.5106 -0.4420 -1.5806
  131OSM    C1F14118   0.952   1.241   6.434  0.3675 -0.4735  0.1477
  131OSM     OF14119   0.885   1.297   6.350 -0.3288  0.0559  0.4034
  131OSM    C2F14120   1.006   1.315   6.553 -0.5190  0.4126 -0.5432
  131OSM    H2F14121   1.117   1.323   6.554 -0.4575 -0.4443  0.0504
  131OSM    H2G14122   0.980   1.249   6.638 -1.5947  1.6820  0.1622
  131OSM    C3F14123   0.938   1.456   6.560  0.3915 -0.4172 -0.2823
  131OSM    H3F14124   0.827   1.443   6.555  0.6164 -3.0590  0.2717
  131OSM    H3G14125   0.961   1.526   6.477 -1.4148  1.5347  0.7280
  131OSM    C4F14126   0.975   1.542   6.692  0.3038  0.2027  0.1566
  131OSM    H4F14127   0.943   1.647   6.674  1.6669  0.5884 -0.1383
  131OSM    H4G14128   1.085   1.537   6.708  0.3926  2.1016  0.3754
  131OSM    C5F14129   0.882   1.489   6.801 -0.3371  0.1729 -0.1834
  131OSM    H5F14130   0.879   1.378   6.815  0.3713  0.1852  0.0693
  131OSM    H5G14131   0.774   1.507   6.779 -1.3068 -2.8240  1.4571
  131OSM    C6F14132   0.891   1.558   6.939  0.3076  0.0408  0.1056
  131OSM    H6F14133   0.800   1.520   6.991 -0.0306  0.4949 -0.1450
  131OSM    H6G14134   0.886   1.668   6.921 -1.2991  0.1698  1.0622
  131OSM    C7F14135   1.011   1.511   7.023 -0.1248  1.0384  0.2784
  131OSM    H7F14136   1.107   1.550   6.982 -0.0727 -0.4709 -1.1627
  131OSM    H7G14137   1.025   1.401   7.010  0.1323  1.2146 -1.0357
  131OSM    C8F14138   0.994   1.517   7.182  0.3896 -0.6010  0.2511
  131OSM    H8F14139   1.057   1.437   7.227  1.4287 -0.7540 -1.3960
  131OSM    H8G14140   0.889   1.500   7.214  0.6558  0.1365  1.6140
  131OSM    C9F14141   1.027   1.650   7.236  0.4978 -0.4613 -0.8270
  131OSM    H9F14142   1.010   1.731   7.163  0.1649  0.9018  0.7010
  131OSM   C10F14143   1.066   1.665   7.363 -1.1222 -0.2298  0.6992
  131OSM   H10F14144   1.094   1.764   7.400  3.0440  0.7629 -4.0551
  131OSM   C11F14145   1.094   1.549   7.457 -0.3102 -0.3806 -1.0661
  131OSM   H11F14146   1.029   1.460   7.440 -0.6732 -0.2194 -0.5601
  131OSM   H11G14147   1.080   1.589   7.560 -0.3767 -0.3425 -1.0898
  131OSM   C12F14148   1.237   1.504   7.463 -0.3594  0.5105 -0.1112
  131OSM   H12F14149   1.304   1.591   7.476  0.2114  0.3608 -1.8140
  131OSM   H12G14150   1.260   1.461   7.363 -0.7911  2.2474 -0.9948
  131OSM   C13F14151   1.279   1.404   7.578 -0.0780  0.2511  0.5040
  131OSM   H13F14152   1.189   1.350   7.613  1.0962 -1.0366  1.6526
  131OSM   H13G14153   1.306   1.469   7.664  0.9090 -0.1655  0.5282
  131OSM   C14F14154   1.398   1.313   7.549 -0.1071 -0.5796 -0.3336
  131OSM   H14F14155   1.487   1.374   7.525 -0.2877  0.4337  1.4151
  131OSM   H14G14156   1.381   1.259   7.453  1.2141  1.0688 -1.5643
  131OSM   C15F14157   1.430   1.213   7.655 -0.0670 -0.1967 -0.4484
  131OSM   H15F14158   1.520   1.150   7.637 -1.8144 -3.4618  1.3452
  131OSM   H15G14159   1.344   1.143   7.665  0.5048 -0.8548 -0.0627
  131OSM   C16F14160   1.460   1.284   7.787 -0.5446 -0.4788 -0.4697
  131OSM   H16F14161   1.377   1.352   7.816  0.7365  0.5925  0.8759
  131OSM   H16G14162   1.547   1.351   7.768  0.1098 -0.7279  1.4443
  131OSM   C17F14163   1.486   1.189   7.901 -0.0894 -0.0766  0.1043
  131OSM   H17F14164   1.573   1.126   7.874  3.4212  3.1491  2.7203
  131OSM   H17G14165   1.391   1.133   7.918  0.5399 -0.9408  0.8064
  131OSM   C18F14166   1.523   1.259   8.033  0.3999  0.0276  0.0881
  131OSM   H18F14167   1.454   1.343   8.053  0.4416  0.2842 -0.8082
  131OSM   H18G14168   1.625   1.301   8.021  0.2003  1.7549  3.3032
  131OSM   H18H14169   1.525   1.183   8.114  1.6042 -0.4728 -0.3864
  132OSM      N14170   2.968   5.739   6.182 -0.1737  0.2380  0.2327
  132OSM    C1514171   2.938   5.844   6.080  0.0544 -0.4915  0.3596
  132OSM   H15A14172   2.831   5.853   6.066  0.0042  0.1255  1.1121
  132OSM   H15B14173   2.980   5.809   5.987 -0.4353  4.1034 -1.8307
  132OSM   H15C14174   2.984   5.937   6.108 -0.5886 -0.0158 -0.1276
  132OSM    C1414175   2.941   5.603   6.125 -0.9378  0.5994 -0.3039
  132OSM   H14A14176   3.024   5.565   6.067 -0.4691 -0.0630  0.7823
  132OSM   H14B14177   2.859   5.608   6.055 -0.3835  0.1229 -1.0127
  132OSM   H14C14178   2.920   5.526   6.198 -2.3126  1.8271  0.6568
  132OSM    C1314179   3.112   5.748   6.216  0.2735 -0.0508 -0.3798
  132OSM   H13A14180   3.126   5.838   6.274  2.8399 -1.0430  0.7144
  132OSM   H13B14181   3.179   5.756   6.131  0.5023 -0.3682 -0.2323
  132OSM   H13C14182   3.157   5.663   6.266  3.4674 -0.1162 -2.9734
  132OSM    C1214183   2.870   5.753   6.303 -0.0646 -0.1937  0.1118
  132OSM   H12A14184   2.769   5.777   6.277 -0.8245 -2.1366  1.0357
  132OSM   H12B14185   2.893   5.843   6.359 -0.3645 -1.1299  1.8213
  132OSM    C1114186   2.861   5.634   6.404  0.1560 -0.0337 -0.3509
  132OSM   H11A14187   2.795   5.670   6.485 -1.8686 -2.3632 -0.8385
  132OSM   H11B14188   2.968   5.612   6.427 -0.0368  0.1151  0.7255
  132OSM      P14189   2.830   5.374   6.396 -0.2628  0.2312  0.0076
  132OSM    O1314190   2.694   5.311   6.413  0.5376 -0.5065  0.6681
  132OSM    O1414191   2.926   5.310   6.302  0.7597  0.5896 -0.0491
  132OSM    O1114192   2.902   5.389   6.535  0.0404 -0.0375 -0.0137
  132OSM    O1214193   2.801   5.520   6.341  0.0388 -0.3058 -0.5790
  132OSM    C1S14194   2.836   5.411   6.660  0.4216  0.0604  0.7608
  132OSM    H1S14195   2.772   5.321   6.675 -0.1894  0.1915 -0.8055
  132OSM    H1T14196   2.764   5.496   6.651 -0.9279 -1.2527 -3.5048
  132OSM     NF14197   2.863   5.470   6.890 -0.0425  0.2448  0.2675
  132OSM    HNF14198   2.852   5.567   6.914  1.1388 -0.0635  2.2223
  132OSM    C2S14199   2.937   5.436   6.773  0.6095  0.3723  0.1373
  132OSM    H2S14200   2.984   5.336   6.786 -2.9254 -1.4705  0.0929
  132OSM    C3S14201   3.048   5.538   6.739 -0.3709 -0.5462  0.3993
  132OSM    H3S14202   3.006   5.638   6.715  1.8920  0.4912  0.4286
  132OSM     O314203   3.121   5.503   6.620  0.2936 -0.3092 -0.3891
  132OSM    HO314204   3.048   5.456   6.580  1.9982 -3.7608  0.1810
  132OSM    C4S14205   3.150   5.560   6.844 -0.1535 -0.3799  0.1442
  132OSM    H4S14206   3.161   5.668   6.859 -0.6305 -0.3251  0.1127
  132OSM    C5S14207   3.239   5.476   6.902 -0.3269 -0.2313  0.0276
  132OSM    H5S14208   3.244   5.373   6.864  0.7559 -0.1097 -0.1879
  132OSM    C6S14209   3.348   5.510   6.998 -0.3515 -0.4129 -0.3390
  132OSM    H6S14210   3.448   5.465   6.981  0.5963  0.1437  2.8950
  132OSM    H6T14211   3.312   5.497   7.103 -1.5777  1.6284 -0.4658
  132OSM    C7S14212   3.386   5.660   7.023  0.0355 -0.0429 -1.0184
  132OSM    H7S14213   3.295   5.706   7.069  0.3813 -0.9410  0.6009
  132OSM    H7T14214   3.414   5.703   6.924  0.7546 -0.1379 -0.8565
  132OSM    C8S14215   3.489   5.673   7.142 -0.4596  0.1304 -0.2464
  132OSM    H8S14216   3.557   5.756   7.113  0.0546 -0.7464 -1.6798
  132OSM    H8T14217   3.538   5.574   7.147  0.7270  0.7477  0.5636
  132OSM    C9S14218   3.420   5.702   7.275  0.0704 -0.2142 -0.2138
  132OSM    H9S14219   3.364   5.612   7.311  2.3515 -1.4108  0.5189
  132OSM    H9T14220   3.363   5.798   7.278  2.4855  1.2925  1.4816
  132OSM   C10S14221   3.523   5.728   7.384 -0.5433  0.0998  0.3455
  132OSM   H10S14222   3.583   5.819   7.364  0.7376 -0.5538  1.1386
  132OSM   H10T14223   3.593   5.643   7.380  1.4077  1.6677 -0.5432
  132OSM   C11S14224   3.445   5.730   7.513 -0.1201  0.2395 -0.5688
  132OSM   H11S14225   3.386   5.636   7.523  2.5258 -1.5252 -0.6627
  132OSM   H11T14226   3.380   5.820   7.508 -1.0254 -0.4374 -1.5210
  132OSM   C12S14227   3.535   5.746   7.634 -0.5142 -0.1646 -0.2866
  132OSM   H12S14228   3.615   5.669   7.646 -0.4684 -0.0570  0.1217
  132OSM   H12T14229   3.477   5.735   7.728  0.3018  1.0929  0.3942
  132OSM   C13S14230   3.602   5.888   7.631  0.0399  0.5168 -0.5064
  132OSM   H13S14231   3.522   5.965   7.634  1.0147  1.5769 -0.6350
  132OSM   H13T14232   3.662   5.901   7.538  0.8743  1.9261  0.1848
  132OSM   C14S14233   3.702   5.907   7.748 -0.3434  0.0472 -0.2757
  132OSM   H14S14234   3.736   6.009   7.720  0.2485 -0.2683 -0.7250
  132OSM   H14T14235   3.794   5.845   7.748 -1.2760 -1.3617 -0.6282
  132OSM   C15S14236   3.633   5.905   7.885  0.2856  0.1633 -0.3628
  132OSM   H15S14237   3.610   5.798   7.907 -4.0849  1.0034  0.0544
  132OSM   H15T14238   3.539   5.964   7.881  2.1942  3.3664 -2.0976
  132OSM   C16S14239   3.722   5.965   7.993 -0.3402  0.4728  0.1058
  132OSM   H16S14240   3.657   5.979   8.082  0.8619 -1.4195  1.3459
  132OSM   H16T14241   3.765   6.064   7.966 -0.6832  0.5853 -0.0360
  132OSM   C17S14242   3.839   5.877   8.048 -0.0731 -0.2875  0.1288
  132OSM   H17S14243   3.914   5.855   7.969  0.3822  0.2048  0.4213
  132OSM   H17T14244   3.796   5.780   8.082  0.1251  0.2534  2.0133
  132OSM   C18S14245   3.908   5.956   8.153 -0.1734 -0.2889 -0.1859
  132OSM   H18S14246   3.844   6.012   8.224  2.0582  0.5426  1.3092
  132OSM   H18T14247   3.968   6.036   8.106 -1.4580 -0.6081 -2.4985
  132OSM   H18U14248   3.970   5.894   8.222 -0.5687  1.0329  1.4443
  132OSM    C1F14249   2.791   5.386   6.957 -0.0691 -0.3480  0.2477
  132OSM     OF14250   2.776   5.267   6.924 -0.2174 -0.4085  0.3165
  132OSM    C2F14251   2.711   5.447   7.073 -0.5599  0.4226 -1.0471
  132OSM    H2F14252   2.611   5.400   7.078 -0.5952  0.4838 -1.1816
  132OSM    H2G14253   2.709   5.555   7.047  1.0490  0.0140 -3.1673
  132OSM    C3F14254   2.786   5.413   7.207  0.0278  0.3852 -1.1126
  132OSM    H3F14255   2.886   5.460   7.225  0.9321 -0.7004 -2.9849
  132OSM    H3G14256   2.797   5.303   7.212 -2.7557  0.0496 -0.8366
  132OSM    C4F14257   2.694   5.459   7.324  0.9912 -0.2477 -0.0384
  132OSM    H4F14258   2.593   5.412   7.324  0.0965  1.5930  0.2694
  132OSM    H4G14259   2.674   5.567   7.311 -0.3249 -0.6627 -1.9157
  132OSM    C5F14260   2.753   5.438   7.455 -0.2336 -0.7131 -0.1482
  132OSM    H5F14261   2.848   5.495   7.468 -0.2899 -1.0275  2.0940
  132OSM    H5G14262   2.777   5.330   7.461  0.4892 -0.6104 -1.0063
  132OSM    C6F14263   2.660   5.452   7.576 -0.3562 -0.5188  0.8312
  132OSM    H6F14264   2.566   5.402   7.543 -0.1354 -0.7417  0.5419
  132OSM    H6G14265   2.626   5.557   7.586 -4.7001 -1.3628 -2.1576
  132OSM    C7F14266   2.712   5.401   7.712 -0.7215  0.3724 -0.1024
  132OSM    H7F14267   2.806   5.457   7.731  0.6694 -1.3331 -1.5663
  132OSM    H7G14268   2.745   5.295   7.702 -1.7116 -0.0064  0.5297
  132OSM    C8F14269   2.616   5.409   7.829  0.7174 -0.5090  1.0097
  132OSM    H8F14270   2.684   5.356   7.899  1.8837  0.2949  0.4998
  132OSM    H8G14271   2.534   5.337   7.807  1.2405 -0.8937  0.2818
  132OSM    C9F14272   2.572   5.549   7.865 -0.1149 -0.0302  0.6376
  132OSM    H9F14273   2.501   5.593   7.794  1.1571 -0.3070 -0.8769
  132OSM   C10F14274   2.626   5.623   7.958  0.4787  0.3891  0.8468
  132OSM   H10F14275   2.579   5.720   7.978  1.3196  0.8152  0.7824
  132OSM   C11F14276   2.734   5.587   8.061 -0.5276 -0.2173  0.1005
  132OSM   H11F14277   2.800   5.504   8.028  1.8427  1.9055 -0.8131
  132OSM   H11G14278   2.695   5.529   8.148 -1.7286 -1.1240 -1.0211
  132OSM   C12F14279   2.836   5.696   8.107  1.3199  0.2873  0.0794
  132OSM   H12F14280   2.908   5.646   8.175  1.9923 -2.2752 -2.3272
  132OSM   H12G14281   2.782   5.778   8.158  1.7458  0.1580  0.7493
  132OSM   C13F14282   2.898   5.771   7.990 -0.2695 -0.5118  0.4157
  132OSM   H13F14283   2.833   5.852   7.951  0.0729 -1.3307 -2.0534
  132OSM   H13G14284   2.911   5.707   7.900  0.2483  0.1325  0.0329
  132OSM   C14F14285   3.034   5.833   8.032  0.3349 -0.0157 -0.2760
  132OSM   H14F14286   3.081   5.869   7.938 -2.5667  1.1446 -1.4107
  132OSM   H14G14287   3.095   5.753   8.078  0.9783 -0.4929 -1.8832
  132OSM   C15F14288   3.008   5.948   8.126 -0.1135 -0.1802  0.2441
  132OSM   H15F14289   2.944   5.918   8.212  0.1511 -1.1340  0.1233
  132OSM   H15G14290   2.946   6.018   8.066  1.5014 -0.1449 -1.4899
  132OSM   C16F14291   3.138   6.017   8.174 -0.3815 -0.0279 -0.0783
  132OSM   H16F14292   3.113   6.118   8.212 -0.8951 -0.1350 -0.1229
  132OSM   H16G14293   3.195   6.028   8.079 -1.8606 -0.1965 -1.0165
  132OSM   C17F14294   3.226   5.944   8.281 -0.1505  0.2170  0.8126
  132OSM   H17F14295   3.271   5.848   8.246  0.3037  0.0693  1.7528
  132OSM   H17G14296   3.170   5.915   8.372  0.9687  0.1327  1.5016
  132OSM   C18F14297   3.351   6.016   8.343  0.9687 -0.1480  0.2737
  132OSM   H18F14298   3.416   6.063   8.266 -2.6870  4.4346 -0.5352
  132OSM   H18G14299   3.404   5.942   8.406  1.9383  0.0665 -0.2622
  132OSM   H18H14300   3.306   6.102   8.397 -0.1354 -0.0351 -0.7757
  133SAPE     N14301   4.791   0.715  11.078 -0.8895 -0.6337  0.7207
  133SAPE   HN114302   4.764   0.662  11.163  1.4012  0.2174  2.0715
  133SAPE   HN214303   4.808   0.651  10.999  0.4213  0.7945 -0.2246
  133SAPE   HN314304   4.886   0.750  11.100 -1.3423  1.6776 -0.6743
  133SAPE   C1214305   4.709   0.834  11.033 -0.4389 -0.4761  0.1555
  133SAPE  H12A14306   4.685   0.905  11.115  0.4895 -3.2210  2.9628
  133SAPE  H12B14307   4.624   0.782  10.982 -0.2919 -0.2208 -0.3558
  133SAPE   C1114308   4.790   0.909  10.923 -0.1089 -1.0436 -0.4305
  133SAPE  H11A14309   4.723   0.983  10.875 -1.8060 -2.0797  0.2578
  133SAPE  H11B14310   4.801   0.827  10.848 -1.3165 -1.6176  0.0030
  133SAPE     P14311   4.940   1.111  11.000  0.0182  0.1548 -0.2554
  133SAPE   O1314312   4.822   1.168  11.068  0.3395  0.5292 -0.5424
  133SAPE   O1414313   5.070   1.117  11.068  0.0300 -0.0532  0.4420
  133SAPE   O1214314   4.915   0.958  10.970  0.0280  0.3529 -0.5794
  133SAPE   O1114315   4.964   1.168  10.860 -0.6941  0.5999 -0.1529
  133SAPE    C114316   5.061   1.124  10.761  0.0929 -0.1216  0.2923
  133SAPE    HA14317   5.161   1.140  10.805 -0.8502 -0.3328  2.7168
  133SAPE    HB14318   5.047   1.016  10.736  1.8526 -1.2222  3.4522
  133SAPE    C214319   5.051   1.223  10.644  0.6993  0.0884  0.3343
  133SAPE    HS14320   5.051   1.330  10.676 -1.0894  1.0176 -2.3688
  133SAPE   O2114321   4.928   1.191  10.565  0.0360  0.3956  0.0537
  133SAPE   C2114322   4.894   1.290  10.477  0.2017 -0.6258  0.9448
  133SAPE   O2214323   4.961   1.397  10.466  0.2288  0.1210  0.6459
  133SAPE   C2214324   4.754   1.251  10.418 -0.1129 -0.0504 -1.1714
  133SAPE   H2R14325   4.737   1.148  10.457  3.0799 -0.5186 -0.7116
  133SAPE   H2S14326   4.678   1.321  10.458 -0.3363 -1.7404  1.6693
  133SAPE    C314327   5.168   1.215  10.546 -0.8372  0.4474  0.0946
  133SAPE    HX14328   5.264   1.240  10.597  0.0371  1.2454 -1.8463
  133SAPE    HY14329   5.172   1.293  10.467 -1.0875  1.5958  1.1956
  133SAPE   O3114330   5.166   1.074  10.492  0.5753 -0.4631  0.0946
  133SAPE   C3114331   5.283   1.015  10.498 -0.1247  0.2013 -0.7131
  133SAPE   O3214332   5.389   1.068  10.523  0.1324 -0.2174 -0.2703
  133SAPE   C3214333   5.263   0.867  10.451  0.0334  0.6092 -0.0958
  133SAPE   H2X14334   5.168   0.828  10.493  0.0641  1.0460  0.3837
  133SAPE   H2Y14335   5.345   0.810  10.500 -1.7422 -1.4297  0.6889
  133SAPE   C2314336   4.749   1.260  10.263  0.2453  0.2684  0.1104
  133SAPE   H3R14337   4.754   1.370  10.245  0.8666  0.3260  0.5910
  133SAPE   H3S14338   4.653   1.226  10.220 -0.2262 -2.0524  2.7444
  133SAPE   C2414339   4.862   1.188  10.189  0.3617 -0.7730  0.2629
  133SAPE   H4R14340   4.955   1.223  10.238 -0.7868  0.9753  1.2821
  133SAPE   H4S14341   4.854   1.212  10.080 -2.4824 -1.5448  0.2119
  133SAPE   C2514342   4.854   1.037  10.197  0.7415 -0.8190  0.2482
  133SAPE   H5R14343   4.826   1.007  10.298  0.0878 -1.2636 -0.0602
  133SAPE   C2614344   4.864   0.948  10.095 -0.7237 -0.1230 -0.2700
  133SAPE   H6R14345   4.844   0.844  10.125  1.9787 -0.7052 -0.2492
  133SAPE   C2714346   4.869   0.982   9.950 -0.1412 -0.2606  0.3603
  133SAPE   H7R14347   4.968   1.030   9.937 -0.1807 -0.4605 -0.7781
  133SAPE   H7S14348   4.794   1.056   9.916  0.6833  0.7212  0.6140
  133SAPE   C2814349   4.863   0.852   9.869  0.1873  0.4376 -0.0751
  133SAPE   H8R14350   4.868   0.760   9.929  0.8151  0.6053  0.1356
  133SAPE   C2914351   4.875   0.844   9.737 -0.5920  0.2704 -0.3688
  133SAPE   H9R14352   4.877   0.742   9.695 -0.4214  0.8345 -1.7960
  133SAPE  C21014353   4.861   0.957   9.637 -0.2530  0.2872 -0.2598
  133SAPE  H10R14354   4.815   1.047   9.683  1.2830  1.1404 -0.3217
  133SAPE  H10S14355   4.786   0.913   9.568 -0.3707 -0.8759  0.5934
  133SAPE  C21114356   4.992   0.993   9.576 -0.3638  0.5491 -0.2190
  133SAPE  H11R14357   5.065   0.996   9.659  0.8184 -1.2175 -1.1312
  133SAPE  C21214358   5.035   1.008   9.451 -1.3680 -0.3316  0.1524
  133SAPE  H12R14359   5.141   1.028   9.430 -1.0789 -2.6102 -0.9185
  133SAPE  C21314360   4.952   1.010   9.330  0.1053  0.1352 -0.0794
  133SAPE  H13R14361   4.984   1.095   9.267  0.3251  0.7444  0.8357
  133SAPE  H13S14362   4.844   1.025   9.350 -0.0380  0.4274 -1.0246
  133SAPE  C21414363   4.973   0.876   9.251  0.1974  0.1481 -0.3105
  133SAPE  H14R14364   4.933   0.788   9.304  0.0866  1.9770  2.9258
  133SAPE  C21514365   5.015   0.869   9.124 -0.2299 -0.0710  0.6056
  133SAPE  H15R14366   5.020   0.773   9.072  0.8943  0.8289 -1.0245
  133SAPE  C21614367   5.069   0.980   9.044 -0.0129 -0.5712  0.3711
  133SAPE  H16R14368   4.995   1.063   9.051 -0.2262 -0.5342 -1.6635
  133SAPE  H16S14369   5.061   0.966   8.934 -1.7604 -2.6918  0.6743
  133SAPE  C21714370   5.210   1.021   9.074 -1.2686  0.5623  0.1670
  133SAPE  H17R14371   5.284   0.939   9.065 -0.3095  1.5322 -1.2431
  133SAPE  H17S14372   5.232   1.058   9.177  1.9061 -0.2058 -0.1340
  133SAPE  C21814373   5.266   1.125   8.970  0.6158 -0.0676 -0.6549
  133SAPE  H18R14374   5.193   1.208   8.969  0.2937 -0.3369 -0.0323
  133SAPE  H18S14375   5.266   1.082   8.868  0.2483  2.2199 -1.6855
  133SAPE  C21914376   5.397   1.176   9.001 -0.4981 -0.0982  0.3479
  133SAPE  H19R14377   5.468   1.158   8.917 -0.2026  0.9532  0.3641
  133SAPE  H19S14378   5.450   1.116   9.078 -0.6225 -1.7462 -0.7834
  133SAPE  C22014379   5.402   1.328   9.043  0.2328  1.0093  0.1877
  133SAPE  H20R14380   5.373   1.387   8.954  0.1378  2.3859  1.1097
  133SAPE  H20S14381   5.506   1.350   9.077  0.4326  0.1442  0.1632
  133SAPE  H20T14382   5.331   1.343   9.127 -0.2451  2.3862 -0.4469
  133SAPE   C3314383   5.252   0.847  10.302 -0.0557 -0.6089 -0.1043
  133SAPE   H3X14384   5.197   0.928  10.249 -0.5785  0.4064  1.8804
  133SAPE   H3Y14385   5.199   0.752  10.281 -1.0876  0.0489 -0.5826
  133SAPE   C3414386   5.399   0.851  10.254  0.2577  0.4855  0.7818
  133SAPE   H4X14387   5.451   0.778  10.320  1.1642  1.3229  1.0141
  133SAPE   H4Y14388   5.443   0.949  10.284  1.5186  0.1608  0.1154
  133SAPE   C3514389   5.428   0.815  10.105  0.5503 -0.0597 -0.0374
  133SAPE   H5X14390   5.376   0.902  10.059  0.0861 -0.5218 -0.3906
  133SAPE   H5Y14391   5.371   0.726  10.073 -1.4913  2.0705 -2.8465
  133SAPE   C3614392   5.584   0.804  10.077  0.4286 -0.1773  0.0238
  133SAPE   H6X14393   5.622   0.716  10.132  1.5249  0.6322  0.5866
  133SAPE   H6Y14394   5.631   0.899  10.111 -2.5762  1.0841  1.0344
  133SAPE   C3714395   5.606   0.783   9.932 -0.2573 -0.5738  0.1630
  133SAPE   H7X14396   5.547   0.861   9.878 -1.1597 -2.3165 -1.5105
  133SAPE   H7Y14397   5.576   0.684   9.892 -1.0475 -0.3605  0.2041
  133SAPE   C3814398   5.752   0.780   9.870 -0.0104 -0.8146 -0.3372
  133SAPE   H8X14399   5.820   0.725   9.939  1.4705  2.5196  1.0741
  133SAPE   H8Y14400   5.794   0.882   9.877 -1.7815 -0.0522 -0.4030
  133SAPE   C3914401   5.774   0.710   9.734 -0.0853 -0.6024  0.0583
  133SAPE   H9X14402   5.736   0.606   9.740  0.9348 -0.9981 -0.2090
  133SAPE   H9Y14403   5.881   0.711   9.703  0.2991  0.8110  1.2423
  133SAPE  C31014404   5.699   0.783   9.624  0.2017 -0.3857  0.2558
  133SAPE  H10X14405   5.731   0.885   9.594 -3.0152  0.5559 -0.4245
  133SAPE  H10Y14406   5.596   0.810   9.657  0.9718  1.6310  1.1838
  133SAPE  C31114407   5.674   0.699   9.499  0.1712  0.0399  0.0116
  133SAPE  H11X14408   5.595   0.624   9.521  1.5506 -2.1557 -2.0335
  133SAPE  H11Y14409   5.766   0.643   9.474 -0.0090 -0.0092 -0.5597
  133SAPE  C31214410   5.645   0.762   9.358  0.8331  0.5800  0.1800
  133SAPE  H12X14411   5.742   0.800   9.321  0.1629  1.1856 -1.0138
  133SAPE  H12Y14412   5.580   0.849   9.378 -0.4752 -0.2297 -0.4015
  133SAPE  C31314413   5.587   0.657   9.267 -0.4458  0.7568 -0.2009
  133SAPE  H13X14414   5.483   0.631   9.298 -0.3941 -0.3114 -0.8532
  133SAPE  H13Y14415   5.654   0.573   9.293 -1.5333  0.0307  0.3156
  133SAPE  C31414416   5.586   0.691   9.121 -0.4438  0.1969 -0.1063
  133SAPE  H14X14417   5.676   0.753   9.099 -1.5127  0.9276 -2.8455
  133SAPE  H14Y14418   5.497   0.757   9.105  0.3320  1.6209  1.1642
  133SAPE  C31514419   5.602   0.576   9.025 -0.8464  0.2909  0.6112
  133SAPE  H15X14420   5.516   0.507   9.039  1.4920 -3.2003 -0.7119
  133SAPE  H15Y14421   5.689   0.513   9.054  1.9736  4.8424  3.3238
  133SAPE  C31614422   5.616   0.615   8.880  0.1042 -0.4359  0.3143
  133SAPE  H16X14423   5.690   0.696   8.866  0.1549 -0.5722 -0.2389
  133SAPE  H16Y14424   5.526   0.673   8.851 -0.8702 -2.7350 -1.6378
  133SAPE  C31714425   5.615   0.492   8.792 -0.2498 -0.1213  0.1190
  133SAPE  H17X14426   5.536   0.503   8.714 -0.4479  0.1998  0.3658
  133SAPE  H17Y14427   5.581   0.411   8.860 -1.2105 -0.6379 -0.9329
  133SAPE  C31814428   5.750   0.466   8.725  0.6826  0.1421 -0.2038
  133SAPE  H18X14429   5.826   0.450   8.804  1.6955  1.8143 -0.7748
  133SAPE  H18Y14430   5.777   0.550   8.656 -0.3201 -1.2012 -2.3486
  133SAPE  H18Z14431   5.747   0.375   8.661 -1.4555  0.4285 -0.5867
  134SAPE     N14432   1.701   1.481  10.799  0.1180 -0.9454  0.6576
  134SAPE   HN114433   1.794   1.521  10.773 -0.0231  0.2861  1.9417
  134SAPE   HN214434   1.651   1.439  10.718 -0.9859 -2.3053  2.0005
  134SAPE   HN314435   1.642   1.557  10.839 -2.0959 -1.1263 -1.9563
  134SAPE   C1214436   1.737   1.360  10.884  0.4471 -0.1320 -0.9327
  134SAPE  H12A14437   1.640   1.309  10.903  1.6671 -1.7337  1.5134
  134SAPE  H12B14438   1.772   1.396  10.983 -0.1552  0.4600 -0.9287
  134SAPE   C1114439   1.830   1.266  10.809  0.1107  0.0200 -0.3136
  134SAPE  H11A14440   1.839   1.179  10.878 -1.6698  0.1950  0.1957
  134SAPE  H11B14441   1.931   1.311  10.801 -0.7486  2.0802 -0.3383
  134SAPE     P14442   1.659   1.130  10.655  0.5823  0.4432  0.0590
  134SAPE   O1314443   1.654   1.030  10.767  0.2444  0.1726  0.0037
  134SAPE   O1414444   1.532   1.212  10.646 -0.0550  0.1985 -0.1457
  134SAPE   O1214445   1.773   1.236  10.682  0.1826  0.3830  0.3534
  134SAPE   O1114446   1.674   1.054  10.518  0.4288 -0.0431  0.0500
  134SAPE    C114447   1.726   1.127  10.408  0.6552 -0.5112  0.1516
  134SAPE    HA14448   1.718   1.238  10.408 -0.7151 -0.5718  1.8980
  134SAPE    HB14449   1.833   1.099  10.400  0.1982 -2.2447 -0.1299
  134SAPE    C214450   1.654   1.078  10.272  0.0590 -0.1552  0.3318
  134SAPE    HS14451   1.546   1.101  10.285 -0.0488  0.5767 -1.5973
  134SAPE   O2114452   1.667   0.936  10.256  0.2229 -0.1811 -0.6476
  134SAPE   C2114453   1.570   0.872  10.196 -0.1563 -0.6622  0.8269
  134SAPE   O2214454   1.475   0.925  10.139 -0.0857 -0.4083  0.0280
  134SAPE   C2214455   1.595   0.721  10.203 -0.4597  0.5284 -0.8135
  134SAPE   H2R14456   1.691   0.701  10.255 -0.9167 -0.4235 -0.3198
  134SAPE   H2S14457   1.517   0.683  10.272  1.4580  0.4444  1.4366
  134SAPE    C314458   1.704   1.162  10.146  0.1581  0.7718  0.6744
  134SAPE    HX14459   1.812   1.144  10.125 -0.3070  1.4032 -2.9108
  134SAPE    HY14460   1.691   1.266  10.183 -1.9185  0.4518  0.9474
  134SAPE   O3114461   1.635   1.141  10.020 -0.8149  0.1931  0.2273
  134SAPE   C3114462   1.505   1.185  10.013 -0.4056  0.0677  0.2565
  134SAPE   O3214463   1.457   1.237  10.106 -0.4325 -0.4372  0.0441
  134SAPE   C3214464   1.459   1.150   9.872  0.0136 -0.0606  0.0376
  134SAPE   H2X14465   1.544   1.107   9.815  1.2832 -0.0722  1.8451
  134SAPE   H2Y14466   1.435   1.247   9.824 -0.1763 -0.6477 -1.0825
  134SAPE   C2314467   1.604   0.643  10.069  0.0541  0.3029 -0.5286
  134SAPE   H3R14468   1.703   0.666  10.025  0.0661  2.4736  0.4910
  134SAPE   H3S14469   1.524   0.683  10.002 -3.1709 -1.5360  1.9363
  134SAPE   C2414470   1.585   0.488  10.097 -0.6188  0.8985  0.1356
  134SAPE   H4R14471   1.484   0.469  10.140  0.0722  0.2461  1.5413
  134SAPE   H4S14472   1.665   0.475  10.172  0.5463  2.6255 -0.7396
  134SAPE   C2514473   1.617   0.394   9.981  0.2465  0.3985 -0.5643
  134SAPE   H5R14474   1.673   0.308  10.020 -1.6173 -0.7659 -0.2896
  134SAPE   C2614475   1.611   0.413   9.847 -0.3083  0.3580  0.0601
  134SAPE   H6R14476   1.647   0.333   9.780  1.4249  1.0299  0.1279
  134SAPE   C2714477   1.557   0.534   9.775 -0.5116  0.6102  0.2378
  134SAPE   H7R14478   1.594   0.523   9.671 -1.0283  0.1124  0.0981
  134SAPE   H7S14479   1.613   0.619   9.818  3.4800 -2.5778  2.0114
  134SAPE   C2814480   1.410   0.549   9.779  0.0806 -0.2692  0.5719
  134SAPE   H8R14481   1.369   0.519   9.876 -1.0797  1.8967  0.8219
  134SAPE   C2914482   1.320   0.601   9.695 -0.5415  0.0681  0.1466
  134SAPE   H9R14483   1.214   0.608   9.721 -0.6669 -0.8582 -0.0764
  134SAPE  C21014484   1.359   0.658   9.561  0.4274 -0.1866  0.5884
  134SAPE  H10R14485   1.468   0.657   9.544  0.4663  0.2878  0.8055
  134SAPE  H10S14486   1.323   0.763   9.562  1.5616  0.2477 -0.9930
  134SAPE  C21114487   1.285   0.574   9.457 -0.0631  0.2942 -0.7401
  134SAPE  H11R14488   1.218   0.497   9.497 -2.0505  2.1885 -0.2435
  134SAPE  C21214489   1.299   0.574   9.322 -0.2505  0.5532  0.1444
  134SAPE  H12R14490   1.240   0.513   9.252 -0.0795  2.8832 -2.2117
  134SAPE  C21314491   1.402   0.667   9.262 -0.0488 -0.5128  0.1123
  134SAPE  H13R14492   1.480   0.600   9.221 -0.8644 -1.1442 -0.4584
  134SAPE  H13S14493   1.449   0.746   9.324 -3.6076  1.0479  1.0697
  134SAPE  C21414494   1.326   0.745   9.163  0.2331 -0.5113  0.1605
  134SAPE  H14R14495   1.286   0.836   9.211 -2.1608 -1.9412  1.0588
  134SAPE  C21514496   1.313   0.725   9.028  0.7278 -0.0942 -0.2097
  134SAPE  H15R14497   1.257   0.794   8.963  0.6786 -0.5403 -0.6470
  134SAPE  C21614498   1.363   0.612   8.947  0.2880 -0.3758 -0.1847
  134SAPE  H16R14499   1.285   0.542   8.911 -1.0525  0.1476  1.5563
  134SAPE  H16S14500   1.443   0.558   9.002  1.4793  2.3484  0.9366
  134SAPE  C21714501   1.425   0.690   8.825  0.1458 -0.7322 -1.1828
  134SAPE  H17R14502   1.476   0.781   8.864 -1.1493  0.6820 -2.6303
  134SAPE  H17S14503   1.341   0.729   8.763  0.3203 -0.6557 -1.3705
  134SAPE  C21814504   1.526   0.605   8.753 -0.0019 -0.5261 -0.4819
  134SAPE  H18R14505   1.500   0.498   8.739 -1.0828  0.0100 -3.4917
  134SAPE  H18S14506   1.627   0.611   8.800 -1.1841 -1.7858  2.4537
  134SAPE  C21914507   1.546   0.644   8.601 -0.7418 -0.0328 -0.1099
  134SAPE  H19R14508   1.560   0.753   8.589 -0.7040 -0.2314 -2.2070
  134SAPE  H19S14509   1.448   0.622   8.553  0.5488 -2.1781 -1.9785
  134SAPE  C22014510   1.664   0.567   8.538 -0.0785 -0.0638 -0.1975
  134SAPE  H20R14511   1.758   0.595   8.591  0.1046 -1.5261  0.2787
  134SAPE  H20S14512   1.675   0.595   8.431 -0.0591  1.1031  0.0930
  134SAPE  H20T14513   1.637   0.460   8.537  0.0358 -0.0931 -0.1507
  134SAPE   C3314514   1.333   1.054   9.849 -0.1965  0.0910  0.2216
  134SAPE   H3X14515   1.240   1.081   9.904  0.1065  1.1584  0.2380
  134SAPE   H3Y14516   1.359   0.949   9.876  1.1219  0.0108 -1.2259
  134SAPE   C3414517   1.292   1.046   9.703 -0.0438 -0.0417 -0.0606
  134SAPE   H4X14518   1.354   0.982   9.636  0.0170 -1.0577  0.9386
  134SAPE   H4Y14519   1.288   1.147   9.656 -2.9078  0.9173  1.9630
  134SAPE   C3514520   1.146   0.999   9.687 -0.7329  0.4067  0.2956
  134SAPE   H5X14521   1.079   1.061   9.749  0.6551  0.6261  1.6235
  134SAPE   H5Y14522   1.137   0.901   9.738 -0.5970  0.2561  0.0365
  134SAPE   C3614523   1.081   0.978   9.540 -0.0395  0.7988  0.5927
  134SAPE   H6X14524   0.975   0.950   9.552 -0.4162  2.0609  0.3896
  134SAPE   H6Y14525   1.127   0.890   9.492 -1.5287 -0.3273  1.1678
  134SAPE   C3714526   1.093   1.098   9.439 -0.0599  0.5077  0.4560
  134SAPE   H7X14527   1.200   1.120   9.416 -0.1027 -1.9873 -2.8606
  134SAPE   H7Y14528   1.050   1.195   9.474  2.5903  1.6656  0.8095
  134SAPE   C3814529   1.029   1.063   9.305 -0.4409  0.0738 -0.1847
  134SAPE   H8X14530   0.926   1.032   9.336  0.7466 -1.9643  2.0779
  134SAPE   H8Y14531   1.081   0.977   9.257  0.0378  0.3942 -0.2427
  134SAPE   C3914532   1.041   1.178   9.202  0.5194  0.6029 -0.3591
  134SAPE   H9X14533   1.145   1.217   9.195  0.8364 -0.0123  0.7292
  134SAPE   H9Y14534   0.993   1.258   9.261  2.7554  0.3440  1.9994
  134SAPE  C31014535   0.962   1.150   9.067  0.3417 -0.2012  0.5642
  134SAPE  H10X14536   0.865   1.107   9.100  0.5546 -0.8149  0.4023
  134SAPE  H10Y14537   1.018   1.067   9.020 -0.4510 -1.7369  2.2011
  134SAPE  C31114538   0.943   1.277   8.974 -0.2554 -0.0704 -0.6844
  134SAPE  H11X14539   1.031   1.318   8.920 -0.2878  2.3782  0.9805
  134SAPE  H11Y14540   0.901   1.351   9.045 -1.0508 -0.9507 -0.2125
  134SAPE  C31214541   0.841   1.241   8.868 -0.5726  0.1120 -0.2343
  134SAPE  H12X14542   0.743   1.201   8.901  0.1240 -1.9696 -0.5222
  134SAPE  H12Y14543   0.889   1.173   8.795  0.5652  1.7828 -1.1167
  134SAPE  C31314544   0.801   1.353   8.777 -0.6766  0.4017  0.1378
  134SAPE  H13X14545   0.884   1.386   8.710 -1.2549  0.1595 -0.7149
  134SAPE  H13Y14546   0.772   1.437   8.843 -2.3783 -0.1509  0.1342
  134SAPE  C31414547   0.690   1.320   8.677 -0.0759 -0.1585  0.7661
  134SAPE  H14X14548   0.593   1.305   8.730 -0.9088 -1.2773 -0.9861
  134SAPE  H14Y14549   0.727   1.239   8.611  0.5018  0.9443 -0.2962
  134SAPE  C31514550   0.672   1.452   8.590  0.1279 -0.3016 -0.3622
  134SAPE  H15X14551   0.770   1.488   8.554  0.9339 -1.0070  1.0716
  134SAPE  H15Y14552   0.642   1.535   8.657  0.4700  0.0820 -0.6802
  134SAPE  C31614553   0.568   1.436   8.469  0.6217 -0.3885 -0.5110
  134SAPE  H16X14554   0.477   1.403   8.523  0.8616 -1.7174 -0.8825
  134SAPE  H16Y14555   0.606   1.358   8.400  1.0909 -0.1753 -0.4940
  134SAPE  C31714556   0.533   1.561   8.384  0.1053  0.1580 -0.4082
  134SAPE  H17X14557   0.612   1.584   8.308  0.5302  0.6233  0.1632
  134SAPE  H17Y14558   0.533   1.650   8.450  0.7829  0.1774 -0.4251
  134SAPE  C31814559   0.404   1.561   8.304 -0.1417 -0.0475 -0.2290
  134SAPE  H18X14560   0.328   1.537   8.382  2.0133 -1.4347  1.5904
  134SAPE  H18Y14561   0.409   1.487   8.222  0.4652  1.3069 -1.4657
  134SAPE  H18Z14562   0.390   1.660   8.256  2.1032 -0.3397 -1.6074
  135SAPE     N14563   5.998   6.297  11.013  0.2121  0.8101  0.2318
  135SAPE   HN114564   5.989   6.396  10.982 -0.6019 -0.0697 -2.6009
  135SAPE   HN214565   5.909   6.255  11.049  0.4369  0.5339  0.4695
  135SAPE   HN314566   6.068   6.301  11.090  2.3779  2.8064 -1.7084
  135SAPE   C1214567   6.043   6.216  10.892 -0.5378 -0.2159 -0.6306
  135SAPE  H12A14568   5.951   6.192  10.835 -1.6335  1.1170  0.4931
  135SAPE  H12B14569   6.095   6.127  10.935  0.0773 -0.1831 -1.2913
  135SAPE   C1114570   6.138   6.294  10.787 -0.8049 -0.1139  0.5014
  135SAPE  H11A14571   6.077   6.374  10.739 -1.6827 -1.0722 -0.0029
  135SAPE  H11B14572   6.152   6.228  10.699 -2.2350  0.0631  0.1136
  135SAPE     P14573   6.381   6.286  10.824  0.2478 -0.2552  0.1030
  135SAPE   O1314574   6.493   6.338  10.911  0.3182 -0.5567  0.7499
  135SAPE   O1414575   6.371   6.140  10.839  0.2877 -0.0919  0.2568
  135SAPE   O1214576   6.245   6.358  10.851  0.2882  0.0602  0.0303
  135SAPE   O1114577   6.431   6.319  10.681 -0.0055  0.2642  0.5261
  135SAPE    C114578   6.392   6.442  10.619  0.3350  0.7483 -0.4305
  135SAPE    HA14579   6.281   6.450  10.620  0.3305  1.0174  1.3779
  135SAPE    HB14580   6.435   6.527  10.676  0.7335  0.2391  0.0436
  135SAPE    C214581   6.436   6.452  10.474  0.2196 -0.1980 -0.1471
  135SAPE    HS14582   6.546   6.439  10.469 -0.0022 -3.1327  0.9532
  135SAPE   O2114583   6.401   6.581  10.418  0.3208 -0.2469  0.0970
  135SAPE   C2114584   6.488   6.678  10.456  1.3236  0.6269  0.6171
  135SAPE   O2214585   6.583   6.659  10.528  0.0792  0.8584 -0.0468
  135SAPE   C2214586   6.443   6.816  10.399 -0.3354 -0.2159 -0.7344
  135SAPE   H2R14587   6.343   6.806  10.352 -0.3225  0.4815 -0.9278
  135SAPE   H2S14588   6.417   6.863  10.496 -2.5079 -2.7232  0.0198
  135SAPE    C314589   6.361   6.347  10.387  0.2393  0.0652 -0.0810
  135SAPE    HX14590   6.256   6.383  10.381  0.8560  2.5725  2.2454
  135SAPE    HY14591   6.355   6.253  10.447  1.8246  0.4006  0.6552
  135SAPE   O3114592   6.424   6.315  10.260 -0.0299  0.4863  0.2259
  135SAPE   C3114593   6.384   6.387  10.163 -0.0976  0.0805 -0.5046
  135SAPE   O3214594   6.312   6.482  10.175  0.4007 -0.3053 -0.2086
  135SAPE   C3214595   6.436   6.318  10.039 -0.3730 -0.1436 -0.2090
  135SAPE   H2X14596   6.399   6.213  10.045 -4.6143  0.9689 -2.4145
  135SAPE   H2Y14597   6.546   6.325  10.027 -0.3580  0.2907  0.1594
  135SAPE   C2314598   6.551   6.896  10.319 -0.1611 -0.1450  0.0562
  135SAPE   H3R14599   6.632   6.914  10.393 -0.6325  0.1406  0.5049
  135SAPE   H3S14600   6.502   6.991  10.289  0.1206 -0.5680 -1.8979
  135SAPE   C2414601   6.604   6.834  10.186 -0.0856 -0.5070 -0.0660
  135SAPE   H4R14602   6.671   6.748  10.207 -0.0459 -0.4421  0.0736
  135SAPE   H4S14603   6.662   6.914  10.135 -0.9856 -1.8991 -3.5210
  135SAPE   C2514604   6.498   6.793  10.092 -0.2378  0.5738  0.5473
  135SAPE   H5R14605   6.428   6.719  10.132  0.7481  1.2002  3.7800
  135SAPE   C2614606   6.485   6.843   9.966 -0.0382  0.2960 -0.1194
  135SAPE   H6R14607   6.396   6.803   9.916 -1.1463  0.8769  1.3252
  135SAPE   C2714608   6.572   6.937   9.893  0.0411  0.5667 -0.0020
  135SAPE   H7R14609   6.643   6.881   9.828 -1.3892  0.0157 -1.1542
  135SAPE   H7S14610   6.624   7.006   9.963  2.0161  0.5884 -1.4066
  135SAPE   C2814611   6.489   7.020   9.803 -0.0460  0.0531  0.5307
  135SAPE   H8R14612   6.413   7.079   9.856 -3.1674 -1.4852 -1.8678
  135SAPE   C2914613   6.503   7.024   9.670  0.5431 -1.0026 -0.6019
  135SAPE   H9R14614   6.443   7.095   9.612 -0.6249 -1.0285  0.5404
  135SAPE  C21014615   6.587   6.943   9.580 -0.2406 -0.0735  0.3177
  135SAPE  H10R14616   6.682   6.924   9.635 -0.2889  0.2699  0.5227
  135SAPE  H10S14617   6.606   6.996   9.485  0.2147 -0.8735 -0.0408
  135SAPE  C21114618   6.522   6.813   9.541 -0.5973 -0.3689  0.0332
  135SAPE  H11R14619   6.515   6.737   9.620  1.3907 -1.1032 -0.4400
  135SAPE  C21214620   6.459   6.789   9.420 -0.4291  0.0140  0.0207
  135SAPE  H12R14621   6.411   6.692   9.406 -1.0571  0.6510 -2.7740
  135SAPE  C21314622   6.447   6.876   9.302 -0.2811 -0.4376  0.3323
  135SAPE  H13R14623   6.532   6.948   9.298 -1.0495  0.4566 -0.8369
  135SAPE  H13S14624   6.358   6.939   9.323 -0.0710 -0.6915  2.0969
  135SAPE  C21414625   6.452   6.796   9.174 -0.0514  0.1188 -0.2886
  135SAPE  H14R14626   6.357   6.789   9.120  0.4661  1.9672 -1.5125
  135SAPE  C21514627   6.562   6.747   9.117 -0.2918  0.8504 -0.7096
  135SAPE  H15R14628   6.562   6.704   9.016  0.8315 -0.7762 -0.0505
  135SAPE  C21614629   6.698   6.763   9.176 -0.8646  0.2655 -0.6472
  135SAPE  H16R14630   6.701   6.841   9.255  3.6197  0.8676 -1.1690
  135SAPE  H16S14631   6.757   6.818   9.099  1.5023  0.0534  0.9037
  135SAPE  C21714632   6.769   6.628   9.213  0.1333 -0.4988 -0.2450
  135SAPE  H17R14633   6.780   6.574   9.117 -1.5916  0.8128 -1.2349
  135SAPE  H17S14634   6.707   6.570   9.285 -1.2186  0.3228 -0.7155
  135SAPE  C21814635   6.899   6.644   9.286  0.1161  0.5638 -0.1478
  135SAPE  H18R14636   6.889   6.719   9.367  1.6233  0.8788 -0.2146
  135SAPE  H18S14637   6.954   6.695   9.204 -2.7066 -1.1202 -3.3073
  135SAPE  C21914638   6.984   6.526   9.320  0.8765 -0.2304 -0.1476
  135SAPE  H19R14639   6.946   6.432   9.275 -1.7229  0.1245  1.1181
  135SAPE  H19S14640   6.965   6.510   9.428 -0.0137 -0.9933 -0.4043
  135SAPE  C22014641   7.128   6.546   9.283  0.6958 -0.0617 -0.0057
  135SAPE  H20R14642   7.143   6.539   9.173  0.2899  0.1321 -0.0752
  135SAPE  H20S14643   7.207   6.482   9.328  1.2559 -1.7559 -3.0491
  135SAPE  H20T14644   7.163   6.645   9.319 -1.8675  0.0947  2.3571
  135SAPE   C3314645   6.372   6.386   9.910 -0.3004  0.1682  0.4594
  135SAPE   H3X14646   6.412   6.490   9.907 -0.6894  0.2996 -1.4152
  135SAPE   H3Y14647   6.263   6.395   9.925 -0.9803 -1.0855 -2.9327
  135SAPE   C3414648   6.407   6.299   9.785  0.2018  0.9717 -0.1653
  135SAPE   H4X14649   6.346   6.207   9.778  1.6549 -0.0240 -0.1626
  135SAPE   H4Y14650   6.514   6.272   9.799 -0.0388  0.8021  1.5718
  135SAPE   C3514651   6.413   6.375   9.654  0.2352 -1.1909  0.4202
  135SAPE   H5X14652   6.490   6.455   9.664  0.9602 -2.0638  2.1852
  135SAPE   H5Y14653   6.309   6.406   9.631  0.7428 -0.9725 -1.8881
  135SAPE   C3614654   6.457   6.288   9.539 -0.5598 -0.8035 -0.3453
  135SAPE   H6X14655   6.387   6.201   9.530 -0.5741 -1.0612  1.7124
  135SAPE   H6Y14656   6.561   6.251   9.554  0.3742  1.2742 -1.3694
  135SAPE   C3714657   6.449   6.351   9.403  0.8171  0.2109  0.1142
  135SAPE   H7X14658   6.535   6.416   9.377 -0.7742  1.9496 -1.0563
  135SAPE   H7Y14659   6.352   6.406   9.402  0.4733 -0.3833 -0.2019
  135SAPE   C3814660   6.443   6.242   9.295  0.2411  0.0082  0.5604
  135SAPE   H8X14661   6.348   6.183   9.295 -0.9673  1.7655 -2.1058
  135SAPE   H8Y14662   6.521   6.171   9.328  0.6892  0.4186  0.3850
  135SAPE   C3914663   6.468   6.287   9.150  0.3708 -0.6854  0.2858
  135SAPE   H9X14664   6.467   6.202   9.079 -2.2892  1.1538 -2.0820
  135SAPE   H9Y14665   6.563   6.345   9.150 -0.9067  1.5064 -0.4816
  135SAPE  C31014666   6.361   6.381   9.101  0.4129  0.1306  0.4476
  135SAPE  H10X14667   6.351   6.477   9.156 -0.2578  0.3199  0.0003
  135SAPE  H10Y14668   6.265   6.338   9.136  0.3245  0.6996  0.9228
  135SAPE  C31114669   6.369   6.398   8.948  0.3893 -0.1656  0.2647
  135SAPE  H11X14670   6.335   6.300   8.909  2.1935 -0.1789 -1.4046
  135SAPE  H11Y14671   6.472   6.412   8.908  0.1569 -1.0036 -0.6818
  135SAPE  C31214672   6.275   6.501   8.887  0.4048  0.2322  0.2547
  135SAPE  H12X14673   6.292   6.587   8.954  0.8563  0.6180 -0.3406
  135SAPE  H12Y14674   6.173   6.459   8.903  0.2623  0.3679 -0.2603
  135SAPE  C31314675   6.312   6.550   8.743  0.0218 -0.5269  0.6786
  135SAPE  H13X14676   6.410   6.601   8.751 -1.1638  2.0214 -0.1728
  135SAPE  H13Y14677   6.237   6.628   8.719 -0.3439 -1.0417  0.1233
  135SAPE  C31414678   6.312   6.445   8.627 -0.3099  0.4087  0.7561
  135SAPE  H14X14679   6.384   6.362   8.647 -0.5253  0.0879  0.2181
  135SAPE  H14Y14680   6.335   6.494   8.531  0.4942  1.7727  1.6093
  135SAPE  C31514681   6.177   6.383   8.613  0.7954 -0.9842  0.4026
  135SAPE  H15X14682   6.110   6.459   8.569  1.3184 -1.3590 -1.0709
  135SAPE  H15Y14683   6.128   6.351   8.708 -0.5770 -0.7127 -0.1815
  135SAPE  C31614684   6.175   6.257   8.527 -0.2297 -0.2152  0.3239
  135SAPE  H16X14685   6.256   6.288   8.457 -1.4405  1.5661 -0.3527
  135SAPE  H16Y14686   6.079   6.237   8.475  0.8560 -1.2591 -1.3803
  135SAPE  C31714687   6.209   6.128   8.606  0.1868  0.6633  0.5655
  135SAPE  H17X14688   6.125   6.089   8.668  0.8562  0.2319  1.2156
  135SAPE  H17Y14689   6.290   6.148   8.679  0.1498 -0.7284  1.0189
  135SAPE  C31814690   6.254   6.001   8.531  0.3575  0.3355  0.1969
  135SAPE  H18X14691   6.175   5.976   8.457  1.0414  1.9136 -1.1123
  135SAPE  H18Y14692   6.278   5.918   8.602  1.1694  0.7641  0.4398
  135SAPE  H18Z14693   6.346   6.016   8.471  0.4056 -0.4866  0.0423
  136SAPE     N14694   4.332   1.250  10.918 -0.0278  0.4019  0.4087
  136SAPE   HN114695   4.325   1.352  10.898  0.7231  0.9776  2.6894
  136SAPE   HN214696   4.416   1.241  10.979  0.5675 -0.4199 -0.5110
  136SAPE   HN314697   4.340   1.201  10.827 -1.9572 -0.3314  0.5758
  136SAPE   C1214698   4.213   1.191  10.980 -0.0522  0.1119  0.6331
  136SAPE  H12A14699   4.194   1.239  11.078  0.3682  0.1637  0.6920
  136SAPE  H12B14700   4.231   1.082  10.988  0.4020  0.0394 -1.0009
  136SAPE   C1114701   4.094   1.217  10.887 -0.1323  0.1207 -0.1423
  136SAPE  H11A14702   4.089   1.326  10.868  0.2294  0.2169  0.2842
  136SAPE  H11B14703   3.998   1.190  10.936 -1.4277 -2.6970 -3.8086
  136SAPE     P14704   4.019   1.041  10.708 -0.0680 -0.0830  0.0646
  136SAPE   O1314705   4.043   0.913  10.781  0.0173 -0.4425  0.0170
  136SAPE   O1414706   3.883   1.099  10.704 -0.1083 -0.1741 -0.5176
  136SAPE   O1214707   4.110   1.148  10.769  0.5675 -0.3037 -0.0624
  136SAPE   O1114708   4.079   1.030  10.560 -0.3599  0.0401 -0.0185
  136SAPE    C114709   4.209   0.980  10.534 -0.2141  0.2272 -0.2928
  136SAPE    HA14710   4.286   1.010  10.609  1.0708  0.8643 -1.8299
  136SAPE    HB14711   4.199   0.869  10.534  0.5261  0.1170  1.5405
  136SAPE    C214712   4.272   1.035  10.401  0.1558 -0.8384 -0.0178
  136SAPE    HS14713   4.382   1.038  10.415  0.0025  0.9728  1.1094
  136SAPE   O2114714   4.211   1.164  10.362  0.5012  0.1962 -0.7181
  136SAPE   C2114715   4.249   1.264  10.438 -0.1821 -0.8154 -0.3320
  136SAPE   O2214716   4.322   1.252  10.538 -0.1779  0.1577  0.3932
  136SAPE   C2214717   4.214   1.400  10.393 -0.1742 -0.3947  0.0062
  136SAPE   H2R14718   4.158   1.379  10.299  0.9675 -1.8129 -0.3953
  136SAPE   H2S14719   4.138   1.433  10.468 -0.1260 -2.7549  1.1968
  136SAPE    C314720   4.241   0.939  10.291 -0.7881  0.0078 -0.3534
  136SAPE    HX14721   4.133   0.919  10.278 -0.2993 -3.1170 -0.5634
  136SAPE    HY14722   4.283   0.838  10.313  1.2646  1.1097  1.1313
  136SAPE   O3114723   4.290   0.984  10.158 -0.1991  0.0289 -0.4749
  136SAPE   C3114724   4.424   0.982  10.149  0.1478 -0.3958  0.0599
  136SAPE   O3214725   4.501   0.928  10.230 -0.4329  0.0767 -0.1187
  136SAPE   C3214726   4.465   1.051  10.019  0.0220  0.1463  0.7343
  136SAPE   H2X14727   4.568   1.086  10.038  0.5397 -0.6975 -0.4034
  136SAPE   H2Y14728   4.400   1.141  10.010  0.1826  0.2666  0.7870
  136SAPE   C2314729   4.342   1.488  10.375 -0.1018 -0.0905  0.1756
  136SAPE   H3R14730   4.400   1.477  10.469  0.2628 -3.0357 -0.3062
  136SAPE   H3S14731   4.303   1.592  10.365  0.8629  0.3756  1.0632
  136SAPE   C2414732   4.406   1.441  10.253  0.6416 -0.1286  0.9692
  136SAPE   H4R14733   4.332   1.432  10.170  3.3233 -0.1605 -1.5918
  136SAPE   H4S14734   4.446   1.338  10.266  0.9378 -0.2965 -0.9289
  136SAPE   C2514735   4.523   1.524  10.216  0.3901  0.6304  0.7983
  136SAPE   H5R14736   4.590   1.544  10.301  0.5365  0.8015  0.6451
  136SAPE   C2614737   4.549   1.569  10.094 -0.3314 -0.2347  0.3971
  136SAPE   H6R14738   4.639   1.630  10.079  1.1584 -2.7564 -1.8554
  136SAPE   C2714739   4.470   1.555   9.967  0.0523 -0.6975  0.1795
  136SAPE   H7R14740   4.448   1.653   9.920 -2.3574 -1.5258 -0.5942
  136SAPE   H7S14741   4.372   1.512   9.998  0.8652 -2.6873  0.1065
  136SAPE   C2814742   4.536   1.468   9.868 -0.1035  0.1979  0.3066
  136SAPE   H8R14743   4.579   1.374   9.905  4.0758  2.5894  2.2851
  136SAPE   C2914744   4.520   1.485   9.741  0.0997 -1.1031  0.0387
  136SAPE   H9R14745   4.559   1.416   9.664  1.7483  1.8581 -1.9955
  136SAPE  C21014746   4.458   1.604   9.670  0.0455 -0.5192 -0.0912
  136SAPE  H10R14747   4.515   1.692   9.705  1.2328 -1.0085 -0.7196
  136SAPE  H10S14748   4.357   1.620   9.713  0.8012  0.5850  1.3451
  136SAPE  C21114749   4.462   1.602   9.520 -0.1295 -0.1429  0.0635
  136SAPE  H11R14750   4.450   1.502   9.474 -1.6941 -0.5153  1.1711
  136SAPE  C21214751   4.458   1.703   9.435 -0.4954  0.2914 -0.9666
  136SAPE  H12R14752   4.459   1.669   9.330 -3.2840  1.7876 -1.5855
  136SAPE  C21314753   4.466   1.855   9.470 -0.0275  0.4457 -0.7990
  136SAPE  H13R14754   4.562   1.886   9.422  0.0538  0.8691 -0.3652
  136SAPE  H13S14755   4.471   1.871   9.580  0.5479  1.5485 -0.9706
  136SAPE  C21414756   4.350   1.921   9.403  0.5068  0.1738 -0.1534
  136SAPE  H14R14757   4.268   1.941   9.473 -0.4001 -0.2780 -1.0642
  136SAPE  C21514758   4.328   1.932   9.269  0.5440  0.2733  0.1235
  136SAPE  H15R14759   4.235   1.982   9.239  1.3000  1.3452 -0.5168
  136SAPE  C21614760   4.420   1.911   9.152  0.1560  0.3623  0.0974
  136SAPE  H16R14761   4.378   1.819   9.106  0.5913  0.7800 -1.1687
  136SAPE  H16S14762   4.524   1.897   9.187 -0.4077  0.2430  1.8503
  136SAPE  C21714763   4.409   2.033   9.054  0.3058  0.5476  0.1562
  136SAPE  H17R14764   4.462   2.122   9.094 -0.3027  1.2327 -0.5360
  136SAPE  H17S14765   4.305   2.066   9.031  0.5202  1.1326  0.0169
  136SAPE  C21814766   4.475   1.989   8.919  0.3015 -0.4160 -0.2110
  136SAPE  H18R14767   4.426   1.895   8.885 -0.9628 -0.0226  0.4573
  136SAPE  H18S14768   4.583   1.968   8.936  0.4654  0.2536 -0.4055
  136SAPE  C21914769   4.455   2.099   8.814 -0.2230 -0.4030 -0.7256
  136SAPE  H19R14770   4.515   2.183   8.854  0.3240 -0.8675 -0.5696
  136SAPE  H19S14771   4.349   2.121   8.789  0.4420  3.8325 -0.6620
  136SAPE  C22014772   4.520   2.055   8.687 -0.1363 -0.0549 -0.1944
  136SAPE  H20R14773   4.502   2.132   8.608  1.3489  0.7213  0.1803
  136SAPE  H20S14774   4.466   1.964   8.653 -0.4158  0.2065 -0.4656
  136SAPE  H20T14775   4.627   2.029   8.699  0.8166  2.7148 -1.6253
  136SAPE   C3314776   4.468   0.973   9.889 -0.3628  0.1954 -0.0317
  136SAPE   H3X14777   4.380   0.906   9.874  2.0942 -3.2098 -0.5916
  136SAPE   H3Y14778   4.557   0.905   9.890 -0.9046 -0.5326  0.0960
  136SAPE   C3414779   4.476   1.072   9.777 -0.8147 -0.9706 -0.1031
  136SAPE   H4X14780   4.570   1.131   9.779 -1.0149 -0.6590  0.2847
  136SAPE   H4Y14781   4.395   1.148   9.777  0.9707  1.0956  1.8379
  136SAPE   C3514782   4.468   1.008   9.646  0.5232  0.2224  0.1209
  136SAPE   H5X14783   4.371   0.957   9.632  1.3334 -1.1583 -0.6834
  136SAPE   H5Y14784   4.542   0.926   9.638 -0.9259 -0.9356 -2.8550
  136SAPE   C3614785   4.492   1.104   9.530  0.1824  0.4395  0.0176
  136SAPE   H6X14786   4.600   1.126   9.517  0.2675  0.1970  0.2995
  136SAPE   H6Y14787   4.447   1.204   9.548 -2.1955 -0.8381  1.8391
  136SAPE   C3714788   4.443   1.024   9.404 -0.4504 -0.0253  0.1810
  136SAPE   H7X14789   4.332   1.013   9.399 -0.3175 -0.9604 -3.8993
  136SAPE   H7Y14790   4.500   0.929   9.407 -0.2289  0.1234  1.8780
  136SAPE   C3814791   4.456   1.088   9.258 -0.3027  0.2257  0.2451
  136SAPE   H8X14792   4.358   1.138   9.240 -0.8831 -0.2388  1.8804
  136SAPE   H8Y14793   4.476   1.004   9.189  1.8707 -0.9666  2.1721
  136SAPE   C3914794   4.568   1.187   9.231 -0.5310 -0.2645 -0.3640
  136SAPE   H9X14795   4.662   1.130   9.247  0.6227  0.3557 -4.0717
  136SAPE   H9Y14796   4.568   1.263   9.312  1.3160 -1.1095  0.4975
  136SAPE  C31014797   4.580   1.242   9.089 -0.2951  0.8367 -0.0058
  136SAPE  H10X14798   4.665   1.313   9.102 -0.1738  0.2966  3.0425
  136SAPE  H10Y14799   4.491   1.302   9.061 -0.9993 -0.6525 -1.0467
  136SAPE  C31114800   4.620   1.139   8.984 -0.2340 -0.2197  0.3561
  136SAPE  H11X14801   4.537   1.065   8.976  0.4493 -1.0319  0.6072
  136SAPE  H11Y14802   4.710   1.084   9.017  0.0660  0.1870  0.2200
  136SAPE  C31214803   4.656   1.196   8.842 -0.0386 -0.7461 -0.1619
  136SAPE  H12X14804   4.571   1.257   8.806  1.2567  2.4401  1.7238
  136SAPE  H12Y14805   4.680   1.116   8.769 -1.6009 -0.9348 -0.4958
  136SAPE  C31314806   4.783   1.286   8.846  0.3045  0.0367  0.0634
  136SAPE  H13X14807   4.866   1.231   8.895  1.3289  1.8213  0.4604
  136SAPE  H13Y14808   4.765   1.378   8.906 -0.5681  0.6492 -1.0972
  136SAPE  C31414809   4.818   1.318   8.695 -0.0078  0.3814  0.7841
  136SAPE  H14X14810   4.727   1.356   8.644 -1.0353 -3.8047 -0.9328
  136SAPE  H14Y14811   4.834   1.219   8.649  0.7897  0.5079  0.7821
  136SAPE  C31514812   4.927   1.410   8.671  0.1978 -0.2678  0.4055
  136SAPE  H15X14813   4.951   1.412   8.562  0.2854 -3.0935  0.3134
  136SAPE  H15Y14814   5.017   1.377   8.727  1.1515 -0.0808 -0.9760
  136SAPE  C31614815   4.877   1.552   8.699 -0.3150 -0.5025 -0.2488
  136SAPE  H16X14816   4.845   1.554   8.805 -0.5652 -1.1188 -0.3090
  136SAPE  H16Y14817   4.793   1.580   8.632 -2.4393  0.0188  2.4435
  136SAPE  C31714818   4.996   1.649   8.683  0.7574  0.8705  0.0698
  136SAPE  H17X14819   5.030   1.643   8.577  3.1083 -0.4654  0.8326
  136SAPE  H17Y14820   5.076   1.614   8.752  1.1637  2.4157  0.4225
  136SAPE  C31814821   4.960   1.788   8.722 -0.7865  0.0599  0.3522
  136SAPE  H18X14822   4.869   1.816   8.666 -0.5908 -1.1459 -0.6128
  136SAPE  H18Y14823   5.044   1.857   8.697 -0.2679 -0.2911  1.0820
  136SAPE  H18Z14824   4.930   1.796   8.829 -0.3935  3.8785  0.3259
  137SAPE     N14825   1.547   1.965  10.608  0.6448 -0.4373 -0.6212
  137SAPE   HN114826   1.543   2.010  10.702  0.5462 -3.3581  0.8917
  137SAPE   HN214827   1.550   2.040  10.536  1.7675  0.4722  0.3209
  137SAPE   HN314828   1.459   1.910  10.604  1.0440 -1.4391  2.2642
  137SAPE   C1214829   1.656   1.867  10.593 -0.9896  0.2969 -0.9285
  137SAPE  H12A14830   1.632   1.767  10.636  2.0960 -0.6190 -1.0670
  137SAPE  H12B14831   1.747   1.897  10.650 -1.6923  2.5614 -0.9081
  137SAPE   C1114832   1.702   1.836  10.446 -0.1155  0.0370  0.2289
  137SAPE  H11A14833   1.626   1.774  10.394 -0.4643 -0.2306  1.0363
  137SAPE  H11B14834   1.786   1.764  10.449  0.3211  0.4235 -1.6672
  137SAPE     P14835   1.660   2.043  10.292 -0.1664 -0.2001 -0.3680
  137SAPE   O1314836   1.598   1.948  10.199 -0.6252 -0.0900  0.3542
  137SAPE   O1414837   1.575   2.125  10.381 -0.6596  0.0636 -0.1876
  137SAPE   O1214838   1.752   1.959  10.386  0.0852  0.4701 -0.1002
  137SAPE   O1114839   1.768   2.133  10.215 -0.0066  0.1459  0.2376
  137SAPE    C114840   1.871   2.062  10.131  0.5350  0.1723 -0.3722
  137SAPE    HA14841   1.882   1.955  10.156 -1.2619  0.0071 -0.1819
  137SAPE    HB14842   1.844   2.069  10.023  0.4795  0.3407 -0.3463
  137SAPE    C214843   2.013   2.132  10.154 -0.2280  0.1411  0.0194
  137SAPE    HS14844   2.032   2.136  10.264 -1.3428  1.0067  0.1966
  137SAPE   O2114845   2.011   2.253  10.089  0.2515 -0.2624  0.7123
  137SAPE   C2114846   2.075   2.351  10.139 -0.5179 -0.2863 -0.2456
  137SAPE   O2214847   2.158   2.340  10.229 -0.1334  0.2939  0.0401
  137SAPE   C2214848   2.025   2.475  10.067  0.0216  0.1224  0.5264
  137SAPE   H2R14849   2.071   2.460   9.966 -0.6512 -2.3636  0.5143
  137SAPE   H2S14850   1.917   2.454  10.050  0.4317  0.3597 -3.3681
  137SAPE    C314851   2.113   2.038  10.087 -0.9509 -0.0739 -0.7930
  137SAPE    HX14852   2.100   1.944  10.145 -2.9162 -0.8351 -2.3784
  137SAPE    HY14853   2.217   2.077  10.101 -1.3203  0.8678 -0.5718
  137SAPE   O3114854   2.085   2.015   9.948 -0.4551 -0.6793  0.9839
  137SAPE   C3114855   2.157   1.903   9.903 -0.7320  0.2351 -0.2902
  137SAPE   O3214856   2.248   1.854   9.966 -0.3413 -0.0528 -0.0343
  137SAPE   C3214857   2.094   1.850   9.782  0.1899 -0.0781 -0.3551
  137SAPE   H2X14858   2.039   1.938   9.742  0.1034  0.7180  1.4371
  137SAPE   H2Y14859   2.026   1.767   9.812  2.1806 -1.4439  0.5821
  137SAPE   C2314860   2.058   2.604  10.143  0.2003 -0.8881 -0.1261
  137SAPE   H3R14861   2.053   2.591  10.253  3.5344 -0.3111  0.1993
  137SAPE   H3S14862   1.976   2.674  10.118  0.5497 -1.0304 -1.7906
  137SAPE   C2414863   2.186   2.679  10.111 -0.9638  0.8805  0.1362
  137SAPE   H4R14864   2.274   2.628  10.156 -1.4844 -0.2068 -0.0566
  137SAPE   H4S14865   2.178   2.786  10.143 -1.2589  1.6798 -2.3817
  137SAPE   C2514866   2.206   2.698   9.965  0.6434 -0.7676  0.1542
  137SAPE   H5R14867   2.165   2.794   9.929  0.8234 -0.8143 -0.1788
  137SAPE   C2614868   2.281   2.633   9.881 -1.2617  0.1547  0.3153
  137SAPE   H6R14869   2.279   2.661   9.775  0.8912 -0.5034  0.0464
  137SAPE   C2714870   2.368   2.514   9.917  0.3339  0.5757 -0.5611
  137SAPE   H7R14871   2.359   2.492  10.025 -2.4090 -0.2749 -0.8918
  137SAPE   H7S14872   2.474   2.543   9.902  1.0268 -2.0890 -1.4409
  137SAPE   C2814873   2.334   2.399   9.825 -0.0100  0.0040  0.0097
  137SAPE   H8R14874   2.271   2.325   9.875  0.6961  0.5461  1.7972
  137SAPE   C2914875   2.377   2.371   9.704  0.5940 -0.4979 -0.0643
  137SAPE   H9R14876   2.324   2.288   9.655 -1.1511 -0.6293  1.9152
  137SAPE  C21014877   2.491   2.436   9.623 -0.1982 -1.0069 -0.1709
  137SAPE  H10R14878   2.575   2.373   9.588  1.2501 -0.2395  1.7057
  137SAPE  H10S14879   2.546   2.514   9.681 -2.1695  0.3561 -0.0364
  137SAPE  C21114880   2.422   2.511   9.514  0.4786 -0.0728  0.6385
  137SAPE  H11R14881   2.402   2.616   9.540  0.4370  0.4194 -1.2740
  137SAPE  C21214882   2.410   2.470   9.384  0.2975 -0.5893 -0.3331
  137SAPE  H12R14883   2.346   2.525   9.313 -2.2589 -2.6884  0.1606
  137SAPE  C21314884   2.461   2.347   9.322 -0.0964  0.1357 -0.3073
  137SAPE  H13R14885   2.446   2.257   9.386  2.5075  0.5262  0.9476
  137SAPE  H13S14886   2.571   2.348   9.334 -0.1669 -0.9586  0.5719
  137SAPE  C21414887   2.419   2.314   9.185  0.1063  0.1863  0.3054
  137SAPE  H14R14888   2.349   2.230   9.174 -1.2529  1.4030 -0.6854
  137SAPE  C21514889   2.476   2.358   9.072  0.6989  0.7049 -0.6078
  137SAPE  H15R14890   2.444   2.314   8.976 -0.5745 -3.1687  1.4028
  137SAPE  C21614891   2.583   2.461   9.068 -0.7734  0.9718 -0.5754
  137SAPE  H16R14892   2.626   2.478   9.169  0.8482  0.7205 -1.1823
  137SAPE  H16S14893   2.546   2.564   9.052  0.5963  1.9659  1.9278
  137SAPE  C21714894   2.694   2.422   8.968  0.2874 -0.1687  0.1665
  137SAPE  H17R14895   2.729   2.319   8.990  2.0767 -0.1875 -2.3905
  137SAPE  H17S14896   2.787   2.481   8.978  2.6060 -3.4337 -0.6650
  137SAPE  C21814897   2.635   2.431   8.824  0.4043 -0.7822 -1.0779
  137SAPE  H18R14898   2.583   2.528   8.808 -1.7298 -1.1504  2.5281
  137SAPE  H18S14899   2.547   2.366   8.807  0.9277 -1.1733 -2.4143
  137SAPE  C21914900   2.754   2.408   8.719  0.3734  0.3557 -0.0892
  137SAPE  H19R14901   2.795   2.305   8.722 -1.1959 -0.4763 -2.9828
  137SAPE  H19S14902   2.843   2.474   8.719  0.6231  0.0326 -0.9494
  137SAPE  C22014903   2.710   2.442   8.576  0.3620 -0.1511  0.0041
  137SAPE  H20R14904   2.640   2.368   8.532  2.4422 -1.9662 -0.4742
  137SAPE  H20S14905   2.796   2.440   8.505 -0.0506  4.4791 -0.9374
  137SAPE  H20T14906   2.665   2.542   8.563 -2.4915 -1.1783  1.0949
  137SAPE   C3314907   2.180   1.779   9.669  0.6958 -0.3795  0.7428
  137SAPE   H3X14908   2.253   1.703   9.702  2.3039  0.3863 -0.8642
  137SAPE   H3Y14909   2.242   1.860   9.625  2.2394 -0.9379  1.8394
  137SAPE   C3414910   2.092   1.721   9.557  0.9848 -0.3348 -0.5705
  137SAPE   H4X14911   2.031   1.809   9.527 -0.8358 -0.6881  1.7778
  137SAPE   H4Y14912   2.020   1.648   9.599 -1.0057  1.5092 -0.6234
  137SAPE   C3514913   2.181   1.659   9.450 -0.2863 -0.3492  0.8012
  137SAPE   H5X14914   2.231   1.566   9.485  1.6797  0.8616  1.3759
  137SAPE   H5Y14915   2.258   1.734   9.424 -1.9008  1.0965  0.0056
  137SAPE   C3614916   2.113   1.628   9.322  0.1741  0.2249 -0.5190
  137SAPE   H6X14917   2.066   1.719   9.280  2.0051  1.3005 -0.3459
  137SAPE   H6Y14918   2.035   1.550   9.334  0.9016 -0.0771  3.8239
  137SAPE   C3714919   2.215   1.579   9.215  0.0312 -0.5641 -0.8125
  137SAPE   H7X14920   2.295   1.517   9.260  0.1603  0.7483  0.8835
  137SAPE   H7Y14921   2.260   1.678   9.191 -2.5498  1.0728  0.5499
  137SAPE   C3814922   2.162   1.509   9.087 -0.5490 -0.8108  0.1033
  137SAPE   H8X14923   2.129   1.413   9.131  0.7679  0.5283  4.4563
  137SAPE   H8Y14924   2.240   1.487   9.011  1.4476  1.3695  1.3956
  137SAPE   C3914925   2.057   1.602   9.021  0.5113 -0.4708 -0.2525
  137SAPE   H9X14926   2.100   1.700   8.992  1.0644 -1.0153 -1.3333
  137SAPE   H9Y14927   1.961   1.615   9.077 -0.1530 -2.1450 -0.9300
  137SAPE  C31014928   2.017   1.536   8.891  0.7521  0.1481  1.1822
  137SAPE  H10X14929   1.940   1.603   8.847  0.6387  0.0401  1.2176
  137SAPE  H10Y14930   1.949   1.451   8.910 -0.1691  0.6103  0.0896
  137SAPE  C31114931   2.132   1.507   8.792  0.3863 -0.1540 -0.6396
  137SAPE  H11X14932   2.198   1.420   8.812  3.6502  1.6585 -2.6060
  137SAPE  H11Y14933   2.206   1.588   8.813  1.7365 -0.8760 -2.3502
  137SAPE  C31214934   2.083   1.510   8.644  0.7155  0.0583 -0.1868
  137SAPE  H12X14935   2.172   1.530   8.582 -0.2895 -0.1928 -1.7530
  137SAPE  H12Y14936   2.017   1.598   8.633  1.8755  0.6972 -2.8458
  137SAPE  C31314937   2.021   1.373   8.596  0.9013  0.3868  0.0175
  137SAPE  H13X14938   2.051   1.289   8.662 -1.2713 -1.4769 -1.2455
  137SAPE  H13Y14939   2.044   1.352   8.489  0.6363 -0.5211  0.1387
  137SAPE  C31414940   1.864   1.379   8.600  0.7507  0.2731  0.4258
  137SAPE  H14X14941   1.844   1.403   8.706 -1.6476  0.2740  0.0414
  137SAPE  H14Y14942   1.824   1.275   8.589  0.7639  0.1708  1.3406
  137SAPE  C31514943   1.796   1.484   8.510 -0.3440  0.2727  0.1633
  137SAPE  H15X14944   1.785   1.449   8.405 -1.2287  0.7686  0.0710
  137SAPE  H15Y14945   1.859   1.575   8.522  0.7481 -0.6175  1.2989
  137SAPE  C31614946   1.651   1.511   8.559 -0.0519 -0.1769 -0.2868
  137SAPE  H16X14947   1.601   1.413   8.572 -0.2972 -0.0206 -0.0344
  137SAPE  H16Y14948   1.600   1.575   8.483 -1.7223 -1.8430 -0.6543
  137SAPE  C31714949   1.630   1.579   8.693  0.3029 -0.5092 -1.4766
  137SAPE  H17X14950   1.663   1.517   8.779  3.9162  2.2320 -0.6385
  137SAPE  H17Y14951   1.520   1.591   8.706  0.3675 -2.6174  2.4903
  137SAPE  C31814952   1.698   1.715   8.714  0.2271  0.0447  1.2268
  137SAPE  H18X14953   1.675   1.748   8.818 -1.1474 -1.8852  1.5978
  137SAPE  H18Y14954   1.662   1.773   8.627 -0.1408 -2.4629 -0.4057
  137SAPE  H18Z14955   1.808   1.702   8.707  0.1761 -0.4402  1.2913
  138SAPE     N14956   5.431   3.354  10.919  0.8644  0.0778 -0.0428
  138SAPE   HN114957   5.356   3.356  10.991 -0.2674  0.4081 -1.1979
  138SAPE   HN214958   5.497   3.433  10.938  0.8399 -0.4707  2.8168
  138SAPE   HN314959   5.390   3.371  10.825  2.8089  1.6552 -0.6794
  138SAPE   C1214960   5.506   3.222  10.914  0.9367 -0.3222 -0.2025
  138SAPE  H12A14961   5.570   3.226  11.005 -1.1098  2.4837  1.2897
  138SAPE  H12B14962   5.570   3.224  10.824  0.4871 -1.9091 -0.5834
  138SAPE   C1114963   5.412   3.099  10.896  0.2984 -0.2287  0.1298
  138SAPE  H11A14964   5.359   3.104  10.994 -2.2737  0.4622 -1.2123
  138SAPE  H11B14965   5.459   3.000  10.877 -0.3100 -0.0722 -2.5655
  138SAPE     P14966   5.169   3.093  10.786 -0.1927  0.0501 -0.8164
  138SAPE   O1314967   5.163   2.964  10.861  0.2968  0.0203 -0.3013
  138SAPE   O1414968   5.083   3.195  10.846 -0.1882  0.1999 -0.1264
  138SAPE   O1214969   5.323   3.129  10.789 -0.5301  0.5578  0.2203
  138SAPE   O1114970   5.142   3.071  10.632  0.2148 -1.0154  0.2476
  138SAPE    C114971   5.192   3.165  10.537  0.3070 -0.1658 -0.3776
  138SAPE    HA14972   5.213   3.265  10.581 -1.6816  0.8755 -1.6517
  138SAPE    HB14973   5.282   3.119  10.492  0.4230 -2.9637  2.3551
  138SAPE    C214974   5.089   3.187  10.428  0.0861  0.6807  0.2723
  138SAPE    HS14975   4.992   3.227  10.463 -1.7964 -0.7478 -2.8276
  138SAPE   O2114976   5.087   3.069  10.348 -0.1160  0.2196 -0.1536
  138SAPE   C2114977   4.962   3.011  10.333  0.7827 -0.8155 -0.2547
  138SAPE   O2214978   4.863   3.057  10.389  0.4400 -0.0684  0.1148
  138SAPE   C2214979   4.958   2.888  10.239  0.1014 -0.8335 -0.2490
  138SAPE   H2R14980   4.904   2.803  10.285  1.6939 -2.7417 -1.6899
  138SAPE   H2S14981   4.914   2.938  10.149 -0.3406 -2.2623 -0.8493
  138SAPE    C314982   5.128   3.296  10.328 -0.3652 -0.7767  0.5472
  138SAPE    HX14983   5.239   3.297  10.321 -0.3103  2.6979 -0.1119
  138SAPE    HY14984   5.093   3.390  10.375 -3.0929 -1.1835 -0.4621
  138SAPE   O3114985   5.064   3.279  10.204  0.0076 -0.3460 -0.0194
  138SAPE   C3114986   5.144   3.234  10.105 -0.2281  0.0115  0.2038
  138SAPE   O3214987   5.261   3.207  10.107 -0.4043 -0.5592 -0.2196
  138SAPE   C3214988   5.070   3.246   9.966 -0.0998 -0.0667 -0.0170
  138SAPE   H2X14989   4.960   3.241   9.981 -0.1151  0.3148  0.0125
  138SAPE   H2Y14990   5.096   3.152   9.911 -0.9573 -0.5699  0.4290
  138SAPE   C2314991   5.091   2.820  10.207  0.0882 -0.2782  0.0224
  138SAPE   H3R14992   5.123   2.748  10.285 -0.9037 -1.1503 -0.3513
  138SAPE   H3S14993   5.177   2.888  10.189 -0.3784  0.2353 -0.3098
  138SAPE   C2414994   5.078   2.744  10.077 -1.0016  0.0182  0.6924
  138SAPE   H4R14995   5.068   2.811   9.989 -1.1313  0.5688  1.1206
  138SAPE   H4S14996   4.994   2.671  10.077 -0.4699 -0.6483  2.6603
  138SAPE   C2514997   5.192   2.647  10.057 -0.5292 -0.7416 -0.2515
  138SAPE   H5R14998   5.184   2.557  10.119 -1.8083 -0.0782  0.5788
  138SAPE   C2614999   5.303   2.673   9.983 -0.0853  0.6853  1.0424
  138SAPE   H6R15000   5.375   2.591   9.975  0.4684  1.2636 -0.1199
  138SAPE   C2715001   5.330   2.788   9.898  0.1176 -0.1429 -0.7003
  138SAPE   H7R15002   5.420   2.843   9.933  0.2823 -0.0758 -1.2213
  138SAPE   H7S15003   5.251   2.865   9.895  0.8715  0.6095 -1.9272
  138SAPE   C2815004   5.369   2.739   9.763  0.4691  0.9247  0.0286
  138SAPE   H8R15005   5.412   2.638   9.762 -4.0072 -1.1875 -0.2353
  138SAPE   C2915006   5.379   2.805   9.649  0.6377 -0.3165 -0.1508
  138SAPE   H9R15007   5.425   2.757   9.561  1.2281 -1.0220  0.5238
  138SAPE  C21015008   5.332   2.945   9.631  0.3282 -0.0635  0.3364
  138SAPE  H10R15009   5.414   3.017   9.611 -0.2301 -0.1062 -2.3679
  138SAPE  H10S15010   5.270   2.988   9.714 -1.8521  1.1096 -1.7691
  138SAPE  C21115011   5.232   2.950   9.515 -0.8829 -0.0326 -0.3622
  138SAPE  H11R15012   5.133   2.921   9.553 -1.5300  2.7181  0.2912
  138SAPE  C21215013   5.254   2.980   9.386  1.2535 -0.3966  0.5895
  138SAPE  H12R15014   5.165   2.972   9.322  2.5258 -2.1453 -1.0918
  138SAPE  C21315015   5.383   3.026   9.313  0.3044  0.0574  0.4138
  138SAPE  H13R15016   5.410   3.122   9.361  0.4746  1.4570 -2.3338
  138SAPE  H13S15017   5.363   3.048   9.206 -4.1584 -0.2936  0.9746
  138SAPE  C21415018   5.495   2.924   9.320  0.6058  0.1739 -0.1675
  138SAPE  H14R15019   5.453   2.826   9.293 -0.7922  0.5010  0.7344
  138SAPE  C21515020   5.626   2.949   9.327  0.3321 -0.7046  0.6560
  138SAPE  H15R15021   5.692   2.862   9.320 -0.6776 -1.4884  0.6743
  138SAPE  C21615022   5.711   3.079   9.322 -0.0328  0.3973 -0.3400
  138SAPE  H16R15023   5.650   3.171   9.339 -0.2715  0.3348 -0.8395
  138SAPE  H16S15024   5.751   3.083   9.218 -1.6454  0.4008 -0.9914
  138SAPE  C21715025   5.833   3.077   9.419  0.3624  0.2893  0.9937
  138SAPE  H17R15026   5.901   3.155   9.378  0.3513 -0.0080  0.3886
  138SAPE  H17S15027   5.881   2.976   9.422  1.9623  1.0350  1.4204
  138SAPE  C21815028   5.783   3.111   9.562  0.2434 -0.6056  0.3146
  138SAPE  H18R15029   5.710   3.039   9.605  0.0078  0.1246  1.1747
  138SAPE  H18S15030   5.734   3.211   9.555 -0.3451 -0.9455 -0.5871
  138SAPE  C21915031   5.893   3.116   9.666  0.1649 -0.5859 -0.3774
  138SAPE  H19R15032   5.938   3.014   9.671 -1.9520 -1.5092  1.4171
  138SAPE  H19S15033   5.854   3.144   9.766  0.9181 -0.7785 -0.0236
  138SAPE  C22015034   6.020   3.203   9.640 -0.7570  0.5416 -0.3354
  138SAPE  H20R15035   6.107   3.172   9.703 -0.9549  2.6031  1.0421
  138SAPE  H20S15036   6.005   3.304   9.683  0.0527  0.9464 -0.9799
  138SAPE  H20T15037   6.046   3.210   9.532 -2.0747  3.4110 -0.5408
  138SAPE   C3315038   5.115   3.373   9.884 -0.3937 -0.0198 -0.5664
  138SAPE   H3X15039   5.225   3.367   9.867  0.1378  0.3222  2.3037
  138SAPE   H3Y15040   5.093   3.465   9.942 -1.8262 -0.7428  0.0887
  138SAPE   C3415041   5.042   3.379   9.746 -0.1817  0.8211 -0.4227
  138SAPE   H4X15042   4.933   3.398   9.744 -0.0805  1.4244 -0.5366
  138SAPE   H4Y15043   5.061   3.278   9.703  0.9338  0.7863  0.1155
  138SAPE   C3515044   5.093   3.492   9.667  0.6297  0.7497 -0.4825
  138SAPE   H5X15045   5.204   3.503   9.671  0.5362  1.4300  0.5919
  138SAPE   H5Y15046   5.061   3.585   9.718 -2.8922 -0.7320  0.3089
  138SAPE   C3615047   5.046   3.491   9.519 -0.4095 -0.7551  0.5082
  138SAPE   H6X15048   4.941   3.527   9.520  0.1916  1.1450 -0.5678
  138SAPE   H6Y15049   5.054   3.394   9.466  0.5033 -0.9468  0.9720
  138SAPE   C3715050   5.131   3.589   9.442  0.1113  0.6267  0.4159
  138SAPE   H7X15051   5.234   3.551   9.429 -0.1827  0.5423 -2.2743
  138SAPE   H7Y15052   5.137   3.688   9.492 -0.2323  0.1229  1.4894
  138SAPE   C3815053   5.075   3.609   9.298 -0.4349  0.1446  0.7508
  138SAPE   H8X15054   4.970   3.643   9.307 -0.9393 -1.2604  0.3497
  138SAPE   H8Y15055   5.073   3.504   9.261  1.5227 -0.2016  1.4701
  138SAPE   C3915056   5.159   3.710   9.218  0.1364  0.3511  0.2919
  138SAPE   H9X15057   5.264   3.683   9.194 -0.5551 -0.4980 -2.1489
  138SAPE   H9Y15058   5.162   3.807   9.271  1.6002  1.3292 -1.4627
  138SAPE  C31015059   5.094   3.719   9.081 -0.4225 -0.0410  0.8773
  138SAPE  H10X15060   5.082   3.614   9.047  0.8571 -0.1373  0.6666
  138SAPE  H10Y15061   5.170   3.761   9.011  0.1008 -1.2874  0.6654
  138SAPE  C31115062   4.960   3.791   9.067 -0.4741 -0.0409 -0.1601
  138SAPE  H11X15063   4.970   3.899   9.091  0.2677 -0.4191  1.3534
  138SAPE  H11Y15064   4.890   3.733   9.131 -0.7793  0.7251  0.2142
  138SAPE  C31215065   4.909   3.783   8.921  0.8481 -0.3453  0.1989
  138SAPE  H12X15066   4.894   3.679   8.883 -0.8150  0.1725 -0.6681
  138SAPE  H12Y15067   4.983   3.832   8.854  0.3453  1.2278  0.7583
  138SAPE  C31315068   4.774   3.854   8.892 -0.4834 -0.2750  0.1265
  138SAPE  H13X15069   4.774   3.956   8.936 -0.8661  0.4953 -1.5813
  138SAPE  H13Y15070   4.692   3.796   8.939 -1.0956 -1.1997 -1.9386
  138SAPE  C31415071   4.744   3.848   8.739  0.0977  0.2312 -0.5169
  138SAPE  H14X15072   4.639   3.885   8.743  0.5423  1.5016 -0.3139
  138SAPE  H14Y15073   4.742   3.745   8.697  2.5867  0.8910 -2.4703
  138SAPE  C31515074   4.827   3.937   8.652 -0.1199  0.0437 -0.0893
  138SAPE  H15X15075   4.933   3.905   8.649  0.1268  0.8191  0.0817
  138SAPE  H15Y15076   4.808   4.037   8.697 -3.3776 -0.6728  0.3618
  138SAPE  C31615077   4.769   3.949   8.509  0.4219  0.5933 -0.0780
  138SAPE  H16X15078   4.774   3.850   8.458  0.4508  0.2367  0.6088
  138SAPE  H16Y15079   4.829   4.029   8.460  0.5653 -0.5159 -1.8062
  138SAPE  C31715080   4.625   3.997   8.495 -0.6147 -0.1068 -0.0774
  138SAPE  H17X15081   4.609   4.096   8.543  0.5280 -0.4079  0.9844
  138SAPE  H17Y15082   4.548   3.925   8.532 -0.0757 -1.5885 -1.7131
  138SAPE  C31815083   4.593   4.030   8.345 -0.4611  0.6589 -0.0853
  138SAPE  H18X15084   4.485   4.020   8.322 -0.1540  0.1084 -1.3713
  138SAPE  H18Y15085   4.650   3.957   8.283  2.6813  1.6094  1.4457
  138SAPE  H18Z15086   4.634   4.131   8.323  0.6451  0.1471 -0.4296
  139SAPE     N15087   5.175   1.765  10.718  0.2425 -0.2234  0.1136
  139SAPE   HN115088   5.095   1.812  10.765  0.4209  1.0893 -0.8603
  139SAPE   HN215089   5.168   1.661  10.715 -1.5479 -0.1235 -0.5129
  139SAPE   HN315090   5.265   1.791  10.762  0.7293  2.2799 -2.0804
  139SAPE   C1215091   5.174   1.823  10.581 -0.1867  0.0224  0.5599
  139SAPE  H12A15092   5.211   1.927  10.593 -1.0898  0.1825  2.3759
  139SAPE  H12B15093   5.074   1.832  10.535  0.1064  2.2154  0.2284
  139SAPE   C1115094   5.261   1.732  10.483 -0.4488 -0.5248  0.7270
  139SAPE  H11A15095   5.265   1.791  10.390 -0.9307  1.7843  2.0876
  139SAPE  H11B15096   5.201   1.645  10.449 -2.5578  1.1544 -0.0527
  139SAPE     P15097   5.474   1.575  10.486  0.0170  0.1284  0.5118
  139SAPE   O1315098   5.603   1.578  10.552 -0.0127  0.0829 -0.6561
  139SAPE   O1415099   5.387   1.457  10.505  0.3496  0.4284 -0.3536
  139SAPE   O1215100   5.390   1.710  10.525  0.1431  0.3631 -0.1307
  139SAPE   O1115101   5.494   1.590  10.331 -0.1492  0.1143 -0.0598
  139SAPE    C115102   5.542   1.715  10.278 -0.4355 -0.6577 -0.4392
  139SAPE    HA15103   5.462   1.788  10.302 -0.3465 -1.3701  2.3721
  139SAPE    HB15104   5.632   1.748  10.333 -0.8798  0.5793 -0.4282
  139SAPE    C215105   5.591   1.695  10.125  0.2244 -0.7088  0.3283
  139SAPE    HS15106   5.629   1.796  10.098 -0.3036 -0.8958 -1.1828
  139SAPE   O2115107   5.474   1.656  10.045 -0.5856 -0.1915  0.2569
  139SAPE   C2115108   5.396   1.759  10.006 -0.1184  0.3007 -0.5397
  139SAPE   O2215109   5.399   1.867  10.061 -0.1033  0.0449  0.5797
  139SAPE   C2215110   5.303   1.718   9.899  0.0210  0.2295  0.0045
  139SAPE   H2R15111   5.328   1.619   9.856  1.4447  0.5722  0.0080
  139SAPE   H2S15112   5.204   1.712   9.948  0.9565 -3.7623  1.7750
  139SAPE    C315113   5.713   1.600  10.101  0.2252  0.5433  0.4670
  139SAPE    HX15114   5.695   1.498  10.141 -0.3196  1.7474  3.5448
  139SAPE    HY15115   5.784   1.648  10.172  0.7655 -1.3814  1.3011
  139SAPE   O3115116   5.761   1.605   9.967 -0.1405  0.1457 -0.1385
  139SAPE   C3115117   5.885   1.556   9.953 -0.1651 -0.1947 -0.5395
  139SAPE   O3215118   5.963   1.526  10.040  0.1660 -0.2091  0.1294
  139SAPE   C3215119   5.918   1.576   9.806 -0.3352 -0.3617  0.5031
  139SAPE   H2X15120   5.935   1.682   9.780  2.1380 -0.6467  0.6754
  139SAPE   H2Y15121   5.829   1.535   9.753  0.1021 -0.0013 -0.5454
  139SAPE   C2315122   5.300   1.815   9.779 -0.0685  0.4868  0.1038
  139SAPE   H3R15123   5.282   1.916   9.820  0.4322  0.6194 -0.0004
  139SAPE   H3S15124   5.210   1.780   9.723 -1.4623 -1.4889  3.3227
  139SAPE   C2415125   5.428   1.819   9.689 -0.1126  0.6199  0.0453
  139SAPE   H4R15126   5.514   1.841   9.755  0.4461  0.8098 -0.7394
  139SAPE   H4S15127   5.420   1.905   9.619  0.4194  0.1874 -0.5469
  139SAPE   C2515128   5.447   1.686   9.624  0.3942 -0.2986  0.4366
  139SAPE   H5R15129   5.474   1.613   9.702  2.5103 -0.5464 -0.4544
  139SAPE   C2615130   5.432   1.654   9.491 -0.8530 -0.7070 -0.1108
  139SAPE   H6R15131   5.458   1.552   9.458  1.3344 -0.9803  2.1663
  139SAPE   C2715132   5.399   1.751   9.381 -0.4910  1.1929 -0.5087
  139SAPE   H7R15133   5.447   1.851   9.391 -0.8907  1.2855  0.6959
  139SAPE   H7S15134   5.289   1.769   9.387 -1.0010 -1.2279 -1.4270
  139SAPE   C2815135   5.444   1.689   9.248 -0.0764  0.3267  0.4335
  139SAPE   H8R15136   5.549   1.659   9.252 -0.2045  0.0402  2.9819
  139SAPE   C2915137   5.364   1.658   9.138 -0.0269 -0.0527 -0.6876
  139SAPE   H9R15138   5.408   1.600   9.055 -2.0326  0.0081 -1.8536
  139SAPE  C21015139   5.212   1.662   9.124  0.4421  0.5598  0.0591
  139SAPE  H10R15140   5.174   1.766   9.116  1.5501  0.9205 -0.7558
  139SAPE  H10S15141   5.169   1.620   9.217 -0.2390 -0.5132 -0.7164
  139SAPE  C21115142   5.151   1.581   9.017  0.3448 -0.2103 -0.0900
  139SAPE  H11R15143   5.185   1.605   8.915 -2.9560  3.2411 -0.6190
  139SAPE  C21215144   5.055   1.486   9.020 -0.2502  0.0042 -0.4082
  139SAPE  H12R15145   5.015   1.454   8.923  1.4280 -0.8575 -0.8724
  139SAPE  C21315146   4.981   1.435   9.143  0.5940  0.3010 -0.6908
  139SAPE  H13R15147   5.046   1.424   9.232  1.8920  2.0477 -1.3600
  139SAPE  H13S15148   4.941   1.335   9.117  0.2716  0.7801 -2.1468
  139SAPE  C21415149   4.872   1.534   9.181  0.8216 -0.3723  0.0217
  139SAPE  H14R15150   4.864   1.627   9.123  2.4290 -1.1544 -1.5380
  139SAPE  C21515151   4.802   1.529   9.296 -0.1966 -0.1068  0.1392
  139SAPE  H15R15152   4.726   1.607   9.302 -0.4172  0.0554 -3.0456
  139SAPE  C21615153   4.813   1.416   9.396  1.4742 -0.6951 -0.0136
  139SAPE  H16R15154   4.875   1.337   9.348 -2.7820 -2.4308 -3.2208
  139SAPE  H16S15155   4.713   1.368   9.398  0.4240  1.3340 -0.6884
  139SAPE  C21715156   4.843   1.475   9.537  0.5672 -0.4773  0.3087
  139SAPE  H17R15157   4.758   1.533   9.577  1.6852  1.0184  0.6288
  139SAPE  H17S15158   4.924   1.552   9.533 -0.7586  0.8991 -1.2803
  139SAPE  C21815159   4.877   1.365   9.632  0.5844  1.4042 -1.2880
  139SAPE  H18R15160   4.957   1.298   9.594 -0.4509  0.2735 -1.5676
  139SAPE  H18S15161   4.782   1.307   9.639  0.8405  1.1594  0.8171
  139SAPE  C21915162   4.902   1.408   9.782  0.0618 -0.0690  0.5856
  139SAPE  H19R15163   4.890   1.316   9.842 -1.3784 -0.7706 -0.6967
  139SAPE  H19S15164   4.825   1.483   9.811 -0.6939 -0.6817  0.2212
  139SAPE  C22015165   5.045   1.465   9.800 -0.2969 -0.1654 -0.0905
  139SAPE  H20R15166   5.078   1.518   9.708  0.2133  1.0968  0.7882
  139SAPE  H20S15167   5.124   1.390   9.819  0.1252 -0.0003 -1.1324
  139SAPE  H20T15168   5.056   1.539   9.882  1.0617  1.2301 -1.4684
  139SAPE   C3315169   6.033   1.489   9.756 -0.2136  0.4046 -0.4118
  139SAPE   H3X15170   6.008   1.382   9.775  0.5731  0.4815  1.2526
  139SAPE   H3Y15171   6.123   1.509   9.818  2.7282 -1.3627 -3.6959
  139SAPE   C3415172   6.058   1.506   9.605 -0.3833 -0.3344 -0.1688
  139SAPE   H4X15173   6.132   1.425   9.588  0.0869 -0.1587  0.9280
  139SAPE   H4Y15174   6.101   1.604   9.574  0.3670 -0.5474  0.1735
  139SAPE   C3515175   5.941   1.481   9.507  0.5256  0.4438  0.1479
  139SAPE   H5X15176   5.859   1.547   9.543  0.1588 -0.4391  0.9644
  139SAPE   H5Y15177   5.893   1.381   9.513  0.9792  0.1844 -0.4279
  139SAPE   C3615178   5.975   1.512   9.362  0.4187  0.5993 -0.0053
  139SAPE   H6X15179   6.027   1.432   9.306 -0.8005  0.4657 -0.9715
  139SAPE   H6Y15180   6.028   1.609   9.345  0.7255  0.2402 -1.1717
  139SAPE   C3715181   5.845   1.546   9.281 -0.3696 -0.1323 -0.1108
  139SAPE   H7X15182   5.802   1.638   9.323 -1.3234 -1.0513  0.9768
  139SAPE   H7Y15183   5.767   1.467   9.281 -0.4137 -0.0884  0.3145
  139SAPE   C3815184   5.891   1.583   9.139  0.1452  0.8322 -0.0968
  139SAPE   H8X15185   5.996   1.557   9.117 -0.0283 -0.8246  0.8781
  139SAPE   H8Y15186   5.896   1.693   9.127  0.4549  0.8259 -0.0269
  139SAPE   C3915187   5.794   1.522   9.033 -0.4303 -0.6996  0.7126
  139SAPE   H9X15188   5.693   1.566   9.048 -0.3652 -0.1200 -0.3807
  139SAPE   H9Y15189   5.794   1.412   9.047 -1.6817 -0.6418  1.2555
  139SAPE  C31015190   5.854   1.536   8.885 -0.2089 -1.4027  0.2401
  139SAPE  H10X15191   5.947   1.479   8.868  1.2417  1.4218 -2.2238
  139SAPE  H10Y15192   5.885   1.638   8.853  1.5140 -1.7807  0.6090
  139SAPE  C31115193   5.754   1.476   8.785  0.1608 -0.0586  0.2016
  139SAPE  H11X15194   5.758   1.530   8.688  2.6728  2.3270  1.4736
  139SAPE  H11Y15195   5.656   1.485   8.837 -0.3760 -0.0839 -0.7841
  139SAPE  C31215196   5.780   1.326   8.771  0.4996 -0.2734 -0.6046
  139SAPE  H12X15197   5.787   1.278   8.871 -1.0879 -2.4158 -1.4353
  139SAPE  H12Y15198   5.881   1.316   8.725  1.5713  0.7156  1.4146
  139SAPE  C31315199   5.676   1.260   8.675  0.3524 -0.5438  0.0976
  139SAPE  H13X15200   5.707   1.273   8.569 -0.3688 -1.7359 -0.2669
  139SAPE  H13Y15201   5.572   1.298   8.685  0.4887 -0.2132  0.2947
  139SAPE  C31415202   5.669   1.111   8.709  0.1769 -0.4568 -0.5361
  139SAPE  H14X15203   5.579   1.054   8.679  1.3899 -2.4192 -0.6279
  139SAPE  H14Y15204   5.660   1.109   8.820 -2.5735  0.1528 -0.6886
  139SAPE  C31515205   5.797   1.031   8.679 -0.4446  0.2539 -0.4519
  139SAPE  H15X15206   5.798   0.938   8.739  1.3828  0.2949 -0.3430
  139SAPE  H15Y15207   5.884   1.086   8.721 -1.6728  2.0930 -0.2237
  139SAPE  C31615208   5.818   1.012   8.529  0.0311  0.7570  0.0783
  139SAPE  H16X15209   5.836   1.109   8.477  1.9296 -0.8983 -2.6054
  139SAPE  H16Y15210   5.914   0.960   8.506 -0.9202 -0.9745 -0.1360
  139SAPE  C31715211   5.707   0.941   8.452 -0.4826 -0.0731  0.0556
  139SAPE  H17X15212   5.725   0.941   8.342  1.2172 -0.6304  0.2948
  139SAPE  H17Y15213   5.610   0.988   8.475 -0.2103  1.7000 -2.0815
  139SAPE  C31815214   5.696   0.788   8.492  0.1963  0.5687  0.0197
  139SAPE  H18X15215   5.791   0.731   8.485  0.9259  1.6606  0.8337
  139SAPE  H18Y15216   5.620   0.735   8.429  0.3946  0.9838 -0.5820
  139SAPE  H18Z15217   5.673   0.781   8.600  0.0421  2.9654  0.1928
  140SAPE     N15218   0.948   6.163  10.792 -0.5252  0.0765  0.1557
  140SAPE   HN115219   1.007   6.247  10.812  1.6394 -1.3874  0.3116
  140SAPE   HN215220   0.881   6.148  10.870  0.1940 -1.1265  0.5735
  140SAPE   HN315221   1.006   6.076  10.799  0.1185  0.4386 -0.4912
  140SAPE   C1215222   0.865   6.185  10.662  0.0679 -0.0110 -0.3620
  140SAPE  H12A15223   0.807   6.279  10.667  1.0170  0.7865 -2.8042
  140SAPE  H12B15224   0.778   6.116  10.667  0.6910 -0.7239  1.7054
  140SAPE   C1115225   0.938   6.172  10.525  0.6680  0.2972 -0.2331
  140SAPE  H11A15226   0.864   6.162  10.443  0.0292  0.2974  0.3344
  140SAPE  H11B15227   0.988   6.074  10.532 -1.3192 -0.8000 -0.7651
  140SAPE     P15228   0.987   6.400  10.422 -0.0560  0.5079  0.5924
  140SAPE   O1315229   0.881   6.459  10.499  0.2100  0.5578  0.1863
  140SAPE   O1415230   1.105   6.484  10.382  0.3183  0.0754  0.3025
  140SAPE   O1215231   1.035   6.276  10.500  0.0606  0.3545  0.1664
  140SAPE   O1115232   0.928   6.338  10.285 -0.4162  0.3382 -0.1368
  140SAPE    C115233   1.016   6.258  10.202  0.3544  0.6874 -0.0019
  140SAPE    HA15234   1.096   6.314  10.151 -0.0554  0.3341 -1.0549
  140SAPE    HB15235   1.059   6.172  10.258  1.8672  0.7241 -1.0649
  140SAPE    C215236   0.933   6.196  10.085  0.4564 -0.9808  0.2823
  140SAPE    HS15237   0.990   6.178   9.992  0.8147  0.0374  0.2872
  140SAPE   O2115238   0.825   6.287  10.055  0.0183  0.1292  0.0020
  140SAPE   C2115239   0.780   6.286   9.930  0.2302  0.4137  0.0304
  140SAPE   O2215240   0.826   6.224   9.835  0.0601  0.5497 -0.3932
  140SAPE   C2215241   0.656   6.383   9.915 -0.0065  0.4917 -0.1803
  140SAPE   H2R15242   0.572   6.340   9.974  1.6990 -3.3113 -0.2447
  140SAPE   H2S15243   0.688   6.482   9.953  3.4941 -0.5652 -0.0353
  140SAPE    C315244   0.875   6.059  10.130  0.0035  0.0119  0.3394
  140SAPE    HX15245   0.797   6.064  10.209  1.2088 -0.0529  1.5708
  140SAPE    HY15246   0.962   5.998  10.164  1.3538  1.4576 -0.4283
  140SAPE   O3115247   0.806   5.984  10.023  0.8325  0.7020 -0.2395
  140SAPE   C3115248   0.874   5.897   9.946  0.2933 -0.1500 -0.0638
  140SAPE   O3215249   0.982   5.848   9.979  0.0931 -0.5030  0.1350
  140SAPE   C3215250   0.805   5.886   9.813 -0.5176  0.1790 -0.6846
  140SAPE   H2X15251   0.831   5.966   9.740 -0.2089 -0.3403 -1.1445
  140SAPE   H2Y15252   0.696   5.886   9.836 -0.7993 -2.4671 -1.6608
  140SAPE   C2315253   0.630   6.394   9.762  0.1779 -0.2592  0.2950
  140SAPE   H3R15254   0.611   6.295   9.716  1.9792 -1.6344  2.3109
  140SAPE   H3S15255   0.706   6.442   9.696  0.3789 -0.8718  0.0732
  140SAPE   C2415256   0.496   6.472   9.726 -0.2244  0.7931  0.3454
  140SAPE   H4R15257   0.415   6.400   9.750  2.4429 -2.4914  0.3526
  140SAPE   H4S15258   0.483   6.492   9.618 -2.5805 -1.1641  0.1757
  140SAPE   C2515259   0.487   6.604   9.802  0.0136  0.6798 -0.6026
  140SAPE   H5R15260   0.489   6.602   9.912  0.2481 -0.7684 -0.6069
  140SAPE   C2615261   0.489   6.725   9.746 -0.0359 -0.1531  0.3234
  140SAPE   H6R15262   0.484   6.809   9.817 -0.1809  1.6682 -1.7228
  140SAPE   C2715263   0.504   6.765   9.596  0.3761  0.2530  0.1342
  140SAPE   H7R15264   0.432   6.848   9.578  0.0224  0.0293  0.4981
  140SAPE   H7S15265   0.463   6.678   9.539  0.9466 -1.1768  1.8173
  140SAPE   C2815266   0.647   6.804   9.551  0.0551  0.3729  0.5374
  140SAPE   H8R15267   0.700   6.859   9.630 -3.1341  3.6345  0.6612
  140SAPE   C2915268   0.694   6.785   9.426  0.4527 -0.1877  0.5646
  140SAPE   H9R15269   0.803   6.795   9.414  0.5420 -2.0425 -0.6337
  140SAPE  C21015270   0.636   6.707   9.309  0.3155 -0.2038 -0.5864
  140SAPE  H10R15271   0.547   6.765   9.277 -0.3458 -0.5317  0.6150
  140SAPE  H10S15272   0.601   6.607   9.343 -2.5951  0.7073 -0.6715
  140SAPE  C21115273   0.723   6.691   9.181 -0.4952 -0.7211  0.1297
  140SAPE  H11R15274   0.825   6.654   9.197 -0.9912 -1.6154  1.3299
  140SAPE  C21215275   0.701   6.720   9.052  0.0631 -0.0988 -0.9383
  140SAPE  H12R15276   0.779   6.709   8.975  3.8995  1.0441  2.4278
  140SAPE  C21315277   0.575   6.773   8.997 -0.1902  0.1647 -0.1706
  140SAPE  H13R15278   0.482   6.754   9.054 -1.0502  0.0207 -1.5869
  140SAPE  H13S15279   0.563   6.722   8.899 -2.0032 -0.7130  0.4635
  140SAPE  C21415280   0.582   6.918   8.975 -0.5879  0.0217 -0.3053
  140SAPE  H14R15281   0.553   6.976   9.064 -3.6204 -1.0552 -0.4681
  140SAPE  C21515282   0.639   6.984   8.872  0.3084  0.1445 -0.1792
  140SAPE  H15R15283   0.648   7.093   8.878 -1.6850  0.2584  1.7690
  140SAPE  C21615284   0.696   6.927   8.746 -0.2713  0.1377 -0.6872
  140SAPE  H16R15285   0.720   6.821   8.769 -0.8715  0.3413  1.0153
  140SAPE  H16S15286   0.794   6.975   8.726  0.8603 -2.4251 -1.7983
  140SAPE  C21715287   0.597   6.934   8.633 -0.2306 -0.6350 -0.6659
  140SAPE  H17R15288   0.574   7.039   8.605  2.3437 -0.1015 -0.9603
  140SAPE  H17S15289   0.500   6.888   8.664 -0.9894 -0.3500 -2.5008
  140SAPE  C21815290   0.645   6.853   8.507  0.2901 -1.1379  0.1574
  140SAPE  H18R15291   0.679   6.751   8.534 -0.6568 -1.4998  0.0183
  140SAPE  H18S15292   0.730   6.914   8.468 -1.3870  0.4769 -1.1652
  140SAPE  C21915293   0.545   6.846   8.395  0.1423  0.0949 -0.7496
  140SAPE  H19R15294   0.517   6.952   8.376  0.3293  0.9532  2.9852
  140SAPE  H19S15295   0.458   6.800   8.447  1.3842 -1.3768  0.1033
  140SAPE  C22015296   0.570   6.765   8.268  0.3120 -0.7675 -0.3642
  140SAPE  H20R15297   0.483   6.758   8.200 -0.8578  1.1996  0.8475
  140SAPE  H20S15298   0.594   6.659   8.292  2.1508  0.0505  1.7716
  140SAPE  H20T15299   0.658   6.815   8.222  0.0696 -0.4616 -0.5001
  140SAPE   C3315300   0.831   5.745   9.749  0.0865  0.0658 -0.6391
  140SAPE   H3X15301   0.794   5.660   9.810 -1.4818  0.6738 -0.6950
  140SAPE   H3Y15302   0.937   5.713   9.740  0.2194 -0.1670  1.3555
  140SAPE   C3415303   0.755   5.704   9.622 -0.2748 -0.5234 -0.9084
  140SAPE   H4X15304   0.650   5.739   9.635  0.4622  2.0831 -1.4735
  140SAPE   H4Y15305   0.753   5.593   9.622 -2.6006 -0.5591 -2.7764
  140SAPE   C3515306   0.832   5.764   9.505  0.9952  0.5803 -0.3665
  140SAPE   H5X15307   0.932   5.715   9.513 -0.2168 -2.0066  0.0745
  140SAPE   H5Y15308   0.841   5.874   9.518 -0.3978  1.0610 -2.8972
  140SAPE   C3615309   0.772   5.740   9.370 -0.2205  0.3757 -0.1964
  140SAPE   H6X15310   0.665   5.755   9.395 -0.4916 -1.1679 -0.3582
  140SAPE   H6Y15311   0.787   5.633   9.344  1.6026 -0.0753  2.3080
  140SAPE   C3715312   0.833   5.831   9.269  0.1378 -0.3907  0.1107
  140SAPE   H7X15313   0.941   5.821   9.290  0.0307  0.6784  1.2924
  140SAPE   H7Y15314   0.819   5.939   9.291 -1.0756 -0.7200  1.0795
  140SAPE   C3815315   0.792   5.804   9.126 -0.0660 -0.0414  0.3069
  140SAPE   H8X15316   0.681   5.809   9.115  0.0546  3.8364 -0.5486
  140SAPE   H8Y15317   0.830   5.702   9.107 -0.7521 -0.3698  0.6703
  140SAPE   C3915318   0.848   5.903   9.019 -0.8086  0.3793 -0.4786
  140SAPE   H9X15319   0.959   5.896   9.022 -0.8121  0.1036  2.7637
  140SAPE   H9Y15320   0.817   6.003   9.055  3.2678  1.3919  0.7675
  140SAPE  C31015321   0.794   5.875   8.883  0.5626 -0.6094  0.0296
  140SAPE  H10X15322   0.688   5.908   8.886  0.8342  0.3103  3.7035
  140SAPE  H10Y15323   0.795   5.764   8.887  0.3660 -0.5994  0.3865
  140SAPE  C31115324   0.892   5.921   8.770  0.1577 -0.5123 -0.0101
  140SAPE  H11X15325   0.976   5.848   8.771 -1.8947 -3.0256 -0.9689
  140SAPE  H11Y15326   0.925   6.025   8.789  3.3305 -0.8586 -2.7090
  140SAPE  C31215327   0.831   5.911   8.632  0.0933 -0.6090 -0.2228
  140SAPE  H12X15328   0.750   5.986   8.615 -0.1480 -0.4270  1.5352
  140SAPE  H12Y15329   0.791   5.811   8.606 -1.3245  0.0315 -0.6627
  140SAPE  C31315330   0.925   5.933   8.507 -0.4862  0.0734  0.0812
  140SAPE  H13X15331   0.877   5.910   8.409  0.5949  2.5722 -1.1158
  140SAPE  H13Y15332   1.010   5.863   8.525  1.3647  2.0896 -0.4602
  140SAPE  C31415333   0.980   6.077   8.486 -0.1045  0.1443  0.1225
  140SAPE  H14X15334   1.025   6.085   8.385  0.1094 -0.4434  0.1681
  140SAPE  H14Y15335   1.050   6.106   8.567 -0.4652 -1.0572  0.9039
  140SAPE  C31515336   0.868   6.186   8.489 -0.1715 -0.0896 -0.3957
  140SAPE  H15X15337   0.911   6.288   8.475 -0.2286  0.2003  1.3884
  140SAPE  H15Y15338   0.831   6.200   8.592  1.5018  3.3685 -0.1354
  140SAPE  C31615339   0.755   6.167   8.381 -0.6959  0.4504  0.3410
  140SAPE  H16X15340   0.729   6.059   8.390 -0.1247  0.3558  1.0049
  140SAPE  H16Y15341   0.795   6.174   8.277 -2.2513 -0.9553 -0.4047
  140SAPE  C31715342   0.635   6.267   8.382 -0.9011 -0.1175 -0.1896
  140SAPE  H17X15343   0.560   6.230   8.310  2.2485 -2.2176 -2.6474
  140SAPE  H17Y15344   0.678   6.366   8.356 -0.9944  0.5145  1.8354
  140SAPE  C31815345   0.565   6.279   8.522 -0.2051 -0.5722 -0.0280
  140SAPE  H18X15346   0.507   6.374   8.530 -0.7214 -0.9576  0.9072
  140SAPE  H18Y15347   0.646   6.288   8.598 -1.6491 -1.1489  1.6338
  140SAPE  H18Z15348   0.498   6.192   8.537  0.5375 -1.5751 -2.1400
  141SAPE     N15349   6.791   6.579  10.678 -0.0924 -0.3412  0.1005
  141SAPE   HN115350   6.748   6.547  10.767 -1.6737  1.3017 -0.0130
  141SAPE   HN215351   6.861   6.643  10.720  1.3388 -2.1007  0.5486
  141SAPE   HN315352   6.721   6.637  10.628  0.2874  0.0816  0.0547
  141SAPE   C1215353   6.860   6.470  10.600  0.6670 -0.3054  0.8832
  141SAPE  H12A15354   6.936   6.518  10.535 -0.0368 -1.4861 -0.8883
  141SAPE  H12B15355   6.790   6.415  10.533  1.8796 -1.0564  0.2069
  141SAPE   C1115356   6.920   6.360  10.685 -0.5614  0.6386 -0.2498
  141SAPE  H11A15357   6.928   6.266  10.626 -0.3233 -0.0307  0.8104
  141SAPE  H11B15358   6.853   6.339  10.771 -1.1155 -0.7221 -0.9899
  141SAPE     P15359   7.185   6.373  10.664 -0.0061  0.0020 -0.1936
  141SAPE   O1315360   7.270   6.497  10.682 -0.2449  0.5575  0.1184
  141SAPE   O1415361   7.231   6.239  10.705 -0.1441  0.0409 -0.3017
  141SAPE   O1215362   7.048   6.397  10.737 -0.9889 -0.5284 -0.8302
  141SAPE   O1115363   7.127   6.374  10.511  0.5910  0.0361 -0.0723
  141SAPE    C115364   7.159   6.252  10.441  0.1806  0.5667  0.4152
  141SAPE    HA15365   7.260   6.209  10.461  0.5816  1.0609 -0.5142
  141SAPE    HB15366   7.079   6.179  10.465 -0.7937  1.0558 -1.1682
  141SAPE    C215367   7.162   6.274  10.284  0.5192 -0.4905 -0.3592
  141SAPE    HS15368   7.238   6.352  10.259 -1.0370  0.7735 -1.3564
  141SAPE   O2115369   7.027   6.309  10.234  0.8176  0.5916  0.2081
  141SAPE   C2115370   7.027   6.400  10.139 -0.4900 -0.9844 -0.1103
  141SAPE   O2215371   7.125   6.451  10.094 -0.1526 -0.2406  0.7278
  141SAPE   C2215372   6.881   6.424  10.092  0.8111 -0.4122 -0.2253
  141SAPE   H2R15373   6.852   6.348  10.017 -0.5248 -3.1484  2.8181
  141SAPE   H2S15374   6.822   6.415  10.186  1.7704 -0.7686  0.3538
  141SAPE    C315375   7.224   6.147  10.208 -0.3026  0.2783  0.0257
  141SAPE    HX15376   7.167   6.055  10.236 -1.7868  1.0561 -0.3237
  141SAPE    HY15377   7.320   6.135  10.263 -0.5097 -1.3385  0.1000
  141SAPE   O3115378   7.255   6.159  10.071 -0.9611 -0.0260 -0.3383
  141SAPE   C3115379   7.212   6.066   9.988  0.4160 -0.6821 -0.3450
  141SAPE   O3215380   7.129   5.980  10.012 -1.0182 -0.6298 -0.4329
  141SAPE   C3215381   7.265   6.118   9.849  0.8471 -0.4281  0.3961
  141SAPE   H2X15382   7.374   6.103   9.858  1.1171  1.8051  1.4094
  141SAPE   H2Y15383   7.236   6.224   9.830 -1.3368 -0.5115  2.6925
  141SAPE   C2315384   6.852   6.568  10.037 -0.9778 -0.5947  0.4739
  141SAPE   H3R15385   6.896   6.640  10.110 -0.8452 -1.2085  1.0078
  141SAPE   H3S15386   6.742   6.583  10.044 -1.1338 -1.3349 -0.3093
  141SAPE   C2415387   6.906   6.590   9.899 -0.2580  0.4829  0.4651
  141SAPE   H4R15388   7.010   6.552   9.894 -0.7256 -0.6729 -1.0761
  141SAPE   H4S15389   6.922   6.699   9.881 -0.9960  0.2418 -1.8950
  141SAPE   C2515390   6.834   6.534   9.780  0.2847 -0.5669  0.0539
  141SAPE   H5R15391   6.760   6.605   9.740  1.9651  0.8709 -0.6189
  141SAPE   C2615392   6.841   6.416   9.714  0.3991 -0.2894  0.3444
  141SAPE   H6R15393   6.788   6.405   9.618 -0.0768  3.3021  0.0467
  141SAPE   C2715394   6.927   6.301   9.750  0.4114  0.2165  0.0604
  141SAPE   H7R15395   6.977   6.321   9.848  0.3760 -1.4324  0.4493
  141SAPE   H7S15396   7.011   6.281   9.679 -0.3514 -1.7341 -0.3429
  141SAPE   C2815397   6.838   6.178   9.777 -0.1484 -0.7412  0.1393
  141SAPE   H8R15398   6.809   6.163   9.882  1.3685 -2.3881  0.3661
  141SAPE   C2915399   6.798   6.091   9.685  0.7847  0.1318 -0.5233
  141SAPE   H9R15400   6.724   6.018   9.721 -0.5183  1.5683 -0.1649
  141SAPE  C21015401   6.837   6.092   9.540 -0.7552  0.1713  0.3017
  141SAPE  H10R15402   6.903   6.177   9.513 -0.3693 -0.4851 -0.8729
  141SAPE  H10S15403   6.746   6.104   9.478 -0.9023 -0.0134  0.4765
  141SAPE  C21115404   6.902   5.963   9.492 -0.3823  0.4930 -0.1961
  141SAPE  H11R15405   6.964   5.919   9.571  1.9670  3.9744  0.1299
  141SAPE  C21215406   6.895   5.911   9.369  0.7649  0.8332 -0.1246
  141SAPE  H12R15407   6.942   5.816   9.340  0.3328  0.2287  1.0892
  141SAPE  C21315408   6.815   5.980   9.252 -0.4720  0.1944  0.6915
  141SAPE  H13R15409   6.707   5.985   9.278  0.0864 -0.3090  3.4160
  141SAPE  H13S15410   6.827   5.917   9.161  0.6040 -0.4780  1.2788
  141SAPE  C21415411   6.864   6.113   9.214  0.3422  0.4110 -0.6183
  141SAPE  H14R15412   6.942   6.158   9.277 -0.3752  1.8848 -0.7256
  141SAPE  C21515413   6.842   6.181   9.105  0.3541 -0.1419  0.0109
  141SAPE  H15R15414   6.894   6.277   9.103  1.5806 -0.7751  0.2924
  141SAPE  C21615415   6.751   6.139   8.988 -0.5084 -0.3025 -0.3913
  141SAPE  H16R15416   6.683   6.225   8.968  0.4267  0.7535  0.7214
  141SAPE  H16S15417   6.690   6.048   9.002 -0.7165 -0.4118 -1.8961
  141SAPE  C21715418   6.846   6.108   8.870  0.7787 -0.0751  0.6826
  141SAPE  H17R15419   6.914   6.028   8.906 -1.4654 -1.4674  2.0387
  141SAPE  H17S15420   6.914   6.197   8.866 -0.1971  0.7327  1.5283
  141SAPE  C21815421   6.781   6.067   8.734  0.0829  0.1879 -0.0112
  141SAPE  H18R15422   6.700   5.992   8.750 -0.8857  0.3386 -3.3796
  141SAPE  H18S15423   6.860   6.019   8.671 -0.1438  0.1861 -0.2940
  141SAPE  C21915424   6.715   6.175   8.654 -0.1525  0.3782 -0.1832
  141SAPE  H19R15425   6.786   6.243   8.603 -1.1564 -0.6018 -3.0562
  141SAPE  H19S15426   6.648   6.230   8.724 -1.1648  2.8963 -2.9087
  141SAPE  C22015427   6.614   6.126   8.551 -0.1921  0.0295 -0.1592
  141SAPE  H20R15428   6.663   6.033   8.515  2.5755  0.6771  1.6212
  141SAPE  H20S15429   6.606   6.207   8.475  1.5548  1.9969  1.6120
  141SAPE  H20T15430   6.515   6.108   8.597 -0.4565  0.1732 -0.6612
  141SAPE   C3315431   7.209   6.023   9.739  0.3571 -0.2348  0.4137
  141SAPE   H3X15432   7.098   6.026   9.747  0.3358  2.5292 -0.1240
  141SAPE   H3Y15433   7.243   5.918   9.752 -1.0383 -0.4926  2.5020
  141SAPE   C3415434   7.237   6.076   9.599 -0.0373 -0.3388  0.5272
  141SAPE   H4X15435   7.221   6.186   9.597 -0.6810 -0.4147 -1.9529
  141SAPE   H4Y15436   7.165   6.030   9.528 -0.4093  0.7511  0.1804
  141SAPE   C3515437   7.377   6.035   9.552 -0.6908 -0.6286  0.5852
  141SAPE   H5X15438   7.389   5.926   9.534 -0.1943 -0.4135 -0.4690
  141SAPE   H5Y15439   7.449   6.062   9.632  0.4990 -0.0458 -0.6354
  141SAPE   C3615440   7.433   6.113   9.426  0.0366  0.0342  0.6818
  141SAPE   H6X15441   7.538   6.082   9.407 -0.1190  0.7660 -1.7889
  141SAPE   H6Y15442   7.431   6.223   9.437  0.6594  0.5572 -3.1373
  141SAPE   C3715443   7.354   6.079   9.296  0.6832  0.1142 -0.0688
  141SAPE   H7X15444   7.247   6.096   9.320  0.1134 -0.7086 -1.7891
  141SAPE   H7Y15445   7.360   5.971   9.272 -2.8702 -0.4947  1.2322
  141SAPE   C3815446   7.401   6.164   9.174  0.7200  0.4740  0.6847
  141SAPE   H8X15447   7.512   6.161   9.171  0.8358 -1.3566  3.1804
  141SAPE   H8Y15448   7.367   6.269   9.182  2.7256  1.2922 -0.9615
  141SAPE   C3915449   7.336   6.114   9.040 -0.2290 -0.0889  1.0668
  141SAPE   H9X15450   7.226   6.097   9.050 -1.1237  2.0222 -3.0879
  141SAPE   H9Y15451   7.377   6.014   9.016 -0.2596  0.2020 -0.2385
  141SAPE  C31015452   7.344   6.220   8.925  0.4621 -0.4021  0.0089
  141SAPE  H10X15453   7.325   6.188   8.820 -0.7894  1.8051 -0.4838
  141SAPE  H10Y15454   7.449   6.256   8.919  0.7283 -1.3480 -1.8014
  141SAPE  C31115455   7.233   6.322   8.958 -0.1808 -0.5986 -0.1850
  141SAPE  H11X15456   7.265   6.395   9.034  1.0126  0.7167 -1.8838
  141SAPE  H11Y15457   7.140   6.270   8.991 -1.7568  2.3301  0.2536
  141SAPE  C31215458   7.195   6.407   8.834  1.0517  0.5049 -0.5401
  141SAPE  H12X15459   7.195   6.340   8.745  2.9295 -1.1251  0.6186
  141SAPE  H12Y15460   7.282   6.476   8.824  3.0391 -1.4204  2.0472
  141SAPE  C31315461   7.062   6.484   8.871  0.1041  0.6776  0.5498
  141SAPE  H13X15462   7.079   6.522   8.974 -1.6398  1.5437  0.5464
  141SAPE  H13Y15463   6.985   6.404   8.873 -0.2432  0.8645 -1.9670
  141SAPE  C31415464   7.038   6.602   8.778  0.3034  0.4970 -0.7671
  141SAPE  H14X15465   7.118   6.677   8.797  2.0691 -1.3928 -0.3335
  141SAPE  H14Y15466   6.936   6.636   8.807  0.4498 -1.4017  2.4657
  141SAPE  C31515467   7.028   6.575   8.622  0.1624  0.2813 -0.5002
  141SAPE  H15X15468   7.116   6.517   8.587  0.2535  0.0544  0.1029
  141SAPE  H15Y15469   7.054   6.671   8.573  1.1433 -0.3632 -1.2730
  141SAPE  C31615470   6.896   6.522   8.569  0.1627  0.4439  0.0473
  141SAPE  H16X15471   6.881   6.422   8.615 -1.5375 -0.4604 -2.2262
  141SAPE  H16Y15472   6.906   6.506   8.459 -0.5207  2.0393 -0.2742
  141SAPE  C31715473   6.776   6.617   8.587  0.6433  0.0042 -0.2892
  141SAPE  H17X15474   6.804   6.724   8.575 -1.0930  0.4637 -0.5379
  141SAPE  H17Y15475   6.750   6.605   8.694  2.2160 -0.7267  0.0330
  141SAPE  C31815476   6.661   6.597   8.488  0.1478 -0.2794 -1.1793
  141SAPE  H18X15477   6.580   6.672   8.503 -1.0273 -1.9441  1.5894
  141SAPE  H18Y15478   6.633   6.492   8.513  1.2226 -0.3030  0.0059
  141SAPE  H18Z15479   6.703   6.606   8.385  2.4273  1.5282 -0.1905
  142SAPE     N15480   2.055   5.899  10.769 -0.4062  0.2501  0.3038
  142SAPE   HN115481   2.110   5.949  10.696  0.6817  1.1939  1.7194
  142SAPE   HN215482   2.127   5.833  10.805  0.4478 -1.0093 -3.3005
  142SAPE   HN315483   1.987   5.844  10.712 -0.3569  2.1680 -1.7534
  142SAPE   C1215484   1.987   5.978  10.878 -0.5177  0.2387  0.5528
  142SAPE  H12A15485   2.068   6.017  10.944  0.3382  0.4488 -0.5879
  142SAPE  H12B15486   1.931   5.904  10.939  2.7268 -1.6246  1.4808
  142SAPE   C1115487   1.901   6.090  10.816  0.1521 -0.2520  0.2482
  142SAPE  H11A15488   1.975   6.164  10.779  1.1087 -1.3136 -0.0385
  142SAPE  H11B15489   1.839   6.148  10.887  0.5090 -2.0897  2.1598
  142SAPE     P15490   1.675   5.965  10.735 -0.4346  0.5040  0.1221
  142SAPE   O1315491   1.692   5.847  10.816 -0.3108  0.4353 -0.1085
  142SAPE   O1415492   1.577   6.059  10.798  0.2062  0.8061 -0.7671
  142SAPE   O1215493   1.813   6.040  10.714 -0.4097 -0.3859  0.2046
  142SAPE   O1115494   1.637   5.924  10.582  0.5069  0.0605 -0.0495
  142SAPE    C115495   1.650   6.028  10.481  0.1647 -0.2174  0.0259
  142SAPE    HA15496   1.562   6.095  10.486  1.8067  2.1580 -0.8370
  142SAPE    HB15497   1.738   6.097  10.486 -1.3272  1.7686  0.1453
  142SAPE    C215498   1.663   5.971  10.338 -0.6521  0.3273 -0.2518
  142SAPE    HS15499   1.727   6.037  10.274  1.1692 -0.3312  0.8175
  142SAPE   O2115500   1.528   5.951  10.279 -0.3383 -0.0123  0.4581
  142SAPE   C2115501   1.474   6.056  10.233  0.3446  0.2818 -0.3015
  142SAPE   O2215502   1.518   6.170  10.247 -0.3972  0.0112 -0.1987
  142SAPE   C2215503   1.349   6.022  10.149 -0.0840  0.2217 -0.3511
  142SAPE   H2R15504   1.342   5.917  10.113 -2.3369 -0.9134  2.9936
  142SAPE   H2S15505   1.273   6.042  10.227  0.7751  1.9223  0.0973
  142SAPE    C315506   1.750   5.836  10.327  0.5852 -0.0111  0.6213
  142SAPE    HX15507   1.726   5.785  10.423  0.1947  0.4189  0.7571
  142SAPE    HY15508   1.860   5.850  10.328  0.7945 -1.4842  0.4370
  142SAPE   O3115509   1.709   5.747  10.218 -0.1131 -0.2697  0.2302
  142SAPE   C3115510   1.768   5.789  10.104 -0.5102 -0.4778  0.1146
  142SAPE   O3215511   1.842   5.886  10.093  0.3074  0.1233 -0.0176
  142SAPE   C3215512   1.735   5.708   9.982  0.1914 -0.4140 -0.3735
  142SAPE   H2X15513   1.647   5.756   9.936 -0.2217 -0.5421  0.2651
  142SAPE   H2Y15514   1.710   5.603  10.008  3.2591 -1.2046 -0.2073
  142SAPE   C2315515   1.312   6.121  10.038  0.2483  0.0427  0.1991
  142SAPE   H3R15516   1.300   6.225  10.075  2.1116  0.2174  0.3783
  142SAPE   H3S15517   1.213   6.089   9.998  0.6268 -1.2770  0.2576
  142SAPE   C2415518   1.414   6.106   9.917 -0.0093 -0.1443 -0.3628
  142SAPE   H4R15519   1.394   6.008   9.868 -0.7145  1.1631 -2.8639
  142SAPE   H4S15520   1.516   6.093   9.960 -0.1654  0.0839  0.0820
  142SAPE   C2515521   1.396   6.222   9.823  0.6330 -0.0984 -0.2710
  142SAPE   H5R15522   1.444   6.317   9.849 -1.2918  0.4197  1.6075
  142SAPE   C2615523   1.335   6.212   9.702 -0.4333  0.2255 -0.3243
  142SAPE   H6R15524   1.317   6.303   9.643 -2.1079 -0.5966 -1.1734
  142SAPE   C2715525   1.279   6.089   9.635  0.1066 -0.1941  0.5611
  142SAPE   H7R15526   1.339   6.002   9.669  0.1014 -0.5140 -0.2275
  142SAPE   H7S15527   1.287   6.101   9.525 -2.4580  2.7352  0.5647
  142SAPE   C2815528   1.137   6.084   9.668 -1.2238 -0.4879 -0.3366
  142SAPE   H8R15529   1.118   6.025   9.760  0.7177 -2.8911 -1.3607
  142SAPE   C2915530   1.038   6.131   9.597  0.0333 -0.1323  0.2706
  142SAPE   H9R15531   0.934   6.119   9.628 -0.2144  2.1094  0.5217
  142SAPE  C21015532   1.048   6.217   9.470  0.2908  0.2661  0.0961
  142SAPE  H10R15533   1.019   6.152   9.384  0.8403 -1.0568  0.8772
  142SAPE  H10S15534   1.153   6.252   9.462  0.5496 -0.7784 -1.6499
  142SAPE  C21115535   0.952   6.334   9.471  0.3374 -0.5414  0.4498
  142SAPE  H11R15536   0.889   6.350   9.560 -0.0436  0.5849 -0.0066
  142SAPE  C21215537   0.943   6.422   9.370  0.0749  0.0732 -0.1487
  142SAPE  H12R15538   0.861   6.496   9.376  0.0430  0.0004  0.3722
  142SAPE  C21315539   1.017   6.418   9.238 -0.0189  0.2623  0.2485
  142SAPE  H13R15540   1.118   6.371   9.237  0.1028  0.4821 -1.3629
  142SAPE  H13S15541   1.043   6.525   9.231  1.0941 -0.0063  0.0584
  142SAPE  C21415542   0.932   6.383   9.109 -0.2102 -0.0557 -0.7025
  142SAPE  H14R15543   0.823   6.388   9.120 -0.5987 -3.2516 -2.2020
  142SAPE  C21515544   0.977   6.350   8.988 -0.1318 -0.4444  0.3629
  142SAPE  H15R15545   0.902   6.336   8.909 -0.8390  1.4782  0.6342
  142SAPE  C21615546   1.120   6.331   8.938  0.1629 -0.1541  0.3695
  142SAPE  H16R15547   1.137   6.225   8.910 -2.0489 -0.0780 -1.5487
  142SAPE  H16S15548   1.191   6.358   9.020 -0.9680  4.3378  0.1584
  142SAPE  C21715549   1.161   6.428   8.826 -0.3069  0.0876 -0.2282
  142SAPE  H17R15550   1.159   6.529   8.872  0.6805 -0.4316  1.0189
  142SAPE  H17S15551   1.090   6.439   8.742  0.4347  0.9314 -0.7588
  142SAPE  C21815552   1.300   6.386   8.773 -0.4501 -0.4518 -0.1888
  142SAPE  H18R15553   1.300   6.275   8.763 -2.5978 -0.3424 -2.2783
  142SAPE  H18S15554   1.364   6.416   8.859 -1.5760  1.1653  0.1235
  142SAPE  C21915555   1.343   6.452   8.641  0.2705  0.1369 -0.5747
  142SAPE  H19R15556   1.332   6.563   8.638 -1.9991  0.0041  0.3108
  142SAPE  H19S15557   1.276   6.419   8.559 -2.8960 -1.8769  2.5215
  142SAPE  C22015558   1.489   6.415   8.614 -0.2024  0.2625 -0.4935
  142SAPE  H20R15559   1.529   6.468   8.525 -2.6582 -0.4718 -2.1340
  142SAPE  H20S15560   1.520   6.309   8.603 -0.6467  0.0643  0.1357
  142SAPE  H20T15561   1.548   6.439   8.704 -0.6006  1.2093 -0.4670
  142SAPE   C3315562   1.856   5.705   9.889 -0.1773 -0.2151  0.4836
  142SAPE   H3X15563   1.943   5.661   9.943 -0.7444 -0.9861  0.7764
  142SAPE   H3Y15564   1.869   5.812   9.861 -0.3296  0.3056  2.2716
  142SAPE   C3415565   1.819   5.612   9.767  0.5468  0.4411  0.0911
  142SAPE   H4X15566   1.710   5.626   9.748  0.3997  0.3925  0.8670
  142SAPE   H4Y15567   1.831   5.508   9.804  1.1390  0.1362 -0.9224
  142SAPE   C3515568   1.905   5.627   9.645  0.5228 -0.5933  0.0547
  142SAPE   H5X15569   1.931   5.539   9.582 -0.7869  1.1755 -3.2329
  142SAPE   H5Y15570   2.008   5.663   9.668  0.6478 -0.4371 -0.7068
  142SAPE   C3615571   1.842   5.727   9.544 -0.5875  0.2948 -0.4540
  142SAPE   H6X15572   1.817   5.821   9.598 -0.8295 -0.5462  0.9301
  142SAPE   H6Y15573   1.745   5.690   9.504  0.0154 -1.4587 -0.3458
  142SAPE   C3715574   1.940   5.761   9.436 -0.4539  0.1882 -0.3145
  142SAPE   H7X15575   1.996   5.670   9.405  1.4484  0.9050  0.8025
  142SAPE   H7Y15576   2.018   5.829   9.477 -1.6234  3.0662 -2.5551
  142SAPE   C3815577   1.883   5.837   9.316 -0.3360  1.1964 -0.2742
  142SAPE   H8X15578   1.814   5.913   9.357  0.4219  0.3385  2.9095
  142SAPE   H8Y15579   1.810   5.773   9.261 -0.7062  2.2519 -1.0410
  142SAPE   C3915580   1.984   5.891   9.212 -0.0205 -0.0012 -0.6961
  142SAPE   H9X15581   2.011   5.800   9.156 -1.0933 -0.7549 -0.0229
  142SAPE   H9Y15582   2.076   5.929   9.261 -1.2304  1.8443  0.2909
  142SAPE  C31015583   1.935   5.997   9.109  0.3869  0.3359  0.2262
  142SAPE  H10X15584   2.021   6.019   9.044 -0.9606 -0.3006 -1.8726
  142SAPE  H10Y15585   1.906   6.090   9.163  3.0535  1.3492  0.0118
  142SAPE  C31115586   1.813   5.949   9.031 -1.1104 -0.2116 -0.2643
  142SAPE  H11X15587   1.742   5.901   9.102 -0.6060 -0.3529  0.1517
  142SAPE  H11Y15588   1.853   5.861   8.975 -0.7209 -1.1932  1.4802
  142SAPE  C31215589   1.740   6.046   8.935  0.0668 -0.2727  0.2891
  142SAPE  H12X15590   1.801   6.079   8.849 -1.2946  0.1772 -0.5239
  142SAPE  H12Y15591   1.722   6.138   8.995  0.0505 -0.8736  1.2420
  142SAPE  C31315592   1.609   5.982   8.895 -0.2895  0.2105 -0.7192
  142SAPE  H13X15593   1.531   5.998   8.973 -0.5768 -2.1769 -0.4255
  142SAPE  H13Y15594   1.626   5.877   8.865  0.7285  0.0935  0.2024
  142SAPE  C31415595   1.570   6.050   8.766 -0.1044 -0.6847 -0.4569
  142SAPE  H14X15596   1.639   6.018   8.685 -0.3458  0.6610 -1.2169
  142SAPE  H14Y15597   1.575   6.160   8.770 -0.0967 -0.6588 -1.1540
  142SAPE  C31515598   1.425   6.019   8.729 -0.6015 -0.0305  0.4174
  142SAPE  H15X15599   1.393   6.078   8.640 -0.5434 -1.1667 -0.3822
  142SAPE  H15Y15600   1.361   6.038   8.818 -0.1226  0.3928  0.6710
  142SAPE  C31615601   1.408   5.868   8.691  0.5466 -0.2041  0.5776
  142SAPE  H16X15602   1.382   5.807   8.781  3.1289 -1.2741  0.7079
  142SAPE  H16Y15603   1.510   5.833   8.664  0.6831  0.8169 -0.2770
  142SAPE  C31715604   1.307   5.827   8.586 -0.4151  0.6240  0.5862
  142SAPE  H17X15605   1.201   5.839   8.615 -0.8363  1.8237 -1.2898
  142SAPE  H17Y15606   1.324   5.719   8.569  0.3598  1.1523 -2.8393
  142SAPE  C31815607   1.333   5.886   8.445 -0.4364  0.0849 -0.3669
  142SAPE  H18X15608   1.282   5.833   8.361 -0.8645  0.1873 -0.1757
  142SAPE  H18Y15609   1.439   5.875   8.416 -0.2690 -0.0681  0.2800
  142SAPE  H18Z15610   1.307   5.992   8.464 -2.0573 -0.3422 -0.0127
  143SAPE     N15611   4.393   5.654  11.109 -0.0505 -0.1233 -0.0019
  143SAPE   HN115612   4.459   5.648  11.030  1.2126  2.9412  0.6683
  143SAPE   HN215613   4.304   5.662  11.056  1.0157  2.0256 -1.6378
  143SAPE   HN315614   4.410   5.744  11.159  0.7448 -0.5381  0.4820
  143SAPE   C1215615   4.371   5.543  11.203 -0.0646  0.0914 -0.0019
  143SAPE  H12A15616   4.281   5.568  11.262 -0.8388 -1.4061 -0.4879
  143SAPE  H12B15617   4.469   5.546  11.254 -0.2253  0.8788  0.2654
  143SAPE   C1115618   4.351   5.406  11.128 -0.7538 -0.3088  0.1781
  143SAPE  H11A15619   4.253   5.405  11.076 -0.6464 -0.1752 -0.0277
  143SAPE  H11B15620   4.354   5.320  11.199  1.1519  0.1364  0.6892
  143SAPE     P15621   4.593   5.354  11.037 -0.4669  0.2608 -0.1995
  143SAPE   O1315622   4.656   5.477  11.087  0.1793  0.1984  0.5057
  143SAPE   O1415623   4.607   5.235  11.117 -0.3610 -0.3478  0.1383
  143SAPE   O1215624   4.447   5.385  11.018  0.2829  0.2549 -0.1318
  143SAPE   O1115625   4.645   5.332  10.897  0.1496  0.0270  0.0350
  143SAPE    C115626   4.652   5.199  10.846 -0.4870 -0.0130  0.6198
  143SAPE    HA15627   4.759   5.183  10.820 -0.8797 -1.3234 -0.2774
  143SAPE    HB15628   4.614   5.120  10.913 -1.5614  1.0343  1.3003
  143SAPE    C215629   4.587   5.188  10.703 -0.1979  0.2362 -0.5330
  143SAPE    HS15630   4.643   5.107  10.652 -0.3035 -1.4925  1.9437
  143SAPE   O2115631   4.595   5.314  10.633  0.1194 -0.2689 -0.0560
  143SAPE   C2115632   4.701   5.339  10.560  0.2887 -0.0436  0.0551
  143SAPE   O2215633   4.805   5.274  10.565  0.1709 -0.2086 -0.8785
  143SAPE   C2215634   4.674   5.462  10.474 -0.0585 -0.3710  0.0422
  143SAPE   H2R15635   4.620   5.533  10.539  1.2452  0.1421  0.5978
  143SAPE   H2S15636   4.772   5.512  10.459 -1.4611  3.2694  1.9174
  143SAPE    C315637   4.437   5.147  10.712  0.0645 -0.8465 -0.3289
  143SAPE    HX15638   4.389   5.208  10.792 -1.4436 -0.8853 -1.1597
  143SAPE    HY15639   4.439   5.048  10.763 -1.2847  0.0087  1.5357
  143SAPE   O3115640   4.359   5.147  10.588 -0.1515  0.0431 -0.1226
  143SAPE   C3115641   4.388   5.045  10.506 -0.1086  0.2001 -0.1877
  143SAPE   O3215642   4.468   4.956  10.522  0.1079 -0.2344 -0.2828
  143SAPE   C3215643   4.293   5.051  10.391 -0.0312  0.7160 -0.1189
  143SAPE   H2X15644   4.286   5.154  10.349  1.0534 -0.2145 -2.8151
  143SAPE   H2Y15645   4.193   5.012  10.421 -0.4814  0.8382 -1.4254
  143SAPE   C2315646   4.587   5.421  10.346  0.0989  0.6940 -0.3116
  143SAPE   H3R15647   4.513   5.347  10.386  3.0468 -0.9269  2.6301
  143SAPE   H3S15648   4.646   5.359  10.275  0.9726  1.4437 -0.2460
  143SAPE   C2415649   4.526   5.537  10.285  0.0448 -0.2324 -0.2523
  143SAPE   H4R15650   4.600   5.620  10.296 -0.9032  0.3976  2.0021
  143SAPE   H4S15651   4.448   5.572  10.355  0.0099 -2.3024  0.8036
  143SAPE   C2515652   4.484   5.523  10.136  0.2290 -0.8858  0.9544
  143SAPE   H5R15653   4.571   5.492  10.077  1.9118 -1.6770  3.6687
  143SAPE   C2615654   4.358   5.538  10.083  0.5530  0.2317 -0.7905
  143SAPE   H6R15655   4.333   5.525   9.976 -1.7769  2.1105 -0.5533
  143SAPE   C2715656   4.237   5.588  10.160 -0.3535  0.1140  0.2369
  143SAPE   H7R15657   4.158   5.636  10.099 -0.1161  1.0335  0.6401
  143SAPE   H7S15658   4.260   5.671  10.230  0.7246 -1.2695  1.5770
  143SAPE   C2815659   4.185   5.469  10.230 -0.2624 -0.4146  0.6936
  143SAPE   H8R15660   4.200   5.456  10.338 -0.9668  0.5689  0.9238
  143SAPE   C2915661   4.112   5.367  10.179  0.7249  0.5437  0.1843
  143SAPE   H9R15662   4.094   5.286  10.251  1.8413 -1.8226 -2.0580
  143SAPE  C21015663   4.063   5.333  10.034  0.8557  0.2027 -0.5356
  143SAPE  H10R15664   4.072   5.427   9.975  1.1044  0.5563  0.0610
  143SAPE  H10S15665   3.954   5.310  10.033  0.8338  0.0497  1.3336
  143SAPE  C21115666   4.143   5.215   9.985  0.3762  0.3531  0.0666
  143SAPE  H11R15667   4.191   5.155  10.064  0.7707  0.3430 -0.1829
  143SAPE  C21215668   4.150   5.168   9.862  0.1880  1.0485 -0.1529
  143SAPE  H12R15669   4.231   5.097   9.839  0.1592  1.7560 -2.7472
  143SAPE  C21315670   4.097   5.234   9.736  0.7400  0.1094  0.8902
  143SAPE  H13R15671   4.154   5.184   9.655 -1.8895 -0.0832 -0.9765
  143SAPE  H13S15672   4.120   5.343   9.731 -0.2738  0.3636  1.4167
  143SAPE  C21415673   3.950   5.215   9.710 -0.3334  0.3067 -0.0256
  143SAPE  H14R15674   3.890   5.264   9.789 -0.9045  0.6244 -0.6496
  143SAPE  C21515675   3.876   5.160   9.613 -0.0035  0.3993  0.0010
  143SAPE  H15R15676   3.769   5.186   9.613 -0.4367 -1.2237  1.1192
  143SAPE  C21615677   3.928   5.084   9.492  0.0689  0.3543 -0.1604
  143SAPE  H16R15678   3.856   5.005   9.461 -0.1972 -0.4839  2.3696
  143SAPE  H16S15679   4.030   5.046   9.513 -0.2261  0.5864  1.8270
  143SAPE  C21715680   3.935   5.184   9.376 -0.0525  0.5398  1.0194
  143SAPE  H17R15681   4.013   5.259   9.401  0.1046  1.0592 -0.9164
  143SAPE  H17S15682   3.840   5.237   9.352  0.4281  1.9664  2.1091
  143SAPE  C21815683   3.977   5.102   9.247  0.2676 -0.2884  0.1629
  143SAPE  H18R15684   3.889   5.036   9.228 -0.0487 -0.5305  2.1831
  143SAPE  H18S15685   4.065   5.041   9.275  2.6096  3.3486  1.3882
  143SAPE  C21915686   3.989   5.177   9.119  0.5376  0.3551 -0.1397
  143SAPE  H19R15687   4.023   5.113   9.035  1.4673  1.1730 -0.4048
  143SAPE  H19S15688   4.064   5.259   9.115 -0.3254  1.1001 -1.6328
  143SAPE  C22015689   3.851   5.231   9.073 -0.7121 -0.2886  0.0352
  143SAPE  H20R15690   3.864   5.333   9.031 -1.3474 -0.3321 -0.2723
  143SAPE  H20S15691   3.787   5.250   9.161 -0.3955 -0.0645  0.2204
  143SAPE  H20T15692   3.807   5.157   9.003 -1.9870 -0.7348  1.2719
  143SAPE   C3315693   4.355   4.960  10.273  0.0790  0.3456  0.5951
  143SAPE   H3X15694   4.273   4.951  10.198 -1.7206  0.8034  2.4380
  143SAPE   H3Y15695   4.368   4.858  10.314 -2.7144 -0.3116  0.0751
  143SAPE   C3415696   4.487   5.022  10.202 -0.1323 -0.5126 -0.2172
  143SAPE   H4X15697   4.565   5.037  10.280 -1.4486  0.6725  0.9377
  143SAPE   H4Y15698   4.461   5.123  10.164 -1.2282  0.0113  1.7571
  143SAPE   C3515699   4.520   4.936  10.083 -0.1476 -0.3434  0.7303
  143SAPE   H5X15700   4.430   4.940  10.017  1.2955  1.4545 -1.2994
  143SAPE   H5Y15701   4.544   4.837  10.127  1.3780 -2.0214 -3.3779
  143SAPE   C3615702   4.645   4.990  10.019  0.3610 -0.3900 -0.4925
  143SAPE   H6X15703   4.721   4.973  10.099 -1.3095 -0.8380  1.0524
  143SAPE   H6Y15704   4.629   5.099  10.006 -2.4515 -0.9059 -2.1264
  143SAPE   C3715705   4.683   4.925   9.887  0.6446  0.3103  0.2031
  143SAPE   H7X15706   4.663   4.817   9.905 -0.6994  0.6308  0.7527
  143SAPE   H7Y15707   4.793   4.933   9.875  0.7056  0.2423  0.7026
  143SAPE   C3815708   4.598   4.963   9.764 -0.1180  0.3263  0.4205
  143SAPE   H8X15709   4.635   5.066   9.743 -0.1060  0.5219  1.3480
  143SAPE   H8Y15710   4.489   4.955   9.786 -0.2631 -2.5683 -0.9257
  143SAPE   C3915711   4.625   4.877   9.642 -0.2193  0.2810  0.5167
  143SAPE   H9X15712   4.585   4.775   9.660  0.0394  0.1453  0.3243
  143SAPE   H9Y15713   4.736   4.872   9.637 -0.0829  1.6727  1.4989
  143SAPE  C31015714   4.562   4.933   9.512 -0.5805  0.6257 -0.0569
  143SAPE  H10X15715   4.587   5.041   9.516  0.6946  0.3312  2.5296
  143SAPE  H10Y15716   4.454   4.909   9.517 -1.2601  2.7451 -2.5296
  143SAPE  C31115717   4.609   4.874   9.375 -0.7191 -1.0905  1.0335
  143SAPE  H11X15718   4.610   4.763   9.384 -0.4261 -1.2349 -0.5170
  143SAPE  H11Y15719   4.713   4.913   9.363 -1.1617  0.1414  1.1146
  143SAPE  C31215720   4.518   4.898   9.254 -0.2045  0.0682  0.3226
  143SAPE  H12X15721   4.418   4.855   9.274  0.5825 -0.9784  2.3256
  143SAPE  H12Y15722   4.562   4.855   9.162 -2.1122 -0.2591 -0.4680
  143SAPE  C31315723   4.489   5.049   9.236 -0.7608 -0.2258 -0.9377
  143SAPE  H13X15724   4.589   5.098   9.239  0.6039 -2.8688 -0.9678
  143SAPE  H13Y15725   4.430   5.081   9.325 -2.3597 -2.0904 -1.2678
  143SAPE  C31415726   4.406   5.094   9.115 -0.3308  0.4954 -0.6389
  143SAPE  H14X15727   4.371   5.198   9.133 -0.4374  1.0457 -3.5423
  143SAPE  H14Y15728   4.318   5.029   9.101 -1.3882  1.5856  0.6772
  143SAPE  C31515729   4.477   5.101   8.978  0.2122  0.8615  0.3071
  143SAPE  H15X15730   4.492   4.997   8.942 -0.1334  1.1789 -0.7852
  143SAPE  H15Y15731   4.572   5.158   8.976  0.7544  0.0640  2.0332
  143SAPE  C31615732   4.383   5.165   8.881 -0.5862 -0.2571  0.3139
  143SAPE  H16X15733   4.369   5.275   8.888 -0.2182 -0.0306 -1.9425
  143SAPE  H16Y15734   4.288   5.109   8.898 -0.3780 -0.4358  0.8957
  143SAPE  C31715735   4.428   5.141   8.737 -0.5083  0.9591 -0.3164
  143SAPE  H17X15736   4.352   5.189   8.672 -0.1662  3.6338  1.1176
  143SAPE  H17Y15737   4.448   5.035   8.713 -1.7694  0.2428  1.5406
  143SAPE  C31815738   4.546   5.230   8.703 -0.5998  0.8872  0.5648
  143SAPE  H18X15739   4.547   5.225   8.592 -1.2111 -0.1312  0.5859
  143SAPE  H18Y15740   4.645   5.194   8.739  0.4147  0.8707 -2.0215
  143SAPE  H18Z15741   4.533   5.336   8.732 -0.2061  1.0541  0.1476
  144SAPE     N15742   1.003   2.982  10.539 -0.3210  0.2430  0.5949
  144SAPE   HN115743   1.082   3.038  10.576  0.7686 -0.8827  0.0560
  144SAPE   HN215744   1.014   2.890  10.587 -3.3669 -0.7593 -0.3767
  144SAPE   HN315745   1.024   2.974  10.437  0.0479  1.7392  0.5255
  144SAPE   C1215746   0.867   3.035  10.572 -0.3733  0.0458  0.0510
  144SAPE  H12A15747   0.852   3.019  10.680  1.9605  1.2135  0.6200
  144SAPE  H12B15748   0.782   2.986  10.520  0.0360 -0.6206 -0.0017
  144SAPE   C1115749   0.852   3.179  10.513 -0.3516  0.8766  0.0001
  144SAPE  H11A15750   0.840   3.173  10.403 -0.0037  0.4111 -0.0144
  144SAPE  H11B15751   0.950   3.228  10.535  0.2637 -1.0897  1.9430
  144SAPE     P15752   0.759   3.413  10.600 -0.1249  0.3631 -0.1322
  144SAPE   O1315753   0.626   3.471  10.576 -0.4123  0.3950  0.1700
  144SAPE   O1415754   0.821   3.431  10.736 -0.3125  0.1477  0.3352
  144SAPE   O1215755   0.746   3.257  10.575 -0.1351 -0.6433  0.1896
  144SAPE   O1115756   0.853   3.470  10.489  0.1845 -0.2367  0.0793
  144SAPE    C115757   0.939   3.581  10.517 -0.3670 -0.3649 -0.1082
  144SAPE    HA15758   0.885   3.676  10.532  0.6166  0.7731 -3.1193
  144SAPE    HB15759   1.001   3.574  10.610 -0.4752 -0.1727 -0.0213
  144SAPE    C215760   1.039   3.606  10.402  0.1169  0.0467  0.2181
  144SAPE    HS15761   1.097   3.696  10.429 -0.1062  0.8141 -1.6997
  144SAPE   O2115762   0.967   3.635  10.278 -0.4920  0.4765 -0.1522
  144SAPE   C2115763   0.918   3.757  10.272  0.2717  0.6621 -0.6162
  144SAPE   O2215764   0.924   3.837  10.365 -0.0559  0.1529 -0.1009
  144SAPE   C2215765   0.839   3.764  10.141  0.4657  0.2221  0.1181
  144SAPE   H2R15766   0.763   3.683  10.143 -0.7765  1.2533 -1.6136
  144SAPE   H2S15767   0.786   3.861  10.148 -0.6854 -0.4800  1.9347
  144SAPE    C315768   1.131   3.490  10.375 -0.5606  0.1502  0.1989
  144SAPE    HX15769   1.075   3.395  10.361  1.1258 -0.6638 -1.4127
  144SAPE    HY15770   1.197   3.481  10.464  0.1963 -0.7277 -0.4405
  144SAPE   O3115771   1.216   3.517  10.264  0.0982  0.2127 -0.0851
  144SAPE   C3115772   1.182   3.477  10.142  0.6391  0.3920  0.3075
  144SAPE   O3215773   1.079   3.416  10.117 -0.7553  0.0976  0.2568
  144SAPE   C3215774   1.288   3.525  10.040  0.1977 -0.1062 -0.2804
  144SAPE   H2X15775   1.377   3.469  10.077  0.2026  1.2319  1.9291
  144SAPE   H2Y15776   1.313   3.630  10.064  0.0098 -0.1566  0.1578
  144SAPE   C2315777   0.930   3.772  10.012 -0.1381 -0.1648 -0.3925
  144SAPE   H3R15778   0.985   3.676  10.006  0.4151 -0.0335  1.6774
  144SAPE   H3S15779   1.001   3.858  10.013 -0.6768  0.3105 -1.3952
  144SAPE   C2415780   0.854   3.776   9.870 -0.2340 -0.1463 -0.7396
  144SAPE   H4R15781   0.770   3.703   9.867 -1.1128  0.7998  0.2957
  144SAPE   H4S15782   0.938   3.741   9.805  0.8289 -0.8541  0.9464
  144SAPE   C2515783   0.789   3.904   9.829  0.2400 -0.2067 -0.6457
  144SAPE   H5R15784   0.736   3.959   9.909  1.0484 -2.2412  1.4143
  144SAPE   C2615785   0.789   3.956   9.701 -0.6676 -0.0540 -1.1686
  144SAPE   H6R15786   0.731   4.047   9.678 -2.0108 -0.7800 -0.7810
  144SAPE   C2715787   0.859   3.911   9.579  0.0518 -0.2100  0.3571
  144SAPE   H7R15788   0.921   3.819   9.583 -0.1417 -0.5961 -2.8520
  144SAPE   H7S15789   0.924   3.995   9.545 -0.4243 -0.6439 -1.7769
  144SAPE   C2815790   0.763   3.875   9.466 -0.2061  0.8052 -0.7579
  144SAPE   H8R15791   0.675   3.817   9.499  0.2679  1.8144  2.7822
  144SAPE   C2915792   0.775   3.921   9.340  0.5043 -0.4600  0.2198
  144SAPE   H9R15793   0.700   3.881   9.271 -0.2417 -0.2375  0.8762
  144SAPE  C21015794   0.885   4.009   9.293  0.5108 -0.0143  0.6089
  144SAPE  H10R15795   0.982   3.956   9.278  0.1024 -0.6364  0.0520
  144SAPE  H10S15796   0.907   4.089   9.366  0.7208  0.3399  0.1638
  144SAPE  C21115797   0.842   4.072   9.163 -0.4426 -0.1992  0.9790
  144SAPE  H11R15798   0.749   4.130   9.166 -1.7854 -2.0950 -1.0105
  144SAPE  C21215799   0.891   4.063   9.041  0.0405  0.3585 -0.3749
  144SAPE  H12R15800   0.858   4.141   8.972  0.2565  0.3576 -0.4795
  144SAPE  C21315801   1.019   3.981   9.021  0.3958 -0.4166  0.3583
  144SAPE  H13R15802   1.012   3.895   9.091  1.9191  0.6907  1.9541
  144SAPE  H13S15803   1.109   4.041   9.045  0.3240 -0.6917  1.3553
  144SAPE  C21415804   1.031   3.918   8.887 -0.1583  0.4989 -0.3064
  144SAPE  H14R15805   1.013   3.810   8.889  0.8018  0.3063 -1.0179
  144SAPE  C21515806   1.071   3.970   8.768 -0.3596 -0.2338 -1.1139
  144SAPE  H15R15807   1.074   3.912   8.675  1.2985  0.3382 -1.4604
  144SAPE  C21615808   1.103   4.113   8.750  0.4532 -0.1593  0.4056
  144SAPE  H16R15809   1.067   4.175   8.835 -1.0819 -3.0270  2.0055
  144SAPE  H16S15810   1.058   4.148   8.654 -0.4747 -0.2659  0.7858
  144SAPE  C21715811   1.254   4.133   8.743 -0.2703  0.4023  0.1898
  144SAPE  H17R15812   1.299   4.078   8.829 -1.8772 -2.7827 -0.8689
  144SAPE  H17S15813   1.285   4.240   8.747 -1.0214  0.6833 -1.0915
  144SAPE  C21815814   1.326   4.075   8.618  0.7844 -0.2231 -0.4314
  144SAPE  H18R15815   1.320   3.964   8.630  1.1112 -0.1517  0.5337
  144SAPE  H18S15816   1.435   4.096   8.612  1.4698 -3.2819 -0.7584
  144SAPE  C21915817   1.262   4.121   8.488  0.2507 -0.9044  0.3529
  144SAPE  H19R15818   1.258   4.232   8.487 -0.8368 -0.8870 -2.7479
  144SAPE  H19S15819   1.154   4.094   8.484 -0.5243  1.9266 -0.2269
  144SAPE  C22015820   1.331   4.080   8.360  0.7527 -0.1721 -0.8302
  144SAPE  H20R15821   1.266   4.095   8.271  1.1073  0.6237 -0.9602
  144SAPE  H20S15822   1.348   3.970   8.362  0.1334 -0.3108 -2.1575
  144SAPE  H20T15823   1.427   4.134   8.360  1.2854 -1.0126  1.0897
  144SAPE   C3315824   1.262   3.502   9.887 -0.1098 -0.1806 -0.2826
  144SAPE   H3X15825   1.198   3.575   9.832 -2.2830 -1.5121  0.3820
  144SAPE   H3Y15826   1.207   3.407   9.870 -1.8944  1.1406 -2.4851
  144SAPE   C3415827   1.400   3.485   9.815  0.8801 -0.3589  0.2856
  144SAPE   H4X15828   1.451   3.395   9.854 -1.9039 -1.9324  0.5299
  144SAPE   H4Y15829   1.455   3.578   9.842 -0.3960  0.5415 -0.1307
  144SAPE   C3515830   1.366   3.475   9.664  0.6545 -0.4556 -0.0836
  144SAPE   H5X15831   1.327   3.567   9.615  0.6734 -0.9632 -1.0853
  144SAPE   H5Y15832   1.280   3.404   9.662 -0.4247  0.5250  3.5517
  144SAPE   C3615833   1.490   3.414   9.599  0.6932  0.5802  0.3954
  144SAPE   H6X15834   1.494   3.313   9.645  0.5145  1.4924  2.5316
  144SAPE   H6Y15835   1.583   3.470   9.619  0.4713  0.5580  1.5327
  144SAPE   C3715836   1.461   3.400   9.445 -0.4149  0.6761  0.2023
  144SAPE   H7X15837   1.419   3.500   9.419 -2.7885  0.2947  2.2072
  144SAPE   H7Y15838   1.383   3.323   9.426  2.0296 -2.0308  0.4590
  144SAPE   C3815839   1.585   3.383   9.359 -0.4298  0.4886  0.0407
  144SAPE   H8X15840   1.641   3.288   9.375 -1.7699 -0.1509  1.1637
  144SAPE   H8Y15841   1.654   3.464   9.393 -1.0485  1.3392 -0.7026
  144SAPE   C3915842   1.545   3.399   9.215 -0.0371 -0.3002  0.2462
  144SAPE   H9X15843   1.495   3.498   9.206 -3.2220 -1.5937  2.2718
  144SAPE   H9Y15844   1.463   3.327   9.198 -1.3778  1.7437 -2.7662
  144SAPE  C31015845   1.651   3.371   9.110  0.3950  0.0294 -0.6559
  144SAPE  H10X15846   1.701   3.273   9.124  0.4942 -0.2599 -2.7443
  144SAPE  H10Y15847   1.735   3.444   9.120  0.9172 -0.1763 -2.9936
  144SAPE  C31115848   1.592   3.391   8.971 -0.2291  0.0710 -0.0513
  144SAPE  H11X15849   1.556   3.495   8.953 -1.9421 -0.6178 -0.8245
  144SAPE  H11Y15850   1.500   3.329   8.964 -1.1176  0.9783  2.4600
  144SAPE  C31215851   1.698   3.354   8.864 -0.4474  0.4168  0.2291
  144SAPE  H12X15852   1.713   3.245   8.874 -0.4512  0.3543 -0.4098
  144SAPE  H12Y15853   1.798   3.402   8.872 -1.2811  2.6907 -1.4809
  144SAPE  C31315854   1.637   3.389   8.727  0.7526 -0.3735  0.7985
  144SAPE  H13X15855   1.625   3.498   8.713  0.0610 -0.7499 -2.1182
  144SAPE  H13Y15856   1.534   3.350   8.710 -0.0876  1.4850  1.3428
  144SAPE  C31415857   1.736   3.352   8.612 -0.0034  0.2033  0.2936
  144SAPE  H14X15858   1.765   3.245   8.625 -0.2769  0.1093  0.1310
  144SAPE  H14Y15859   1.824   3.414   8.639 -1.1449  1.5801  0.9201
  144SAPE  C31515860   1.705   3.382   8.464 -0.0199 -0.5271 -0.4239
  144SAPE  H15X15861   1.625   3.313   8.429 -0.9481  0.2090  0.2296
  144SAPE  H15Y15862   1.786   3.345   8.396  1.1082  0.2164  0.4873
  144SAPE  C31615863   1.689   3.527   8.428 -0.2306 -0.8417  0.1366
  144SAPE  H16X15864   1.783   3.571   8.468 -1.0109  0.3512  0.7254
  144SAPE  H16Y15865   1.602   3.565   8.485 -0.7025  2.0605 -2.2622
  144SAPE  C31715866   1.673   3.563   8.276 -0.2755  0.1345  0.2845
  144SAPE  H17X15867   1.575   3.614   8.264 -0.5619 -0.3518  0.5515
  144SAPE  H17Y15868   1.651   3.471   8.219  1.6117  1.0862 -2.1571
  144SAPE  C31815869   1.785   3.637   8.208  0.1158  0.3452 -0.1975
  144SAPE  H18X15870   1.829   3.712   8.279  1.9554 -0.6627 -0.2000
  144SAPE  H18Y15871   1.753   3.701   8.123  1.0736  0.2399 -0.6524
  144SAPE  H18Z15872   1.857   3.558   8.178  0.0584  0.3454 -0.3371
  145SAPE     N15873   4.963   5.879  11.040 -0.5682  0.6097 -0.6212
  145SAPE   HN115874   4.996   5.928  10.954 -3.0690  1.4459 -1.1930
  145SAPE   HN215875   5.045   5.843  11.092 -1.2160 -0.8253 -0.5508
  145SAPE   HN315876   4.904   5.797  11.013 -0.3825  0.8793 -1.9510
  145SAPE   C1215877   4.867   5.972  11.110  0.0660 -0.3177  0.3200
  145SAPE  H12A15878   4.930   6.044  11.165  0.4263 -0.6245  0.3181
  145SAPE  H12B15879   4.807   5.913  11.183  0.4778 -0.1319  0.8115
  145SAPE   C1115880   4.775   6.048  11.010  0.0500 -0.2391 -0.2924
  145SAPE  H11A15881   4.832   6.134  10.969  1.6933 -1.5333 -0.8193
  145SAPE  H11B15882   4.694   6.090  11.074 -0.2959  1.1572 -1.5775
  145SAPE     P15883   4.597   5.894  10.910  0.3370 -0.1322  0.1520
  145SAPE   O1315884   4.623   5.754  10.927  0.1645 -0.0005 -0.4161
  145SAPE   O1415885   4.499   5.954  11.008  0.0607  0.5623  0.4330
  145SAPE   O1215886   4.732   5.968  10.901 -0.6283  0.2414 -0.0325
  145SAPE   O1115887   4.535   5.932  10.773 -0.1105 -0.0083  0.6858
  145SAPE    C115888   4.533   6.061  10.713 -0.2862 -0.3978 -0.0989
  145SAPE    HA15889   4.436   6.109  10.739 -0.0945  0.2825 -0.6196
  145SAPE    HB15890   4.613   6.131  10.745  2.0628 -1.2393 -3.6699
  145SAPE    C215891   4.523   6.045  10.565  0.3612  0.2144  0.4705
  145SAPE    HS15892   4.624   6.032  10.520  0.7304 -1.7749  1.7227
  145SAPE   O2115893   4.461   6.164  10.512 -0.4986 -0.3194  0.0498
  145SAPE   C2115894   4.535   6.277  10.513 -0.2868 -0.3305  0.7211
  145SAPE   O2215895   4.653   6.279  10.547 -0.1543 -0.0053 -0.0341
  145SAPE   C2215896   4.468   6.399  10.460  0.1770 -1.1114  0.7421
  145SAPE   H2R15897   4.430   6.387  10.356  0.5192  2.2730  0.1338
  145SAPE   H2S15898   4.378   6.408  10.525 -0.0278 -2.0150  0.5995
  145SAPE    C315899   4.439   5.918  10.520  0.2728  0.4836  0.6582
  145SAPE    HX15900   4.330   5.925  10.545  0.1313 -1.5368  0.7768
  145SAPE    HY15901   4.475   5.830  10.577  0.3329  0.8246  1.1551
  145SAPE   O3115902   4.450   5.883  10.380 -0.1481 -0.3827  1.0560
  145SAPE   C3115903   4.376   5.955  10.294  0.0533 -1.1957  0.0536
  145SAPE   O3215904   4.280   6.027  10.324 -0.3034  0.0942 -0.0158
  145SAPE   C3215905   4.408   5.919  10.150 -0.1227 -0.1558  0.1913
  145SAPE   H2X15906   4.421   5.809  10.142 -1.6381 -0.2553 -1.6565
  145SAPE   H2Y15907   4.504   5.964  10.117  0.4612  1.0579  3.1429
  145SAPE   C2315908   4.550   6.528  10.471 -0.0402  0.2345  0.1918
  145SAPE   H3R15909   4.643   6.507  10.413 -0.5860 -1.7153 -0.0383
  145SAPE   H3S15910   4.585   6.543  10.575 -0.1013  0.4954  0.1759
  145SAPE   C2415911   4.496   6.655  10.394 -0.1230 -1.3709 -0.5630
  145SAPE   H4R15912   4.566   6.738  10.418 -1.0276 -1.0566  1.1479
  145SAPE   H4S15913   4.409   6.678  10.459  1.9268 -0.9614  2.2511
  145SAPE   C2515914   4.470   6.651  10.243 -0.0336  0.1181  0.1912
  145SAPE   H5R15915   4.375   6.604  10.215  0.8932 -1.3957 -0.5631
  145SAPE   C2615916   4.546   6.690  10.142  0.7710 -0.4152  0.2322
  145SAPE   H6R15917   4.509   6.662  10.043 -0.1680 -0.3861  0.5586
  145SAPE   C2715918   4.681   6.755  10.146  0.1964  0.2519 -0.0719
  145SAPE   H7R15919   4.730   6.739  10.244 -0.3042  0.5866  0.2363
  145SAPE   H7S15920   4.692   6.864  10.126  3.0508 -0.0732 -0.7492
  145SAPE   C2815921   4.760   6.679  10.045 -0.3846  0.2444  0.5935
  145SAPE   H8R15922   4.819   6.601  10.095 -1.3133 -1.5476 -0.9967
  145SAPE   C2915923   4.781   6.715   9.920  1.3211  0.3138  0.4588
  145SAPE   H9R15924   4.821   6.645   9.845  2.2237  1.3316 -0.0246
  145SAPE  C21015925   4.718   6.838   9.852  0.1937  0.1203 -0.2965
  145SAPE  H10R15926   4.764   6.932   9.888 -0.2277  0.7262 -1.3180
  145SAPE  H10S15927   4.618   6.849   9.898  0.8574 -1.3602  1.6835
  145SAPE  C21115928   4.708   6.825   9.699 -0.8759 -0.0947 -0.2884
  145SAPE  H11R15929   4.776   6.885   9.637 -1.8136  0.8922 -0.3873
  145SAPE  C21215930   4.633   6.731   9.637  0.6081  0.7394 -0.4600
  145SAPE  H12R15931   4.626   6.731   9.527  0.7455  0.7942 -0.4679
  145SAPE  C21315932   4.540   6.623   9.699 -0.1306  0.2052  0.1167
  145SAPE  H13R15933   4.437   6.630   9.660 -1.2162 -0.0081  2.7370
  145SAPE  H13S15934   4.527   6.639   9.808 -1.1267  3.6714 -0.4114
  145SAPE  C21415935   4.596   6.486   9.668  0.4167  0.0766  0.4841
  145SAPE  H14R15936   4.642   6.482   9.569 -2.1469  2.1189 -0.9138
  145SAPE  C21515937   4.592   6.377   9.752 -0.2875  0.4885  0.4532
  145SAPE  H15R15938   4.634   6.280   9.721 -1.7497 -0.7101  2.0744
  145SAPE  C21615939   4.504   6.363   9.871 -0.0432 -0.3976  0.3373
  145SAPE  H16R15940   4.440   6.272   9.871  0.6857 -0.9841  2.9137
  145SAPE  H16S15941   4.430   6.446   9.878 -0.6767 -0.9573  0.3937
  145SAPE  C21715942   4.589   6.361   9.999 -0.0640  0.6678  0.2003
  145SAPE  H17R15943   4.519   6.394  10.078 -0.8939 -0.0257 -0.2272
  145SAPE  H17S15944   4.672   6.436  10.002 -1.5658  2.3907  0.3714
  145SAPE  C21815945   4.627   6.208  10.029 -0.7676 -0.9540 -0.1632
  145SAPE  H18R15946   4.709   6.189   9.957 -1.1442  1.5379 -1.3596
  145SAPE  H18S15947   4.539   6.145  10.001  0.3560 -1.6286 -2.4049
  145SAPE  C21915948   4.672   6.181  10.174 -0.4099  0.4979 -0.0043
  145SAPE  H19R15949   4.702   6.074  10.181 -2.8648 -0.3214 -0.7884
  145SAPE  H19S15950   4.579   6.185  10.235 -0.3516 -2.8488  0.5054
  145SAPE  C22015951   4.786   6.264  10.238  0.0990  0.0909  0.5836
  145SAPE  H20R15952   4.878   6.261  10.176 -0.3941  1.6617 -0.2701
  145SAPE  H20S15953   4.832   6.220  10.329  1.4098 -0.6196 -0.3797
  145SAPE  H20T15954   4.752   6.366  10.263 -4.0507 -0.7024 -1.0230
  145SAPE   C3315955   4.297   5.971  10.052 -0.0091 -0.1893  0.3061
  145SAPE   H3X15956   4.280   6.080  10.053  0.1988 -0.1351  2.1906
  145SAPE   H3Y15957   4.196   5.936  10.082 -1.6519  0.7545 -3.5858
  145SAPE   C3415958   4.324   5.921   9.907 -0.3717  0.5468  0.3390
  145SAPE   H4X15959   4.327   5.810   9.903  1.3654  0.5468  1.0795
  145SAPE   H4Y15960   4.425   5.960   9.884 -1.0566  1.6575 -0.9212
  145SAPE   C3515961   4.212   5.964   9.814 -0.4498  0.7600  1.4769
  145SAPE   H5X15962   4.205   6.075   9.825  1.2097  0.8551  1.8839
  145SAPE   H5Y15963   4.113   5.922   9.840 -0.8118  0.1526 -0.7013
  145SAPE   C3615964   4.233   5.924   9.671 -0.7235 -0.0278  0.8436
  145SAPE   H6X15965   4.134   5.926   9.620 -0.1841 -0.7885 -0.2963
  145SAPE   H6Y15966   4.273   5.820   9.674  0.9138  0.6062  2.1878
  145SAPE   C3715967   4.347   6.001   9.596  0.0256 -0.0251  0.1229
  145SAPE   H7X15968   4.439   5.951   9.632 -0.3482 -0.1212  0.9736
  145SAPE   H7Y15969   4.353   6.106   9.631 -1.8346 -0.4398  1.9100
  145SAPE   C3815970   4.328   5.982   9.442 -0.1630 -0.4974  0.5821
  145SAPE   H8X15971   4.243   6.041   9.401 -0.3260 -0.4579  0.9723
  145SAPE   H8Y15972   4.317   5.874   9.418  1.0755 -0.0797 -2.2598
  145SAPE   C3915973   4.457   6.007   9.364 -0.0557  0.2437  0.3001
  145SAPE   H9X15974   4.526   5.921   9.379 -0.9987 -0.4150  1.0162
  145SAPE   H9Y15975   4.498   6.106   9.393 -1.0094  0.6954  0.1202
  145SAPE  C31015976   4.426   6.001   9.212  0.1276  0.4818 -0.1099
  145SAPE  H10X15977   4.333   6.060   9.200 -0.3166  0.3760  2.3417
  145SAPE  H10Y15978   4.411   5.899   9.170  3.2575  0.2836 -1.0048
  145SAPE  C31115979   4.538   6.062   9.129 -1.2569 -0.1906 -0.3809
  145SAPE  H11X15980   4.636   6.009   9.127 -1.1456  0.0301 -2.0379
  145SAPE  H11Y15981   4.558   6.166   9.162 -0.7188 -0.5707  0.5276
  145SAPE  C31215982   4.495   6.073   8.982 -0.0241  0.3473  0.3671
  145SAPE  H12X15983   4.393   6.116   8.993 -1.0695 -2.2263  1.5022
  145SAPE  H12Y15984   4.484   5.974   8.933  2.1583  0.4268 -0.3975
  145SAPE  C31315985   4.578   6.169   8.890  0.0603  0.1156 -0.0541
  145SAPE  H13X15986   4.682   6.131   8.894  0.2271  0.6378  2.7026
  145SAPE  H13Y15987   4.574   6.272   8.931  0.5829 -0.0836  0.5173
  145SAPE  C31415988   4.522   6.151   8.747 -0.3318 -0.0893  0.1690
  145SAPE  H14X15989   4.500   6.044   8.729 -0.5112 -0.0904  0.3908
  145SAPE  H14Y15990   4.600   6.186   8.677 -0.6230  2.0698  0.8146
  145SAPE  C31515991   4.389   6.224   8.714 -0.2030  0.0131 -0.8513
  145SAPE  H15X15992   4.399   6.334   8.708  0.2899  0.0473  0.1726
  145SAPE  H15Y15993   4.320   6.208   8.799  1.3701  0.6533  0.6174
  145SAPE  C31615994   4.330   6.178   8.580  0.0811 -0.2381 -0.8616
  145SAPE  H16X15995   4.330   6.068   8.586  0.4810 -0.2177 -0.4184
  145SAPE  H16Y15996   4.393   6.200   8.491 -0.1255 -1.4400 -1.3148
  145SAPE  C31715997   4.179   6.217   8.573 -0.3924 -0.4114  1.4449
  145SAPE  H17X15998   4.182   6.328   8.566 -0.4148 -0.4935 -0.0389
  145SAPE  H17Y15999   4.116   6.183   8.658  0.2119 -0.5885  1.8269
  145SAPE  C31816000   4.119   6.163   8.441  0.2649  0.4354 -0.2762
  145SAPE  H18X16001   4.037   6.229   8.403 -0.1018 -1.1100 -2.3789
  145SAPE  H18Y16002   4.076   6.062   8.457  3.1589 -0.9470 -0.5427
  145SAPE  H18Z16003   4.190   6.149   8.357  0.0900 -1.3746 -0.1592
  146SAPE     N16004   1.262   4.622  10.925  0.0639 -0.9957  0.2748
  146SAPE   HN116005   1.226   4.556  10.854 -1.5367 -1.2662  1.2911
  146SAPE   HN216006   1.304   4.565  11.001  0.5321 -0.2057  0.6230
  146SAPE   HN316007   1.183   4.667  10.976 -0.4904 -1.8453  0.1795
  146SAPE   C1216008   1.378   4.703  10.879 -0.4506 -0.4941 -0.1465
  146SAPE  H12A16009   1.434   4.734  10.970  0.5108 -3.2320  0.3020
  146SAPE  H12B16010   1.343   4.792  10.824  0.8602  0.2902  0.2481
  146SAPE   C1116011   1.460   4.624  10.776 -0.2153  0.5339 -0.2107
  146SAPE  H11A16012   1.544   4.692  10.752 -1.9404  3.6274  1.7770
  146SAPE  H11B16013   1.400   4.611  10.683  0.2698  0.6400 -0.5410
  146SAPE     P16014   1.658   4.472  10.857  0.2740  0.1133 -0.1769
  146SAPE   O1316015   1.728   4.588  10.916  0.0240  0.0267  0.0611
  146SAPE   O1416016   1.673   4.340  10.922 -0.4119 -0.1853 -0.0829
  146SAPE   O1216017   1.507   4.498  10.827 -0.1370 -0.1838 -0.4570
  146SAPE   O1116018   1.715   4.460  10.714  0.1906 -0.1414 -0.1015
  146SAPE    C116019   1.663   4.372  10.615  0.3708 -1.0661 -0.2980
  146SAPE    HA16020   1.709   4.272  10.632  0.5381 -1.2318 -1.6394
  146SAPE    HB16021   1.555   4.351  10.621  0.2110 -0.2963 -0.3571
  146SAPE    C216022   1.681   4.424  10.472 -0.0659  0.0129 -0.0406
  146SAPE    HS16023   1.612   4.376  10.399  1.1162  1.4159 -2.1734
  146SAPE   O2116024   1.818   4.414  10.424  0.2254 -0.5453 -0.7091
  146SAPE   C2116025   1.844   4.289  10.402 -0.3254  0.2317  1.0537
  146SAPE   O2216026   1.773   4.195  10.421  0.0902  0.6327 -0.0498
  146SAPE   C2216027   1.994   4.277  10.369 -0.2400  1.1511  0.0871
  146SAPE   H2R16028   2.024   4.356  10.298  2.1050  2.0944  1.9917
  146SAPE   H2S16029   2.056   4.297  10.459 -0.4327  0.8424  0.2947
  146SAPE    C316030   1.637   4.570  10.462 -0.4382  0.3124  0.3514
  146SAPE    HX16031   1.690   4.630  10.538 -0.6715  1.5440 -0.4276
  146SAPE    HY16032   1.530   4.577  10.491 -0.7072 -2.6088  0.3962
  146SAPE   O3116033   1.664   4.629  10.328 -0.1894  0.0378 -0.5502
  146SAPE   C3116034   1.556   4.685  10.272 -0.0699 -0.9874 -0.7678
  146SAPE   O3216035   1.444   4.700  10.320  0.0219  0.0727  0.0413
  146SAPE   C3216036   1.599   4.747  10.142  1.5501  0.1972 -0.4820
  146SAPE   H2X16037   1.639   4.848  10.167  0.8494  0.6034 -0.9728
  146SAPE   H2Y16038   1.504   4.765  10.087 -0.2207  0.3728  2.4435
  146SAPE   C2316039   2.022   4.138  10.308  0.1476 -0.0228  0.4521
  146SAPE   H3R16040   1.975   4.057  10.367 -0.6534  0.6532  0.7572
  146SAPE   H3S16041   2.132   4.121  10.305 -0.1262 -1.9613 -0.3804
  146SAPE   C2416042   1.974   4.137  10.164  0.0982  0.5568  0.0916
  146SAPE   H4R16043   2.044   4.195  10.100 -1.0566 -0.4369 -2.2163
  146SAPE   H4S16044   1.870   4.174  10.151  0.3229  0.7212 -1.4001
  146SAPE   C2516045   1.983   4.000  10.103 -0.2433  0.3606 -0.2425
  146SAPE   H5R16046   1.926   3.918  10.148  2.4984 -3.2521 -2.7746
  146SAPE   C2616047   2.032   3.963   9.981  0.3368  0.1973  0.6214
  146SAPE   H6R16048   2.021   3.861   9.941 -0.2013 -0.2222  1.7645
  146SAPE   C2716049   2.102   4.056   9.887 -0.7446  0.2662  0.1137
  146SAPE   H7R16050   2.184   4.103   9.946 -0.9188  0.6333  0.0702
  146SAPE   H7S16051   2.031   4.136   9.856 -0.8475 -0.1097 -0.6165
  146SAPE   C2816052   2.167   3.986   9.773  0.4289  0.6547  0.0529
  146SAPE   H8R16053   2.249   3.918   9.802 -0.5218 -0.9295 -0.8241
  146SAPE   C2916054   2.139   4.006   9.642 -0.1411 -0.0314  0.4016
  146SAPE   H9R16055   2.189   3.940   9.570  1.0592  1.0384  0.2202
  146SAPE  C21016056   2.044   4.105   9.571 -0.0402 -0.0874  0.2445
  146SAPE  H10R16057   2.098   4.185   9.516 -0.9365  1.3702  1.4238
  146SAPE  H10S16058   2.004   4.170   9.651  1.2071 -0.1715  0.9687
  146SAPE  C21116059   1.933   4.051   9.496  0.3316  0.0000 -0.9444
  146SAPE  H11R16060   1.846   4.021   9.557 -0.8090  4.0714 -0.2462
  146SAPE  C21216061   1.924   4.049   9.361 -1.0226  0.1549  0.1927
  146SAPE  H12R16062   1.841   3.987   9.323 -1.8549  0.1459  1.9084
  146SAPE  C21316063   2.028   4.101   9.257 -0.7328 -0.4884  0.2847
  146SAPE  H13R16064   2.124   4.117   9.311 -0.3160  1.1619 -0.8387
  146SAPE  H13S16065   2.014   4.204   9.218 -0.5331 -0.4594  0.2907
  146SAPE  C21416066   2.038   3.994   9.143  0.5843 -0.2608  0.5452
  146SAPE  H14R16067   2.037   3.887   9.169  1.3453  0.2427  2.8620
  146SAPE  C21516068   2.062   4.017   9.011 -0.4517  0.0204  0.0551
  146SAPE  H15R16069   2.069   3.930   8.944  0.1066  0.9520 -1.1396
  146SAPE  C21616070   2.086   4.149   8.956  0.2750  0.0929  0.8197
  146SAPE  H16R16071   1.998   4.214   8.979  1.4942  1.2538  2.4784
  146SAPE  H16S16072   2.076   4.131   8.847 -2.9219  0.1985  1.0026
  146SAPE  C21716073   2.219   4.227   8.985  0.2427 -0.3183 -0.4754
  146SAPE  H17R16074   2.210   4.235   9.096 -0.0016  0.5464 -0.5464
  146SAPE  H17S16075   2.202   4.326   8.937 -0.8060  1.1120  2.5765
  146SAPE  C21816076   2.342   4.157   8.930 -0.0486 -0.8155  0.0930
  146SAPE  H18R16077   2.333   4.048   8.948  0.6094 -0.6202  1.7634
  146SAPE  H18S16078   2.435   4.198   8.974  0.4859  0.4496 -2.0401
  146SAPE  C21916079   2.380   4.190   8.782  0.5825 -0.9416 -0.5927
  146SAPE  H19R16080   2.296   4.157   8.717 -0.4835 -1.7517  1.1018
  146SAPE  H19S16081   2.464   4.127   8.746  1.2452 -0.5760  0.2692
  146SAPE  C22016082   2.414   4.338   8.750 -0.2582 -0.0197  0.7921
  146SAPE  H20R16083   2.327   4.400   8.721  0.2473 -0.2159 -1.3446
  146SAPE  H20S16084   2.491   4.338   8.670  0.0735  1.2842  1.0855
  146SAPE  H20T16085   2.474   4.386   8.830  0.2976 -0.5171  0.6816
  146SAPE   C3316086   1.695   4.662  10.060 -0.0218 -0.5885  0.3483
  146SAPE   H3X16087   1.769   4.619  10.131 -0.7601  1.7598  2.7372
  146SAPE   H3Y16088   1.745   4.736   9.994  0.2708 -1.0016  0.1108
  146SAPE   C3416089   1.624   4.560   9.975  0.1917  0.0215 -0.3079
  146SAPE   H4X16090   1.571   4.615   9.894 -0.5611  1.4642  1.1154
  146SAPE   H4Y16091   1.552   4.501  10.036  0.2732  1.7762  1.5919
  146SAPE   C3516092   1.721   4.467   9.905 -0.8187  0.2583 -0.4045
  146SAPE   H5X16093   1.783   4.417   9.983 -1.9524  1.1055  1.1084
  146SAPE   H5Y16094   1.797   4.511   9.838 -0.0339 -1.0353 -0.4050
  146SAPE   C3616095   1.672   4.341   9.832  0.3448  0.2889 -0.3440
  146SAPE   H6X16096   1.585   4.310   9.894  0.0291  1.8277  0.0096
  146SAPE   H6Y16097   1.750   4.262   9.834  1.0235  0.9682  0.9123
  146SAPE   C3716098   1.626   4.349   9.683  0.1460 -0.0894  0.5631
  146SAPE   H7X16099   1.541   4.419   9.672 -1.2553 -1.8307 -0.3981
  146SAPE   H7Y16100   1.580   4.252   9.653  1.3867 -0.7980  0.8623
  146SAPE   C3816101   1.741   4.392   9.592 -0.2593  0.3257 -0.2626
  146SAPE   H8X16102   1.833   4.331   9.600  0.8572  1.5981 -2.6370
  146SAPE   H8Y16103   1.770   4.493   9.627  0.4079 -0.4734  1.6628
  146SAPE   C3916104   1.689   4.406   9.448 -0.5347 -0.2950 -0.4031
  146SAPE   H9X16105   1.634   4.501   9.435  0.5952  0.8280  2.4053
  146SAPE   H9Y16106   1.623   4.321   9.419 -2.3200  1.2948 -1.2375
  146SAPE  C31016107   1.805   4.416   9.348 -0.0854  0.3177  0.5648
  146SAPE  H10X16108   1.860   4.320   9.356  0.1473  0.5585  2.0409
  146SAPE  H10Y16109   1.874   4.499   9.375  0.4199 -0.7307  2.6656
  146SAPE  C31116110   1.773   4.430   9.195  0.6445 -0.0196 -0.2315
  146SAPE  H11X16111   1.866   4.437   9.135 -0.2927  0.8664 -1.6474
  146SAPE  H11Y16112   1.709   4.520   9.183  0.0852  0.0882  2.8358
  146SAPE  C31216113   1.697   4.308   9.136 -0.2424  0.7649  0.2394
  146SAPE  H12X16114   1.597   4.304   9.185  1.4512 -0.9067  3.9190
  146SAPE  H12Y16115   1.745   4.212   9.164 -0.6603  0.9103  1.5124
  146SAPE  C31316116   1.685   4.317   8.982  0.4223 -0.5265  0.1842
  146SAPE  H13X16117   1.618   4.238   8.941 -0.9990 -0.0347  1.4709
  146SAPE  H13Y16118   1.785   4.308   8.934 -1.1641 -1.7799 -3.1718
  146SAPE  C31416119   1.627   4.451   8.936  0.1994  0.1767 -0.5050
  146SAPE  H14X16120   1.703   4.532   8.942  0.6051 -0.2494  0.4941
  146SAPE  H14Y16121   1.541   4.474   9.003 -2.1421 -1.3188 -2.8497
  146SAPE  C31516122   1.575   4.428   8.793 -0.2871 -0.0759  0.1127
  146SAPE  H15X16123   1.533   4.528   8.767  0.4521 -0.2320 -1.7837
  146SAPE  H15Y16124   1.494   4.353   8.798 -0.6085  0.2737  0.2732
  146SAPE  C31616125   1.683   4.386   8.696  0.4423  0.5484  0.2467
  146SAPE  H16X16126   1.721   4.285   8.724 -1.1495  0.6921  3.2639
  146SAPE  H16Y16127   1.773   4.450   8.697  1.2646 -0.5678  1.2194
  146SAPE  C31716128   1.632   4.392   8.553 -0.0963 -0.2026 -0.0363
  146SAPE  H17X16129   1.522   4.382   8.546 -0.1202 -0.0871  0.1479
  146SAPE  H17Y16130   1.680   4.303   8.506  1.4883 -0.4285  1.8705
  146SAPE  C31816131   1.686   4.520   8.487  0.8466 -0.3810 -0.2811
  146SAPE  H18X16132   1.618   4.520   8.399  0.1666 -4.2298  0.0743
  146SAPE  H18Y16133   1.791   4.507   8.453  0.8511 -0.3998 -0.2610
  146SAPE  H18Z16134   1.673   4.608   8.553  1.9115 -1.1244  0.9901
  147SAPE     N16135   4.704   3.332   5.891  0.7285  0.0084  0.3459
  147SAPE   HN116136   4.611   3.298   5.923  1.3631 -0.4855  1.7396
  147SAPE   HN216137   4.695   3.375   5.797  0.3842 -2.1185 -0.6408
  147SAPE   HN316138   4.769   3.251   5.881 -3.1192 -3.0667 -3.1334
  147SAPE   C1216139   4.748   3.425   5.991  0.5772 -0.0808 -0.3925
  147SAPE  H12A16140   4.756   3.369   6.086 -1.2685 -0.6779 -0.5556
  147SAPE  H12B16141   4.672   3.505   5.999 -0.7090 -1.0708 -1.9594
  147SAPE   C1116142   4.895   3.472   5.971 -0.4368  1.1532 -0.3355
  147SAPE  H11A16143   4.955   3.382   5.997  0.0772  2.2649  2.6629
  147SAPE  H11B16144   4.911   3.552   6.046 -0.2292  0.0831  0.7923
  147SAPE     P16145   4.886   3.663   5.800 -0.1252 -0.0870 -0.0293
  147SAPE   O1316146   4.896   3.681   5.650 -0.2559  0.1408  0.1531
  147SAPE   O1416147   4.763   3.706   5.869  0.1013  0.3897  0.4579
  147SAPE   O1216148   4.925   3.520   5.839 -0.6368  0.1257  0.1555
  147SAPE   O1116149   5.003   3.756   5.850  0.0500  0.0810 -0.2077
  147SAPE    C116150   5.139   3.720   5.865  0.0266 -0.2353 -0.0038
  147SAPE    HA16151   5.167   3.617   5.835 -0.4267 -0.4529  0.3126
  147SAPE    HB16152   5.191   3.788   5.794 -0.9842  0.3662 -0.1870
  147SAPE    C216153   5.179   3.734   6.012  0.0374 -0.7952 -0.3013
  147SAPE    HS16154   5.129   3.656   6.074 -0.8850 -0.4810 -0.6267
  147SAPE   O2116155   5.155   3.864   6.074  0.2068  0.0419  0.3820
  147SAPE   C2116156   5.030   3.897   6.111 -0.4108 -0.3646 -0.0517
  147SAPE   O2216157   4.938   3.817   6.131 -0.2291  0.3277 -0.2745
  147SAPE   C2216158   5.023   4.050   6.126 -0.8554  0.2800 -0.1517
  147SAPE   H2R16159   5.128   4.082   6.143 -0.0302 -2.1528 -0.1820
  147SAPE   H2S16160   4.983   4.091   6.031 -1.0824  0.6792  0.1145
  147SAPE    C316161   5.331   3.711   6.023  0.7808  0.3602  0.0057
  147SAPE    HX16162   5.377   3.799   5.973 -1.8143  0.2108 -2.9885
  147SAPE    HY16163   5.351   3.624   5.957 -0.7705  0.2444 -0.3578
  147SAPE   O3116164   5.381   3.669   6.157 -0.2933  0.6530 -0.2287
  147SAPE   C3116165   5.445   3.749   6.224  0.1372 -0.6366  0.6252
  147SAPE   O3216166   5.462   3.869   6.204 -0.0003 -0.1219  0.0662
  147SAPE   C3216167   5.494   3.671   6.350 -0.0180 -0.9402  0.2878
  147SAPE   H2X16168   5.532   3.572   6.317  0.5291 -0.9176  0.8137
  147SAPE   H2Y16169   5.404   3.656   6.413  0.4857  0.9421  1.5196
  147SAPE   C2316170   4.939   4.100   6.248  0.3259  0.6262 -0.1096
  147SAPE   H3R16171   4.840   4.051   6.231 -1.2073  2.8594  1.8132
  147SAPE   H3S16172   4.917   4.208   6.242 -0.0595  0.4894 -2.0797
  147SAPE   C2416173   4.999   4.061   6.384  0.1658  0.3837 -0.4949
  147SAPE   H4R16174   5.055   3.965   6.378  1.1768  0.8998  0.2683
  147SAPE   H4S16175   4.916   4.036   6.453 -0.6566  2.0960 -0.8234
  147SAPE   C2516176   5.102   4.157   6.435 -0.1216 -0.1309  0.0840
  147SAPE   H5R16177   5.203   4.153   6.392  0.1759  0.3294  0.7253
  147SAPE   C2616178   5.071   4.253   6.524  0.3289  0.1375  0.2769
  147SAPE   H6R16179   5.155   4.301   6.576  0.9625  0.6953 -1.1831
  147SAPE   C2716180   4.939   4.276   6.601 -0.3697 -0.0774 -1.0160
  147SAPE   H7R16181   4.849   4.223   6.562 -0.0008 -0.0930 -1.8596
  147SAPE   H7S16182   4.912   4.384   6.595  0.6097  0.3248  1.1522
  147SAPE   C2816183   4.955   4.223   6.740  0.0073  0.2006 -0.0735
  147SAPE   H8R16184   4.911   4.123   6.760  0.6728  0.0369  0.6306
  147SAPE   C2916185   5.015   4.275   6.847 -0.7131 -0.1496 -0.1974
  147SAPE   H9R16186   5.026   4.220   6.941 -3.1366  1.3797  1.0660
  147SAPE  C21016187   5.077   4.413   6.848 -0.1518  0.0042  0.0975
  147SAPE  H10R16188   5.070   4.466   6.750 -1.7053 -0.5744 -0.1384
  147SAPE  H10S16189   5.187   4.394   6.854 -0.1637  0.2099  1.0599
  147SAPE  C21116190   5.026   4.504   6.962 -0.1435  0.2315 -0.4976
  147SAPE  H11R16191   4.917   4.506   6.977 -0.1132  1.2494 -0.3421
  147SAPE  C21216192   5.104   4.568   7.048 -0.7811 -0.1519 -0.0328
  147SAPE  H12R16193   5.046   4.620   7.125  0.3172  0.9817  0.0581
  147SAPE  C21316194   5.253   4.560   7.049  0.2131  0.3280 -0.0425
  147SAPE  H13R16195   5.285   4.666   7.045 -2.5083  1.2226 -0.1024
  147SAPE  H13S16196   5.302   4.526   6.955  0.4298 -0.2965  0.2924
  147SAPE  C21416197   5.322   4.477   7.155  0.4052  0.4930  0.0781
  147SAPE  H14R16198   5.352   4.375   7.128  1.6303  0.8090  0.1436
  147SAPE  C21516199   5.349   4.499   7.280 -0.1558  0.1601  0.1983
  147SAPE  H15R16200   5.407   4.425   7.338 -1.2348 -0.7107  0.2145
  147SAPE  C21616201   5.332   4.625   7.364 -0.0805 -0.3699 -0.2479
  147SAPE  H16R16202   5.339   4.584   7.467 -2.5631  1.2644  0.6583
  147SAPE  H16S16203   5.231   4.668   7.349 -0.2081 -0.1257  1.1660
  147SAPE  C21716204   5.455   4.718   7.346  0.6134  0.4543  0.6934
  147SAPE  H17R16205   5.452   4.744   7.239 -0.5169  1.5771  0.9705
  147SAPE  H17S16206   5.554   4.668   7.353  1.1927  0.9970 -2.4231
  147SAPE  C21816207   5.445   4.839   7.438  0.2789 -0.4537 -0.3002
  147SAPE  H18R16208   5.490   4.810   7.536  1.9151 -0.4221 -1.0061
  147SAPE  H18S16209   5.337   4.857   7.455  0.6101  0.7502  0.7174
  147SAPE  C21916210   5.511   4.959   7.377 -0.6598  0.2164 -0.3005
  147SAPE  H19R16211   5.472   4.975   7.274 -2.3236 -2.0707 -0.0903
  147SAPE  H19S16212   5.621   4.941   7.376 -0.5606  0.8177 -0.8407
  147SAPE  C22016213   5.493   5.087   7.457 -0.0447  0.6811 -0.0786
  147SAPE  H20R16214   5.502   5.057   7.564  0.8617 -0.1891 -0.3885
  147SAPE  H20S16215   5.389   5.123   7.444 -0.1522  0.4668  0.1689
  147SAPE  H20T16216   5.567   5.168   7.440  0.5016 -0.0353 -1.2045
  147SAPE   C3316217   5.604   3.746   6.437  0.4014 -0.0264  0.7697
  147SAPE   H3X16218   5.567   3.842   6.478  1.4564  1.5605 -1.7880
  147SAPE   H3Y16219   5.694   3.771   6.377  0.0656  0.5662  0.5128
  147SAPE   C3416220   5.635   3.652   6.550  0.5340 -0.3138  0.1223
  147SAPE   H4X16221   5.659   3.549   6.516  2.2195 -0.4230  1.5112
  147SAPE   H4Y16222   5.545   3.643   6.614  1.2017 -0.5884  1.0507
  147SAPE   C3516223   5.759   3.689   6.622 -0.1488  0.2254  0.1199
  147SAPE   H5X16224   5.762   3.799   6.641  0.0376  0.3593 -0.6639
  147SAPE   H5Y16225   5.853   3.668   6.566 -0.7738  0.2352 -0.9498
  147SAPE   C3616226   5.769   3.613   6.760 -0.2167 -0.1514 -0.0927
  147SAPE   H6X16227   5.877   3.612   6.786 -0.1523  0.7087 -0.2780
  147SAPE   H6Y16228   5.744   3.506   6.747  1.4396 -0.3875 -1.8292
  147SAPE   C3716229   5.685   3.692   6.861 -0.6576  0.1449  0.3467
  147SAPE   H7X16230   5.619   3.767   6.812 -1.2436 -1.1399 -0.8765
  147SAPE   H7Y16231   5.747   3.750   6.933 -0.5040  0.7523 -0.2557
  147SAPE   C3816232   5.589   3.602   6.940  0.1450 -0.0442  0.0411
  147SAPE   H8X16233   5.647   3.513   6.972 -0.1533 -0.4453 -0.5057
  147SAPE   H8Y16234   5.505   3.585   6.869 -0.4516  0.7643  0.5434
  147SAPE   C3916235   5.524   3.671   7.057  0.8418 -0.0892 -0.1581
  147SAPE   H9X16236   5.413   3.662   7.050  0.8662 -0.9718  0.3838
  147SAPE   H9Y16237   5.546   3.780   7.055 -0.8553  0.2703 -0.9562
  147SAPE  C31016238   5.554   3.592   7.193 -0.0220  0.0223 -0.3261
  147SAPE  H10X16239   5.664   3.584   7.197 -0.0501 -0.4629 -0.4671
  147SAPE  H10Y16240   5.516   3.489   7.178  0.4147  0.0701 -2.0598
  147SAPE  C31116241   5.498   3.664   7.321  0.1053  0.0085  0.1114
  147SAPE  H11X16242   5.524   3.772   7.328 -1.5921  0.6141 -1.8872
  147SAPE  H11Y16243   5.525   3.604   7.410 -1.7223  1.1649  1.5221
  147SAPE  C31216244   5.345   3.671   7.335  0.1986 -1.0015  0.4647
  147SAPE  H12X16245   5.307   3.572   7.367 -1.0576 -0.2940  1.2108
  147SAPE  H12Y16246   5.293   3.686   7.238 -1.9912 -1.0023  1.5824
  147SAPE  C31316247   5.285   3.772   7.429  0.0183  0.6897 -0.1201
  147SAPE  H13X16248   5.175   3.785   7.423 -0.6153 -3.0735  0.9077
  147SAPE  H13Y16249   5.332   3.871   7.406 -1.4426  1.6151  0.7605
  147SAPE  C31416250   5.324   3.742   7.576 -0.1315 -0.8771 -0.4779
  147SAPE  H14X16251   5.429   3.775   7.591  0.1916 -1.4259 -1.4123
  147SAPE  H14Y16252   5.318   3.635   7.604 -3.9623 -0.2989  1.5639
  147SAPE  C31516253   5.240   3.815   7.683 -0.7740 -0.3317 -0.8383
  147SAPE  H15X16254   5.132   3.804   7.662 -0.6969  0.7407 -1.9017
  147SAPE  H15Y16255   5.255   3.923   7.665 -1.7400  0.3288  1.8320
  147SAPE  C31616256   5.275   3.772   7.826 -0.4106 -0.4452  0.2148
  147SAPE  H16X16257   5.382   3.741   7.829 -0.3897 -0.7128 -2.0582
  147SAPE  H16Y16258   5.230   3.676   7.860 -1.1844  0.0686  0.6740
  147SAPE  C31716259   5.243   3.876   7.935  0.3563 -0.1581  0.5047
  147SAPE  H17X16260   5.233   3.841   8.040  0.1557  2.5712  1.4529
  147SAPE  H17Y16261   5.150   3.928   7.903  0.5147 -0.3816 -0.3537
  147SAPE  C31816262   5.364   3.971   7.943 -0.6592 -0.3332  0.2439
  147SAPE  H18X16263   5.333   4.051   8.013  0.8447  0.7404 -0.2798
  147SAPE  H18Y16264   5.388   4.009   7.841 -0.6960  0.4883  0.5347
  147SAPE  H18Z16265   5.445   3.911   7.989 -0.5419 -0.6082 -0.3100
  148SAPE     N16266   2.440   3.055   6.579  0.3888 -0.4418  0.4320
  148SAPE   HN116267   2.449   3.040   6.681  0.6223  0.8514  0.6253
  148SAPE   HN216268   2.351   3.105   6.556 -0.6254 -2.4544 -0.2403
  148SAPE   HN316269   2.425   2.961   6.539 -0.9366  0.0483 -0.3070
  148SAPE   C1216270   2.568   3.112   6.523 -0.0225  0.0150  0.7134
  148SAPE  H12A16271   2.582   3.212   6.571 -1.5382  1.2483 -1.2534
  148SAPE  H12B16272   2.557   3.132   6.415  3.2830 -1.8052 -0.1050
  148SAPE   C1116273   2.681   3.013   6.538  0.1921 -0.3597  0.2383
  148SAPE  H11A16274   2.693   2.991   6.647  2.5917  0.9511  0.2900
  148SAPE  H11B16275   2.780   3.059   6.518 -1.1101  1.3931 -2.8656
  148SAPE     P16276   2.781   2.801   6.412 -0.0058  0.0902 -0.3783
  148SAPE   O1316277   2.721   2.690   6.336  1.1372  0.6899  0.1564
  148SAPE   O1416278   2.878   2.890   6.342  0.1304  0.6346  0.1554
  148SAPE   O1216279   2.659   2.893   6.463  0.3516  0.3376 -0.0281
  148SAPE   O1116280   2.855   2.735   6.535  0.1145  0.6029 -0.2085
  148SAPE    C116281   2.789   2.651   6.625 -0.0452  0.7326 -0.3953
  148SAPE    HA16282   2.697   2.609   6.579  0.9395 -2.0722  0.0227
  148SAPE    HB16283   2.845   2.558   6.644 -0.4984  0.0237 -2.2622
  148SAPE    C216284   2.762   2.729   6.756 -0.3183 -0.1025  0.4068
  148SAPE    HS16285   2.761   2.837   6.729  1.9931 -0.1231  0.0541
  148SAPE   O2116286   2.859   2.700   6.856  0.0432 -0.4976 -0.2889
  148SAPE   C2116287   2.905   2.801   6.933 -0.3978 -0.4979 -0.2176
  148SAPE   O2216288   2.869   2.916   6.923 -0.6130 -0.4909 -0.2930
  148SAPE   C2216289   3.004   2.742   7.037 -0.0699 -0.8469  0.2089
  148SAPE   H2R16290   2.974   2.636   7.053 -0.3897 -1.2165 -2.3905
  148SAPE   H2S16291   3.100   2.721   6.985 -0.4533 -2.7025  0.1928
  148SAPE    C316292   2.620   2.702   6.804  0.5249 -0.2344 -0.2502
  148SAPE    HX16293   2.619   2.593   6.825  3.3928 -0.2039  0.4639
  148SAPE    HY16294   2.548   2.727   6.723  1.3250 -1.0418 -1.2312
  148SAPE   O3116295   2.589   2.766   6.930 -0.1465  0.2611  0.3126
  148SAPE   C3116296   2.535   2.888   6.916  0.3228 -0.5459 -0.1655
  148SAPE   O3216297   2.519   2.944   6.812  0.1866  0.1499  0.4663
  148SAPE   C3216298   2.507   2.937   7.053 -0.0638 -0.3398 -0.5233
  148SAPE   H2X16299   2.603   2.978   7.091  1.4406 -2.4310 -1.8339
  148SAPE   H2Y16300   2.477   2.853   7.119 -0.3660 -0.1314 -0.3972
  148SAPE   C2316301   3.002   2.828   7.167  0.2257  0.1265 -0.3121
  148SAPE   H3R16302   3.006   2.936   7.140 -1.6740 -0.0792 -1.6610
  148SAPE   H3S16303   3.102   2.807   7.211  0.9786 -0.9387 -2.3663
  148SAPE   C2416304   2.886   2.823   7.268  0.8008 -0.0748  0.1378
  148SAPE   H4R16305   2.791   2.854   7.221 -2.0758 -2.5102  3.7759
  148SAPE   H4S16306   2.904   2.900   7.346 -0.4951  0.6184 -0.2211
  148SAPE   C2516307   2.872   2.688   7.326 -1.3498 -0.4292 -0.6278
  148SAPE   H5R16308   2.843   2.609   7.254  2.1116 -0.2075 -2.4916
  148SAPE   C2616309   2.903   2.647   7.450  0.2977  0.7889 -0.3806
  148SAPE   H6R16310   2.893   2.543   7.483  0.2982  0.2488 -1.9699
  148SAPE   C2716311   2.956   2.746   7.557 -0.6212  0.2374  0.1789
  148SAPE   H7R16312   2.921   2.850   7.541  1.4613  0.8923 -0.3976
  148SAPE   H7S16313   3.066   2.758   7.562 -0.5637 -0.4033  5.1391
  148SAPE   C2816314   2.913   2.710   7.694  0.0124  0.3713  0.2705
  148SAPE   H8R16315   2.870   2.610   7.713  0.4581  0.6650  3.5098
  148SAPE   C2916316   2.918   2.784   7.801  0.0935 -0.0837 -0.2692
  148SAPE   H9R16317   2.901   2.732   7.896 -1.2164  0.6896 -0.0664
  148SAPE  C21016318   2.955   2.930   7.810  0.7611 -0.5935 -0.2144
  148SAPE  H10R16319   2.885   2.999   7.758 -0.7137 -0.2806  2.0508
  148SAPE  H10S16320   3.055   2.942   7.763  1.4109 -1.9335  0.7766
  148SAPE  C21116321   2.971   2.982   7.946 -0.5194  0.1526  0.4426
  148SAPE  H11R16322   3.079   2.978   7.964 -0.2530 -2.0494 -1.2960
  148SAPE  C21216323   2.875   3.019   8.034 -0.4214 -0.2742 -0.2606
  148SAPE  H12R16324   2.911   3.040   8.136 -0.0622  1.4355 -0.7160
  148SAPE  C21316325   2.728   3.015   8.027  0.1220 -0.7161  0.5867
  148SAPE  H13R16326   2.682   2.964   8.115 -0.4456 -0.0341  0.6934
  148SAPE  H13S16327   2.702   2.958   7.935  1.2446  0.6613 -0.6292
  148SAPE  C21416328   2.665   3.148   8.009 -0.1623  0.4121 -0.4302
  148SAPE  H14R16329   2.676   3.188   7.907 -0.8467  2.3053  0.1930
  148SAPE  C21516330   2.592   3.228   8.089 -0.3964  0.4598  0.8921
  148SAPE  H15R16331   2.572   3.330   8.053 -1.3222 -0.3147 -0.9000
  148SAPE  C21616332   2.553   3.205   8.231 -0.3546 -0.1939 -0.1675
  148SAPE  H16R16333   2.603   3.115   8.274 -1.9417 -1.9410 -1.7611
  148SAPE  H16S16334   2.443   3.189   8.231 -0.2743 -0.7812 -0.0976
  148SAPE  C21716335   2.584   3.328   8.323 -0.3345  0.2316 -1.2312
  148SAPE  H17R16336   2.533   3.417   8.280 -2.0918 -1.0280 -1.8459
  148SAPE  H17S16337   2.695   3.341   8.321 -0.2198 -0.0040  0.9877
  148SAPE  C21816338   2.536   3.318   8.475  0.2641 -0.1656  0.4514
  148SAPE  H18R16339   2.594   3.244   8.534 -1.6746 -0.2574  2.3414
  148SAPE  H18S16340   2.435   3.272   8.478  1.7259 -3.7151  0.7687
  148SAPE  C21916341   2.549   3.447   8.558  0.2025 -0.2513  0.1221
  148SAPE  H19R16342   2.505   3.535   8.507  0.6255 -2.2732 -4.1815
  148SAPE  H19S16343   2.654   3.480   8.574 -0.2391  1.0005  0.5166
  148SAPE  C22016344   2.475   3.437   8.692 -0.3387  0.2309  0.2123
  148SAPE  H20R16345   2.529   3.363   8.755 -1.2635 -0.5778  0.0888
  148SAPE  H20S16346   2.365   3.427   8.679 -0.8889  1.8215  2.9797
  148SAPE  H20T16347   2.498   3.527   8.752 -0.9388  1.5938 -1.5167
  148SAPE   C3316348   2.404   3.049   7.074 -0.7092  0.3493 -0.2281
  148SAPE   H3X16349   2.311   3.012   7.025  0.0740 -0.2505 -1.3143
  148SAPE   H3Y16350   2.427   3.137   7.010  0.5367  0.1295 -0.1005
  148SAPE   C3416351   2.368   3.089   7.212 -0.5192 -0.1425 -0.4492
  148SAPE   H4X16352   2.287   3.166   7.213  0.6900  1.1758 -0.8221
  148SAPE   H4Y16353   2.450   3.119   7.279 -3.4560  4.1005  1.6798
  148SAPE   C3516354   2.302   2.974   7.295  0.5493  0.5634  0.1664
  148SAPE   H5X16355   2.383   2.907   7.330 -0.1088 -0.5020 -0.3063
  148SAPE   H5Y16356   2.234   2.923   7.224  0.7730  2.1929 -1.2996
  148SAPE   C3616357   2.222   3.028   7.421 -0.5446 -0.6251  0.3111
  148SAPE   H6X16358   2.154   2.943   7.445  2.7920 -3.2562  1.1090
  148SAPE   H6Y16359   2.159   3.111   7.382 -0.1047 -1.6446 -2.8818
  148SAPE   C3716360   2.318   3.070   7.530  0.8777  0.0406 -0.0571
  148SAPE   H7X16361   2.359   3.170   7.504 -0.1047  0.5119  0.1536
  148SAPE   H7Y16362   2.398   2.994   7.545  0.9367  0.1442  0.1639
  148SAPE   C3816363   2.249   3.070   7.668 -0.2732  0.6304  0.0876
  148SAPE   H8X16364   2.192   2.975   7.675 -1.2876  1.2581  0.6475
  148SAPE   H8Y16365   2.183   3.159   7.675 -0.7256  0.1961  2.1431
  148SAPE   C3916366   2.350   3.059   7.782  0.0335 -0.1677  0.2267
  148SAPE   H9X16367   2.428   3.137   7.781  1.4173 -1.5047 -1.0422
  148SAPE   H9Y16368   2.404   2.964   7.760  0.0888  0.0936 -0.8039
  148SAPE  C31016369   2.289   3.060   7.926 -0.7892 -0.1931 -0.7053
  148SAPE  H10X16370   2.243   3.158   7.952  0.0568 -0.5521  2.5362
  148SAPE  H10Y16371   2.376   3.065   7.995 -1.3831 -0.4570  0.0760
  148SAPE  C31116372   2.213   2.937   7.968  0.3475 -0.3737  0.6229
  148SAPE  H11X16373   2.234   2.853   7.899 -4.0031 -1.4169  0.2886
  148SAPE  H11Y16374   2.103   2.954   7.978 -0.0955 -3.1275  1.0710
  148SAPE  C31216375   2.257   2.886   8.112  0.5874  0.1509  0.3047
  148SAPE  H12X16376   2.214   2.936   8.201 -0.6639 -0.7089  0.2217
  148SAPE  H12Y16377   2.364   2.914   8.118  0.8876 -1.1449  1.2501
  148SAPE  C31316378   2.237   2.732   8.108  0.0941  0.5693 -0.2277
  148SAPE  H13X16379   2.294   2.673   8.033 -1.8308 -0.2956 -1.0923
  148SAPE  H13Y16380   2.130   2.719   8.082  1.0113 -0.6204 -4.0218
  148SAPE  C31416381   2.290   2.659   8.233 -0.2150 -0.4475  0.0654
  148SAPE  H14X16382   2.256   2.704   8.328 -0.8770  1.7687 -1.1786
  148SAPE  H14Y16383   2.400   2.643   8.229 -0.2926 -1.5102  1.3628
  148SAPE  C31516384   2.236   2.514   8.247  0.0655  0.3194 -0.0924
  148SAPE  H15X16385   2.258   2.452   8.157  0.0135  1.0041 -0.5830
  148SAPE  H15Y16386   2.129   2.504   8.274  0.2582  0.3556  0.7339
  148SAPE  C31616387   2.317   2.443   8.361  0.3990  0.0158  0.1521
  148SAPE  H16X16388   2.290   2.485   8.460  0.5720  1.0996 -0.2501
  148SAPE  H16Y16389   2.427   2.455   8.359  0.1632  2.7193 -0.4226
  148SAPE  C31716390   2.280   2.294   8.387 -0.3413  0.6163  0.7392
  148SAPE  H17X16391   2.358   2.261   8.459 -1.4790 -1.8574  0.9472
  148SAPE  H17Y16392   2.298   2.240   8.291 -1.4453  0.5054  0.5814
  148SAPE  C31816393   2.141   2.263   8.444  0.1392 -0.2263  0.6681
  148SAPE  H18X16394   2.094   2.163   8.448 -3.3033  1.1331 -1.3753
  148SAPE  H18Y16395   2.056   2.308   8.388 -0.3314 -0.2905  1.3160
  148SAPE  H18Z16396   2.143   2.312   8.544 -0.8414  2.0278 -0.3470
  149SAPE     N16397   2.236   1.945   6.146  0.4803  0.1431 -0.1437
  149SAPE   HN116398   2.252   1.856   6.095 -2.3178  1.0343 -2.8963
  149SAPE   HN216399   2.185   2.008   6.082  0.8904  1.4254  0.7398
  149SAPE   HN316400   2.326   1.974   6.191 -0.2541  5.0301 -1.2389
  149SAPE   C1216401   2.146   1.904   6.266  0.0522  0.2562 -0.0265
  149SAPE  H12A16402   2.202   1.832   6.329 -0.8642 -2.2430 -1.9077
  149SAPE  H12B16403   2.060   1.851   6.219  0.8744 -1.4793  0.3585
  149SAPE   C1116404   2.103   2.035   6.338 -0.0164 -0.1161  0.1061
  149SAPE  H11A16405   2.198   2.075   6.380 -0.7923  1.1653  0.7238
  149SAPE  H11B16406   2.044   2.003   6.426  1.8278 -1.3799  0.9503
  149SAPE     P16407   1.879   2.127   6.245  0.1289 -0.2046  0.1203
  149SAPE   O1316408   1.833   2.247   6.179 -0.0093 -0.1717  0.4490
  149SAPE   O1416409   1.836   1.998   6.192 -0.3730  0.3317  0.0554
  149SAPE   O1216410   2.040   2.134   6.258  0.5182 -0.3817 -0.0412
  149SAPE   O1116411   1.837   2.134   6.394 -0.5848  0.3211  0.1205
  149SAPE    C116412   1.721   2.069   6.443 -0.1527 -0.5631  0.0196
  149SAPE    HA16413   1.640   2.054   6.368  1.0456 -0.1098 -1.4060
  149SAPE    HB16414   1.736   1.969   6.488 -4.6998 -1.1786  0.6931
  149SAPE    C216415   1.654   2.153   6.561 -0.4483 -0.5475 -0.4504
  149SAPE    HS16416   1.649   2.253   6.515  0.7232  0.4894  1.5518
  149SAPE   O2116417   1.731   2.157   6.685 -0.2386  0.3675 -0.1843
  149SAPE   C2116418   1.838   2.231   6.685  0.3518  0.2292 -0.1903
  149SAPE   O2216419   1.881   2.301   6.598 -0.1518 -0.2378  0.1833
  149SAPE   C2216420   1.900   2.217   6.826  0.1434 -0.0951 -0.2615
  149SAPE   H2R16421   1.831   2.275   6.891 -0.0412 -0.0498 -0.4958
  149SAPE   H2S16422   1.901   2.108   6.849 -1.5059  0.1046  0.9475
  149SAPE    C316423   1.518   2.095   6.585 -0.1868 -0.0623  0.5015
  149SAPE    HX16424   1.535   1.988   6.610  3.3259  0.5711  1.3658
  149SAPE    HY16425   1.453   2.099   6.495 -0.4529  0.7181  0.7253
  149SAPE   O3116426   1.452   2.164   6.695 -0.0706 -0.1392  0.0976
  149SAPE   C3116427   1.397   2.283   6.662  0.3466  0.4859 -0.1957
  149SAPE   O3216428   1.418   2.335   6.556  0.6842 -0.1122  0.1008
  149SAPE   C3216429   1.315   2.340   6.778  0.1098 -0.2034  0.7589
  149SAPE   H2X16430   1.275   2.252   6.834  0.2474 -0.6436  0.1798
  149SAPE   H2Y16431   1.243   2.403   6.723  0.4991 -1.9438 -1.9238
  149SAPE   C2316432   2.045   2.269   6.830  0.0586  0.6246 -0.3188
  149SAPE   H3R16433   2.074   2.276   6.937 -0.9474  0.7040 -0.0399
  149SAPE   H3S16434   2.061   2.374   6.798 -2.2252  0.8242 -0.9897
  149SAPE   C2416435   2.143   2.172   6.758 -0.0509 -0.1295 -0.0289
  149SAPE   H4R16436   2.103   2.150   6.656 -2.8324 -1.1465  1.1813
  149SAPE   H4S16437   2.143   2.076   6.814  0.6350 -0.8359 -1.1841
  149SAPE   C2516438   2.283   2.213   6.755 -0.0936 -0.1234  0.4755
  149SAPE   H5R16439   2.299   2.296   6.685 -0.6974 -0.4421 -0.0528
  149SAPE   C2616440   2.392   2.166   6.820  0.9715  0.0620  0.6762
  149SAPE   H6R16441   2.493   2.196   6.788  0.8644 -0.5355 -0.2733
  149SAPE   C2716442   2.386   2.044   6.913  0.1006 -0.2664  0.3699
  149SAPE   H7R16443   2.375   1.948   6.857 -0.8611  0.8162 -1.3991
  149SAPE   H7S16444   2.290   2.060   6.966 -0.2758 -3.0273  0.6731
  149SAPE   C2816445   2.502   2.031   7.007  0.1242 -0.0399  0.3164
  149SAPE   H8R16446   2.578   1.968   6.959  0.5435 -0.2476  1.2330
  149SAPE   C2916447   2.509   2.070   7.136  0.1112 -0.7189  0.3474
  149SAPE   H9R16448   2.597   2.041   7.195 -0.9137 -3.0734  0.8587
  149SAPE  C21016449   2.400   2.144   7.213 -0.3164 -0.2513 -0.5490
  149SAPE  H10R16450   2.305   2.155   7.157 -2.2815 -3.6795  1.7857
  149SAPE  H10S16451   2.437   2.243   7.247 -1.3612 -0.2872  0.7840
  149SAPE  C21116452   2.367   2.050   7.327  0.4326 -0.8023 -0.3921
  149SAPE  H11R16453   2.287   1.978   7.302 -0.7861  1.0698 -2.2129
  149SAPE  C21216454   2.409   2.053   7.456 -0.1864 -0.0191 -0.3925
  149SAPE  H12R16455   2.386   1.964   7.516 -0.8563 -0.1322 -0.8060
  149SAPE  C21316456   2.509   2.166   7.508 -0.4186  0.2724  0.3896
  149SAPE  H13R16457   2.493   2.180   7.617  4.1054  0.2699  1.2276
  149SAPE  H13S16458   2.496   2.268   7.464  1.9953  1.5682  2.4355
  149SAPE  C21416459   2.651   2.113   7.488 -0.0534 -0.4727  0.0136
  149SAPE  H14R16460   2.686   2.070   7.393  0.8804  0.8265 -0.2466
  149SAPE  C21516461   2.747   2.113   7.582  0.0119 -0.2020  0.2488
  149SAPE  H15R16462   2.838   2.062   7.549 -0.3655 -0.4424 -0.4352
  149SAPE  C21616463   2.733   2.156   7.723  0.0685  0.6088 -0.3871
  149SAPE  H16R16464   2.650   2.229   7.736 -1.3528 -1.4744  3.9279
  149SAPE  H16S16465   2.827   2.205   7.756 -0.9649  1.3976  1.5303
  149SAPE  C21716466   2.685   2.042   7.813  0.5643  0.1056 -0.6106
  149SAPE  H17R16467   2.750   1.953   7.803  0.8374 -0.2353  2.8836
  149SAPE  H17S16468   2.579   2.018   7.788  0.4546  0.2575 -0.3035
  149SAPE  C21816469   2.691   2.077   7.962 -0.3825  0.1763 -0.1672
  149SAPE  H18R16470   2.649   1.992   8.020 -1.5363  1.1736  0.4995
  149SAPE  H18S16471   2.626   2.164   7.988 -0.3818  0.4659 -1.0838
  149SAPE  C21916472   2.835   2.129   8.004  0.0254  0.3739 -0.1033
  149SAPE  H19R16473   2.830   2.136   8.115 -0.1709  1.5066 -0.1763
  149SAPE  H19S16474   2.847   2.234   7.971  1.0314  0.7878  1.4924
  149SAPE  C22016475   2.953   2.035   7.968  0.2714 -0.2578 -0.3843
  149SAPE  H20R16476   2.937   1.934   8.012  1.4164 -0.1304  0.3670
  149SAPE  H20S16477   3.048   2.073   8.010  0.3544  0.5272 -1.2510
  149SAPE  H20T16478   2.956   2.021   7.858 -0.6683 -0.1234 -0.4363
  149SAPE   C3316479   1.406   2.429   6.856  0.2874 -0.2156 -0.3348
  149SAPE   H3X16480   1.457   2.509   6.798 -1.3875  0.6441 -0.6834
  149SAPE   H3Y16481   1.467   2.360   6.919  0.0923 -0.1620 -0.0843
  149SAPE   C3416482   1.324   2.503   6.969  0.3124  0.2135  0.0523
  149SAPE   H4X16483   1.255   2.430   7.017 -1.0213  0.6299 -1.1783
  149SAPE   H4Y16484   1.259   2.578   6.919 -1.1241  0.3647  2.0256
  149SAPE   C3516485   1.418   2.559   7.075 -0.8611  0.5034 -0.0386
  149SAPE   H5X16486   1.489   2.638   7.043  0.0837  0.5287  1.9708
  149SAPE   H5Y16487   1.473   2.472   7.115 -2.7277 -0.9221 -0.4200
  149SAPE   C3616488   1.340   2.628   7.192 -0.2491  0.1061 -0.1411
  149SAPE   H6X16489   1.246   2.568   7.193  0.6101 -1.4085 -2.0630
  149SAPE   H6Y16490   1.320   2.729   7.151 -2.0090 -0.8922 -1.9269
  149SAPE   C3716491   1.404   2.617   7.331 -0.2828 -0.3127 -0.2627
  149SAPE   H7X16492   1.334   2.661   7.405 -2.2439 -3.3154 -0.1194
  149SAPE   H7Y16493   1.492   2.684   7.330 -0.8569  0.4930 -2.3735
  149SAPE   C3816494   1.433   2.481   7.388  0.3742  0.3324 -0.3213
  149SAPE   H8X16495   1.501   2.420   7.325 -0.4548 -2.9456  1.7195
  149SAPE   H8Y16496   1.338   2.424   7.398  1.5668 -1.3008  3.7930
  149SAPE   C3916497   1.499   2.495   7.527  0.7783  0.6754  0.6136
  149SAPE   H9X16498   1.428   2.560   7.583 -0.6368  2.7708 -3.1995
  149SAPE   H9Y16499   1.596   2.544   7.503  0.6025  1.0605  0.6794
  149SAPE  C31016500   1.535   2.362   7.597  0.5553  0.6398 -0.6147
  149SAPE  H10X16501   1.636   2.329   7.564  0.8661  0.8670  0.1024
  149SAPE  H10Y16502   1.465   2.284   7.559 -2.0679  2.1382  0.8077
  149SAPE  C31116503   1.531   2.378   7.750 -0.3332  0.2839 -0.3542
  149SAPE  H11X16504   1.432   2.421   7.775 -1.2743 -2.4201  1.0602
  149SAPE  H11Y16505   1.608   2.454   7.775 -0.9950  0.7908  0.1864
  149SAPE  C31216506   1.558   2.254   7.832 -0.3360  1.1354 -0.1557
  149SAPE  H12X16507   1.471   2.184   7.829  1.2842 -1.1442  1.7869
  149SAPE  H12Y16508   1.555   2.276   7.941 -3.4137  1.3998 -0.1871
  149SAPE  C31316509   1.694   2.181   7.818  0.4662 -0.5125  0.0570
  149SAPE  H13X16510   1.770   2.260   7.836  1.5381 -1.4375 -0.2904
  149SAPE  H13Y16511   1.701   2.139   7.715  2.9167 -1.1734  0.4335
  149SAPE  C31416512   1.736   2.069   7.913  0.3530  0.2721 -0.0733
  149SAPE  H14X16513   1.817   2.006   7.870  0.4255 -0.1552  0.6620
  149SAPE  H14Y16514   1.643   2.007   7.922 -1.9162  3.3385 -0.9185
  149SAPE  C31516515   1.768   2.115   8.051 -0.1710 -0.0016 -0.0705
  149SAPE  H15X16516   1.703   2.195   8.093 -1.9861 -2.6648  2.5251
  149SAPE  H15Y16517   1.869   2.159   8.035  0.1842 -0.7041  0.1995
  149SAPE  C31616518   1.773   1.992   8.147  0.7604 -1.1152 -0.0323
  149SAPE  H16X16519   1.862   1.933   8.118  0.7037 -1.0040 -0.4360
  149SAPE  H16Y16520   1.691   1.921   8.125  2.5594 -2.7010 -2.0905
  149SAPE  C31716521   1.796   2.037   8.297  0.3147  0.2173  0.5425
  149SAPE  H17X16522   1.700   2.081   8.331 -0.7321 -0.6929 -1.0718
  149SAPE  H17Y16523   1.886   2.104   8.300  0.4585 -0.0032  1.3861
  149SAPE  C31816524   1.832   1.923   8.399 -1.0582  0.1942 -0.0279
  149SAPE  H18X16525   1.744   1.855   8.405 -1.2560  0.4538  0.0476
  149SAPE  H18Y16526   1.858   1.975   8.494  2.1190 -0.3161 -0.5137
  149SAPE  H18Z16527   1.923   1.867   8.370  0.4709  1.8060  1.3984
  150SAPE     N16528   3.767   4.883   6.257  0.7077  0.0537 -0.0546
  150SAPE   HN116529   3.868   4.906   6.251  1.0954 -0.7252  2.3947
  150SAPE   HN216530   3.749   4.809   6.186  1.5661  1.5546 -1.9659
  150SAPE   HN316531   3.708   4.962   6.221 -1.0884 -1.2829 -0.1697
  150SAPE   C1216532   3.724   4.836   6.393 -0.2344  0.3687 -1.2683
  150SAPE  H12A16533   3.625   4.884   6.409  0.5274  2.0400 -1.3557
  150SAPE  H12B16534   3.795   4.883   6.465 -0.8326 -0.3368 -0.1939
  150SAPE   C1116535   3.717   4.678   6.411  0.1673  0.0060 -0.0731
  150SAPE  H11A16536   3.701   4.638   6.513 -1.4662 -1.4588 -0.8430
  150SAPE  H11B16537   3.812   4.638   6.370  0.4427 -0.2967  0.8418
  150SAPE     P16538   3.628   4.563   6.185  0.3785  0.0887  0.4082
  150SAPE   O1316539   3.499   4.552   6.119 -0.3690  0.5695  0.3612
  150SAPE   O1416540   3.720   4.651   6.115 -0.2850  0.0797  0.6751
  150SAPE   O1216541   3.611   4.623   6.328  0.1772 -0.0749 -0.3858
  150SAPE   O1116542   3.688   4.422   6.211  0.2129  0.2116  0.2176
  150SAPE    C116543   3.603   4.328   6.278 -0.5551 -0.2330 -0.0914
  150SAPE    HA16544   3.494   4.347   6.267 -0.8079 -1.0336  0.8864
  150SAPE    HB16545   3.625   4.236   6.221  0.9101  0.9700 -1.5735
  150SAPE    C216546   3.652   4.295   6.419  0.4764  0.5131  0.6763
  150SAPE    HS16547   3.613   4.195   6.449  2.3290  0.6756  4.0475
  150SAPE   O2116548   3.595   4.379   6.524 -0.7330 -0.5825 -0.1137
  150SAPE   C2116549   3.466   4.378   6.542  0.3836  0.1465  0.0201
  150SAPE   O2216550   3.389   4.297   6.490  0.0041  0.0195  0.4880
  150SAPE   C2216551   3.421   4.498   6.625  0.2892  0.6545  0.4500
  150SAPE   H2R16552   3.448   4.587   6.564 -0.7594  1.6054  1.3257
  150SAPE   H2S16553   3.310   4.489   6.632  0.2775 -1.3155 -1.1572
  150SAPE    C316554   3.809   4.285   6.421 -0.2542  0.2406  0.0520
  150SAPE    HX16555   3.845   4.385   6.390 -0.9128  1.7628  3.7264
  150SAPE    HY16556   3.829   4.205   6.345 -0.1961 -0.9922  1.3251
  150SAPE   O3116557   3.876   4.267   6.544 -0.4412 -0.3433 -0.4554
  150SAPE   C3116558   3.839   4.166   6.622  0.5380 -0.3685 -0.0127
  150SAPE   O3216559   3.777   4.070   6.586  0.0870 -0.1134  0.1284
  150SAPE   C3216560   3.862   4.196   6.770 -0.9109  0.1328  0.2810
  150SAPE   H2X16561   3.794   4.123   6.820 -0.8764  1.3527  2.2103
  150SAPE   H2Y16562   3.836   4.301   6.795  0.8173  0.3797  1.1389
  150SAPE   C2316563   3.489   4.507   6.767 -0.4178 -0.1610  0.6484
  150SAPE   H3R16564   3.455   4.605   6.806  2.3329  1.5570 -0.9916
  150SAPE   H3S16565   3.599   4.522   6.760 -0.5879  0.9530  0.2531
  150SAPE   C2416566   3.455   4.393   6.860 -0.3694  0.7123 -0.4904
  150SAPE   H4R16567   3.471   4.297   6.807 -3.2338 -0.2162  0.1611
  150SAPE   H4S16568   3.344   4.388   6.866 -0.3418 -0.2007 -0.6914
  150SAPE   C2516569   3.514   4.396   7.000  0.3644  0.2671  0.0704
  150SAPE   H5R16570   3.623   4.386   7.004  0.3937  0.1054 -0.8596
  150SAPE   C2616571   3.443   4.420   7.112 -0.5194 -0.0773 -0.4742
  150SAPE   H6R16572   3.497   4.433   7.207 -0.6332 -0.4620 -0.3563
  150SAPE   C2716573   3.295   4.441   7.119 -0.0607  0.0394 -0.5815
  150SAPE   H7R16574   3.249   4.364   7.185 -2.8261  0.7818 -1.5209
  150SAPE   H7S16575   3.245   4.441   7.020 -0.8785  2.0423 -0.2150
  150SAPE   C2816576   3.266   4.575   7.182  0.0509 -0.0449  0.3121
  150SAPE   H8R16577   3.270   4.649   7.101 -0.1700 -1.9919 -1.5663
  150SAPE   C2916578   3.214   4.609   7.308 -0.2484  0.3659  0.1395
  150SAPE   H9R16579   3.202   4.715   7.334 -0.2183 -0.1557  2.5388
  150SAPE  C21016580   3.205   4.524   7.428  0.0782  0.7605  0.9129
  150SAPE  H10R16581   3.118   4.457   7.412  1.3499 -0.4333 -1.5501
  150SAPE  H10S16582   3.169   4.599   7.501  1.5014  0.3340  2.1099
  150SAPE  C21116583   3.329   4.451   7.472 -0.0029  0.0861 -0.7096
  150SAPE  H11R16584   3.389   4.402   7.394  2.2566 -2.1914  2.2405
  150SAPE  C21216585   3.379   4.449   7.598 -0.2184 -0.5604 -0.0951
  150SAPE  H12R16586   3.470   4.387   7.606  0.3832 -0.2283 -3.1731
  150SAPE  C21316587   3.313   4.504   7.719  0.8436 -0.5118  0.4363
  150SAPE  H13R16588   3.288   4.414   7.778 -1.7957  0.0664  0.3393
  150SAPE  H13S16589   3.213   4.549   7.700  1.3484  0.3690 -0.2133
  150SAPE  C21416590   3.404   4.597   7.793  0.1094  0.3322 -0.0192
  150SAPE  H14R16591   3.418   4.693   7.742  1.3936 -0.2710 -0.8414
  150SAPE  C21516592   3.476   4.570   7.902  0.0694 -0.1338  0.0702
  150SAPE  H15R16593   3.543   4.652   7.932 -0.8971  0.9111 -0.5301
  150SAPE  C21616594   3.481   4.443   7.985 -0.2607 -0.3022  0.7034
  150SAPE  H16R16595   3.583   4.417   8.019  0.5633 -1.3136 -2.2010
  150SAPE  H16S16596   3.457   4.348   7.933 -0.2546  0.0417  0.0679
  150SAPE  C21716597   3.404   4.466   8.115 -0.3876  0.7322  0.4133
  150SAPE  H17R16598   3.400   4.368   8.166 -2.7864  0.9872  0.8450
  150SAPE  H17S16599   3.304   4.506   8.086  0.3298  3.4289  1.3369
  150SAPE  C21816600   3.462   4.562   8.215  0.5791 -0.7436 -0.0700
  150SAPE  H18R16601   3.487   4.653   8.156  1.1535 -0.9304 -0.1201
  150SAPE  H18S16602   3.558   4.524   8.256 -0.8168 -1.2263  3.0214
  150SAPE  C21916603   3.359   4.592   8.323 -0.3831  0.6195  0.4139
  150SAPE  H19R16604   3.348   4.505   8.391  0.7433 -0.4350 -0.6987
  150SAPE  H19S16605   3.258   4.598   8.276  0.8968  3.5950 -2.3654
  150SAPE  C22016606   3.378   4.721   8.395  0.8342 -0.5878  0.8233
  150SAPE  H20R16607   3.381   4.711   8.505  0.3993 -1.2438  0.7774
  150SAPE  H20S16608   3.289   4.783   8.370  0.5342 -1.2774  0.1150
  150SAPE  H20T16609   3.461   4.792   8.370  0.4740 -0.5153 -0.2228
  150SAPE   C3316610   4.004   4.176   6.817 -0.0425 -0.1919 -0.4433
  150SAPE   H3X16611   4.024   4.259   6.889 -1.0567 -2.2470  2.3652
  150SAPE   H3Y16612   4.075   4.197   6.734  0.2525 -0.4939 -0.2690
  150SAPE   C3416613   4.039   4.043   6.879 -0.4620  0.1916 -0.9612
  150SAPE   H4X16614   3.978   3.979   6.812 -0.1864 -0.6912 -0.3924
  150SAPE   H4Y16615   3.992   4.042   6.979 -2.0154  0.4318 -1.6619
  150SAPE   C3516616   4.188   4.006   6.857 -0.1098 -0.4765  0.5463
  150SAPE   H5X16617   4.249   4.079   6.915 -2.0724  0.6580  1.2666
  150SAPE   H5Y16618   4.218   4.012   6.751 -1.3953  0.0935  0.1937
  150SAPE   C3616619   4.210   3.866   6.900  0.2685  0.1868 -0.6394
  150SAPE   H6X16620   4.303   3.814   6.867 -1.6421 -2.1123 -2.7239
  150SAPE   H6Y16621   4.138   3.796   6.852 -0.6683 -1.5241  2.9312
  150SAPE   C3716622   4.214   3.844   7.056 -0.2626  0.1761  0.3543
  150SAPE   H7X16623   4.117   3.872   7.103 -1.3662  0.4252 -1.9211
  150SAPE   H7Y16624   4.284   3.923   7.093  0.9028  0.6094 -2.4873
  150SAPE   C3816625   4.253   3.707   7.106  0.5045  0.2658  0.3556
  150SAPE   H8X16626   4.349   3.675   7.060  0.1679  0.2091 -0.3186
  150SAPE   H8Y16627   4.181   3.629   7.073  1.5369 -0.4557 -0.2475
  150SAPE   C3916628   4.260   3.692   7.258 -0.2526 -0.6008 -0.0056
  150SAPE   H9X16629   4.244   3.586   7.285 -0.2883 -1.0717 -1.7467
  150SAPE   H9Y16630   4.179   3.755   7.302  0.3571  0.0553  0.2033
  150SAPE  C31016631   4.395   3.733   7.314  0.2755 -0.4484  0.4609
  150SAPE  H10X16632   4.413   3.842   7.308  0.7751 -0.4843  1.2139
  150SAPE  H10Y16633   4.480   3.689   7.258 -1.4440 -3.7896  0.2276
  150SAPE  C31116634   4.406   3.689   7.462  0.1422  0.1673  0.4410
  150SAPE  H11X16635   4.499   3.741   7.494  0.5789  0.3082 -1.0124
  150SAPE  H11Y16636   4.424   3.580   7.477  1.5765  0.3123 -0.0539
  150SAPE  C31216637   4.283   3.717   7.550 -0.2510 -0.2913  0.5091
  150SAPE  H12X16638   4.208   3.639   7.525 -0.4658  0.5929 -1.8762
  150SAPE  H12Y16639   4.249   3.821   7.531 -0.5152 -0.2042  1.4105
  150SAPE  C31316640   4.311   3.716   7.699  0.0901 -0.2555 -0.3039
  150SAPE  H13X16641   4.229   3.767   7.754 -0.4765 -1.7366  0.2803
  150SAPE  H13Y16642   4.413   3.752   7.723 -0.1315  0.3292 -0.2352
  150SAPE  C31416643   4.319   3.577   7.753  0.0146 -0.1178 -1.0696
  150SAPE  H14X16644   4.410   3.517   7.733 -1.1754 -2.3593 -0.0790
  150SAPE  H14Y16645   4.225   3.531   7.715 -0.9914  0.5306  0.5174
  150SAPE  C31516646   4.286   3.581   7.907 -0.3667  0.1140  0.5154
  150SAPE  H15X16647   4.308   3.482   7.953 -0.8307  0.0014  0.4996
  150SAPE  H15Y16648   4.179   3.599   7.929 -0.5817  2.0709 -1.7621
  150SAPE  C31616649   4.360   3.681   7.997  0.4793  0.0937 -0.0913
  150SAPE  H16X16650   4.336   3.785   7.965  1.2910 -0.1823 -1.7373
  150SAPE  H16Y16651   4.471   3.687   7.990  0.5451  2.0470  1.6838
  150SAPE  C31716652   4.341   3.649   8.149  0.5772  0.7553  0.0138
  150SAPE  H17X16653   4.404   3.558   8.165  1.5892  1.1502 -1.4735
  150SAPE  H17Y16654   4.235   3.650   8.182  0.7849  2.0365  0.7016
  150SAPE  C31816655   4.395   3.746   8.247  0.8929 -0.2614 -0.4250
  150SAPE  H18X16656   4.504   3.768   8.249  0.9451 -0.4960 -0.6899
  150SAPE  H18Y16657   4.370   3.717   8.352 -3.7811  2.0081 -0.6570
  150SAPE  H18Z16658   4.341   3.843   8.242  0.4505 -0.3885  1.1526
  151SAPE     N16659   5.756   0.989   6.370  0.3049  0.3934  0.4098
  151SAPE   HN116660   5.768   1.057   6.447  0.4757  1.7425 -0.7630
  151SAPE   HN216661   5.807   0.908   6.412 -0.5522  0.6963  2.0785
  151SAPE   HN316662   5.806   1.033   6.289  0.7964 -0.4722  0.2230
  151SAPE   C1216663   5.605   0.972   6.371 -0.0594 -0.1464  0.7445
  151SAPE  H12A16664   5.556   1.072   6.373  0.8990  0.5352 -2.7889
  151SAPE  H12B16665   5.583   0.912   6.462 -1.2911  0.1344  0.6572
  151SAPE   C1116666   5.560   0.899   6.245  0.1297 -0.2876 -1.0656
  151SAPE  H11A16667   5.589   0.956   6.154  1.3550  1.3185  0.2639
  151SAPE  H11B16668   5.450   0.897   6.264  0.1540  3.4544  0.2860
  151SAPE     P16669   5.554   0.654   6.160 -0.2329 -0.4072 -0.1494
  151SAPE   O1316670   5.481   0.717   6.050 -0.3813 -0.0933 -0.5192
  151SAPE   O1416671   5.648   0.543   6.128 -0.1630 -1.2062 -0.0188
  151SAPE   O1216672   5.630   0.770   6.235  0.3172 -0.8573  0.1086
  151SAPE   O1116673   5.445   0.615   6.265  0.1449  0.0719 -0.1497
  151SAPE    C116674   5.406   0.475   6.274  0.1875  0.3019  0.1898
  151SAPE    HA16675   5.301   0.454   6.244  0.6851 -2.7486  0.2178
  151SAPE    HB16676   5.458   0.402   6.207 -0.1490 -0.3517  0.6263
  151SAPE    C216677   5.427   0.432   6.420  0.0749  0.0344  0.5486
  151SAPE    HS16678   5.424   0.321   6.426  0.3891 -0.0134 -0.1174
  151SAPE   O2116679   5.332   0.487   6.503  0.0576  0.3629  0.0111
  151SAPE   C2116680   5.214   0.427   6.520  0.1068  0.4131 -1.1977
  151SAPE   O2216681   5.174   0.333   6.454  0.1335  0.5684 -0.0557
  151SAPE   C2216682   5.139   0.491   6.632  0.0236 -0.8955  0.2529
  151SAPE   H2R16683   5.200   0.566   6.687  0.2845 -0.9774  0.0767
  151SAPE   H2S16684   5.047   0.541   6.594 -0.3662  0.3332  2.6203
  151SAPE    C316685   5.573   0.469   6.470 -0.0324 -0.2567 -0.1538
  151SAPE    HX16686   5.594   0.578   6.461 -0.4332 -0.1746 -0.1511
  151SAPE    HY16687   5.639   0.424   6.393  0.1570  0.0144 -0.1488
  151SAPE   O3116688   5.607   0.419   6.602 -0.3594 -0.0986 -0.3803
  151SAPE   C3116689   5.691   0.489   6.673 -0.3504  0.1623  0.1241
  151SAPE   O3216690   5.741   0.598   6.652  0.9481 -0.3729  0.0385
  151SAPE   C3216691   5.694   0.431   6.816  0.5510  0.7899  0.5661
  151SAPE   H2X16692   5.733   0.328   6.803 -0.2693  0.5322  0.0721
  151SAPE   H2Y16693   5.589   0.432   6.853 -0.2852  0.3031 -1.6670
  151SAPE   C2316694   5.101   0.392   6.737 -0.6521 -0.3772 -0.3685
  151SAPE   H3R16695   5.075   0.290   6.704 -0.6237 -0.4507 -0.1673
  151SAPE   H3S16696   5.009   0.417   6.795 -0.9810 -0.7548 -0.7313
  151SAPE   C2416697   5.202   0.368   6.850  0.2923 -0.0149  0.5274
  151SAPE   H4R16698   5.236   0.466   6.889 -0.4198  0.4727 -0.0522
  151SAPE   H4S16699   5.292   0.321   6.805 -0.0938 -1.7379  1.4548
  151SAPE   C2516700   5.171   0.272   6.958 -0.4484 -0.7418 -0.2941
  151SAPE   H5R16701   5.187   0.166   6.931 -0.7508 -1.5385  2.3593
  151SAPE   C2616702   5.135   0.299   7.085 -0.2961 -0.5263 -0.6121
  151SAPE   H6R16703   5.111   0.216   7.152  2.1195 -0.9029 -0.1097
  151SAPE   C2716704   5.114   0.436   7.151 -0.4507  0.0981  0.1606
  151SAPE   H7R16705   5.072   0.510   7.080  0.9638 -0.2004 -1.0462
  151SAPE   H7S16706   5.219   0.455   7.182  0.0439  0.3800 -1.5641
  151SAPE   C2816707   5.032   0.438   7.281  0.3705  0.7666  0.1643
  151SAPE   H8R16708   4.931   0.480   7.277  0.2946  0.9652  2.6870
  151SAPE   C2916709   5.061   0.379   7.395  0.0248  0.0251  0.0354
  151SAPE   H9R16710   4.982   0.383   7.470  0.0624 -1.3623  0.1780
  151SAPE  C21016711   5.188   0.305   7.434  1.1300  0.2039  0.4258
  151SAPE  H10R16712   5.263   0.363   7.493  2.4447 -2.5951  1.6899
  151SAPE  H10S16713   5.241   0.263   7.346  0.9940  1.7081 -0.4148
  151SAPE  C21116714   5.148   0.180   7.512  0.9132 -1.1029  0.1246
  151SAPE  H11R16715   5.108   0.103   7.444 -1.8019  0.4700 -0.2231
  151SAPE  C21216716   5.161   0.161   7.647  0.0763 -0.0446 -0.2955
  151SAPE  H12R16717   5.133   0.063   7.688 -0.8961  1.1857  2.1336
  151SAPE  C21316718   5.225   0.262   7.746 -0.1457  0.0815 -0.5798
  151SAPE  H13R16719   5.290   0.330   7.688  0.1781  1.5349  1.3826
  151SAPE  H13S16720   5.310   0.214   7.798  1.2166  3.8757  1.0385
  151SAPE  C21416721   5.133   0.344   7.836  0.1457  0.2010 -0.1792
  151SAPE  H14R16722   5.040   0.371   7.785 -0.3880  0.1705  0.7577
  151SAPE  C21516723   5.164   0.380   7.958 -0.1575 -0.2539 -0.0083
  151SAPE  H15R16724   5.096   0.436   8.023 -1.1768 -1.4110 -0.0456
  151SAPE  C21616725   5.290   0.349   8.035 -0.2854  0.0153 -0.6738
  151SAPE  H16R16726   5.340   0.435   8.084 -0.5615 -0.7691  1.0521
  151SAPE  H16S16727   5.369   0.294   7.979 -0.1262 -0.3657 -0.0709
  151SAPE  C21716728   5.259   0.247   8.149  0.4707 -0.2933 -0.0076
  151SAPE  H17R16729   5.333   0.169   8.178 -0.6793 -0.5091  2.5253
  151SAPE  H17S16730   5.178   0.185   8.105  0.5620  0.6065 -1.5183
  151SAPE  C21816731   5.226   0.320   8.273 -0.0795 -0.1113 -0.2074
  151SAPE  H18R16732   5.138   0.386   8.253  0.6805  1.1766  0.5560
  151SAPE  H18S16733   5.308   0.385   8.311  0.3020  0.2062 -1.5067
  151SAPE  C21916734   5.180   0.228   8.396  0.2525 -0.6165  0.0253
  151SAPE  H19R16735   5.266   0.170   8.438  0.5458 -0.3672 -0.2268
  151SAPE  H19S16736   5.097   0.172   8.347 -0.0418  0.2350 -0.4575
  151SAPE  C22016737   5.120   0.320   8.503  0.8956 -0.1017 -0.3841
  151SAPE  H20R16738   5.102   0.276   8.603  0.5921  2.8650  0.9636
  151SAPE  H20S16739   5.198   0.396   8.524  1.0280  0.0047 -1.1990
  151SAPE  H20T16740   5.031   0.375   8.464 -2.7891 -1.2814  5.2278
  151SAPE   C3316741   5.789   0.521   6.903  0.7461 -0.0112  0.5453
  151SAPE   H3X16742   5.750   0.625   6.909 -2.1269 -0.9923  0.1227
  151SAPE   H3Y16743   5.889   0.524   6.854  0.7150 -1.0284  0.3869
  151SAPE   C3416744   5.805   0.467   7.041 -0.9375  0.0458  0.2181
  151SAPE   H4X16745   5.825   0.358   7.050 -2.8958 -0.3106  0.7213
  151SAPE   H4Y16746   5.703   0.469   7.084 -1.1447  0.2151 -0.2726
  151SAPE   C3516747   5.915   0.548   7.119 -0.2763 -0.1702 -0.1745
  151SAPE   H5X16748   5.921   0.650   7.074  0.7771 -1.1268 -2.3790
  151SAPE   H5Y16749   6.014   0.512   7.085 -0.2956  0.9553 -1.5242
  151SAPE   C3616750   5.891   0.548   7.266 -0.1267  0.4930 -0.7475
  151SAPE   H6X16751   5.866   0.445   7.296 -0.2534  0.7338 -0.0172
  151SAPE   H6Y16752   5.800   0.610   7.279 -1.6555 -1.7238 -0.5431
  151SAPE   C3716753   6.000   0.611   7.352 -0.3238  0.5336 -0.0688
  151SAPE   H7X16754   6.006   0.720   7.329 -0.4621  0.8482  1.3050
  151SAPE   H7Y16755   6.098   0.561   7.338 -1.2225 -0.9508 -1.5067
  151SAPE   C3816756   5.955   0.591   7.498  0.5684  0.5683 -0.5589
  151SAPE   H8X16757   5.961   0.481   7.516 -0.1246  0.3708 -1.5036
  151SAPE   H8Y16758   5.850   0.627   7.510 -0.0890 -0.3662 -2.9889
  151SAPE   C3916759   6.034   0.656   7.618 -0.8297 -0.4556  0.0966
  151SAPE   H9X16760   6.026   0.766   7.635 -0.2217 -0.7636  2.7992
  151SAPE   H9Y16761   6.144   0.646   7.611 -0.6433 -0.8381  2.7627
  151SAPE  C31016762   5.993   0.595   7.757  0.0748 -0.3813  0.3245
  151SAPE  H10X16763   6.008   0.485   7.755  0.2715 -0.3876  1.3935
  151SAPE  H10Y16764   5.886   0.617   7.774 -0.0998  0.8050 -1.9644
  151SAPE  C31116765   6.083   0.653   7.866  1.0320 -0.2587  0.7768
  151SAPE  H11X16766   6.076   0.764   7.862 -1.4464 -0.3812  0.2475
  151SAPE  H11Y16767   6.189   0.625   7.847  0.7619  0.0239 -1.5218
  151SAPE  C31216768   6.041   0.606   7.997 -0.2172  0.1555  0.4978
  151SAPE  H12X16769   6.025   0.496   7.987 -0.2843  0.1659  0.4895
  151SAPE  H12Y16770   5.943   0.653   8.018 -0.5024  0.9637 -2.3297
  151SAPE  C31316771   6.133   0.650   8.108 -0.2314  1.2168  0.2003
  151SAPE  H13X16772   6.151   0.758   8.091 -1.0252  1.1010 -1.6288
  151SAPE  H13Y16773   6.228   0.594   8.097 -1.2383 -0.0637 -3.4697
  151SAPE  C31416774   6.074   0.632   8.249  0.6644 -0.0334  0.1739
  151SAPE  H14X16775   5.993   0.558   8.229 -1.0902  1.5755  1.0662
  151SAPE  H14Y16776   6.016   0.721   8.280  1.4611 -0.2133  2.2966
  151SAPE  C31516777   6.174   0.590   8.356  0.8025 -0.2088  0.5553
  151SAPE  H15X16778   6.243   0.677   8.365 -0.4085  0.8825 -0.3500
  151SAPE  H15Y16779   6.231   0.497   8.336 -0.2315 -1.1814  1.9677
  151SAPE  C31616780   6.119   0.573   8.493 -0.4399  0.3303  0.3813
  151SAPE  H16X16781   6.205   0.547   8.558 -0.6012  2.7695  1.7151
  151SAPE  H16Y16782   6.044   0.493   8.512 -1.0515  0.2305 -2.1315
  151SAPE  C31716783   6.079   0.705   8.558 -0.0804 -0.1272 -0.4813
  151SAPE  H17X16784   5.984   0.733   8.507  0.7634 -1.3695 -2.9309
  151SAPE  H17Y16785   6.158   0.774   8.519 -0.1530 -0.0620 -0.5128
  151SAPE  C31816786   6.063   0.710   8.714  0.2326  0.6805  0.3433
  151SAPE  H18X16787   5.991   0.630   8.742  1.5604 -0.7880 -0.2349
  151SAPE  H18Y16788   6.029   0.812   8.741  0.4337  0.7725  0.2506
  151SAPE  H18Z16789   6.165   0.690   8.753  0.0257  0.1131  0.6040
  152SAPE     N16790   2.465   5.320   6.548  0.0627 -0.1316 -0.6862
  152SAPE   HN116791   2.413   5.386   6.487  1.1741  0.3423 -1.1482
  152SAPE   HN216792   2.561   5.313   6.507  0.2188  0.0051 -0.3489
  152SAPE   HN316793   2.421   5.228   6.528  1.2905 -0.6514 -1.1348
  152SAPE   C1216794   2.446   5.363   6.682 -0.8490 -0.4077 -0.2347
  152SAPE  H12A16795   2.483   5.468   6.688  3.2388 -1.7165  0.7016
  152SAPE  H12B16796   2.509   5.303   6.752 -0.4651 -0.5312 -0.6851
  152SAPE   C1116797   2.300   5.349   6.725  0.3964  0.0736 -0.4711
  152SAPE  H11A16798   2.270   5.389   6.824  2.6453 -0.1084  0.3407
  152SAPE  H11B16799   2.280   5.240   6.733  0.6661  0.0697  0.1836
  152SAPE     P16800   2.151   5.543   6.620 -0.2360  0.1440  0.0589
  152SAPE   O1316801   2.259   5.634   6.585 -0.3733 -0.1292 -0.3704
  152SAPE   O1416802   2.034   5.553   6.530  0.1941 -0.0048 -0.3242
  152SAPE   O1216803   2.205   5.394   6.628  0.4214 -0.2974  0.1356
  152SAPE   O1116804   2.099   5.570   6.773 -0.6583 -0.3271  0.1770
  152SAPE    C116805   2.062   5.701   6.803 -0.9116 -0.0134 -0.3228
  152SAPE    HA16806   2.073   5.771   6.717 -2.5975  0.8593  0.1272
  152SAPE    HB16807   1.953   5.696   6.824 -1.0269  1.2561 -0.5502
  152SAPE    C216808   2.151   5.782   6.901  0.0707  0.8030  0.4529
  152SAPE    HS16809   2.244   5.810   6.848 -0.6432  0.4446 -1.0423
  152SAPE   O2116810   2.177   5.708   7.013  0.5174 -0.5725 -1.2132
  152SAPE   C2116811   2.291   5.649   7.028  0.4786 -0.2498 -0.3581
  152SAPE   O2216812   2.383   5.660   6.951 -0.3619  0.3638 -0.1218
  152SAPE   C2216813   2.279   5.575   7.156 -0.1667 -0.1786 -0.4134
  152SAPE   H2R16814   2.383   5.571   7.195  0.1756  0.3684 -1.2444
  152SAPE   H2S16815   2.222   5.635   7.229  1.7585  1.6788 -0.3459
  152SAPE    C316816   2.072   5.908   6.940  0.0596 -0.1146 -0.8899
  152SAPE    HX16817   1.972   5.876   6.975 -0.4879  0.4450 -1.9104
  152SAPE    HY16818   2.052   5.965   6.847 -1.4536  0.0321 -0.5002
  152SAPE   O3116819   2.139   5.993   7.039  0.0509  0.3096  0.0421
  152SAPE   C3116820   2.052   6.072   7.100 -0.0224  0.0298 -0.4972
  152SAPE   O3216821   1.936   6.083   7.069 -0.1010 -0.4922 -0.7894
  152SAPE   C3216822   2.124   6.144   7.210 -0.3372  0.0281 -0.0067
  152SAPE   H2X16823   2.179   6.226   7.159 -1.3454  0.1985 -0.8534
  152SAPE   H2Y16824   2.191   6.064   7.247 -0.4818  0.0081  0.2132
  152SAPE   C2316825   2.219   5.430   7.131 -0.9075 -0.4398 -0.1987
  152SAPE   H3R16826   2.288   5.382   7.058  0.2416  2.5566 -1.2594
  152SAPE   H3S16827   2.129   5.449   7.069  0.1320 -0.3373 -1.7304
  152SAPE   C2416828   2.188   5.350   7.259 -0.3414 -0.0445 -0.0875
  152SAPE   H4R16829   2.133   5.254   7.246  0.0726 -0.2663 -0.2222
  152SAPE   H4S16830   2.112   5.403   7.320  1.8478  0.2901  2.5605
  152SAPE   C2516831   2.313   5.322   7.341  0.1654  0.4644  0.3569
  152SAPE   H5R16832   2.400   5.312   7.275  0.3530  3.0257  0.1513
  152SAPE   C2616833   2.313   5.296   7.472  0.2701  0.0673 -0.3306
  152SAPE   H6R16834   2.404   5.253   7.518  0.3827 -1.6281 -2.0143
  152SAPE   C2716835   2.191   5.305   7.564 -0.3600 -0.0173  0.7510
  152SAPE   H7R16836   2.117   5.228   7.533  2.0955 -2.1036 -0.3525
  152SAPE   H7S16837   2.141   5.402   7.543  0.6388  0.3931  0.1517
  152SAPE   C2816838   2.236   5.299   7.712 -0.7078  0.1331  0.0348
  152SAPE   H8R16839   2.276   5.390   7.759  1.9863 -0.3344 -1.1466
  152SAPE   C2916840   2.227   5.190   7.790  0.0897  0.0182  0.2676
  152SAPE   H9R16841   2.266   5.200   7.892  2.7044 -1.3423 -0.5166
  152SAPE  C21016842   2.201   5.049   7.746 -0.2084  0.8326 -0.1812
  152SAPE  H10R16843   2.280   5.012   7.677 -1.3490 -1.3885 -0.3740
  152SAPE  H10S16844   2.105   5.054   7.689 -2.8816  4.3206  4.0267
  152SAPE  C21116845   2.196   4.967   7.868  0.2162  0.1940 -0.2545
  152SAPE  H11R16846   2.289   4.973   7.928  0.5492 -0.6926 -0.6664
  152SAPE  C21216847   2.078   4.931   7.930 -0.5612  0.1042  0.6988
  152SAPE  H12R16848   2.079   4.858   8.013 -1.3885 -1.0556 -0.2717
  152SAPE  C21316849   1.937   4.950   7.881  0.4402  0.2064 -0.0604
  152SAPE  H13R16850   1.895   4.850   7.857  0.3552  0.0039  0.8835
  152SAPE  H13S16851   1.921   5.002   7.785 -0.0596  1.3441  0.6178
  152SAPE  C21416852   1.853   5.012   7.992 -0.5913  0.5661  0.5081
  152SAPE  H14R16853   1.813   4.937   8.063 -0.1049  0.1207  0.3179
  152SAPE  C21516854   1.805   5.138   7.994  0.1836  0.1147  0.2487
  152SAPE  H15R16855   1.742   5.180   8.074  0.7562  1.4948  0.0036
  152SAPE  C21616856   1.844   5.253   7.903 -0.1166 -0.3287 -0.1218
  152SAPE  H16R16857   1.941   5.228   7.854 -0.8720 -1.1190 -1.2816
  152SAPE  H16S16858   1.872   5.343   7.961  0.1943 -0.7325  0.3653
  152SAPE  C21716859   1.743   5.290   7.793 -0.1156  0.3046  0.6056
  152SAPE  H17R16860   1.712   5.191   7.754 -1.5889  0.2986  1.6822
  152SAPE  H17S16861   1.798   5.357   7.723 -1.7243  0.5087 -0.5093
  152SAPE  C21816862   1.615   5.352   7.843  0.0662  0.1696  0.4879
  152SAPE  H18R16863   1.574   5.282   7.919 -1.0419 -0.0851 -0.3140
  152SAPE  H18S16864   1.544   5.348   7.758  0.2316  2.7266  0.1493
  152SAPE  C21916865   1.617   5.492   7.903 -0.1524 -0.5032  0.1084
  152SAPE  H19R16866   1.623   5.561   7.816  0.6607  2.0750  2.0396
  152SAPE  H19S16867   1.706   5.504   7.969 -0.6595 -1.1971  0.9440
  152SAPE  C22016868   1.488   5.529   7.972 -0.2731 -0.5558 -0.2381
  152SAPE  H20R16869   1.408   5.536   7.896 -1.1272  1.2138  0.7581
  152SAPE  H20S16870   1.507   5.622   8.031 -1.1798  0.1698 -1.0710
  152SAPE  H20T16871   1.454   5.451   8.043  1.9644 -1.0486  0.3892
  152SAPE   C3316872   2.036   6.198   7.318  0.1984 -0.2896 -0.6870
  152SAPE   H3X16873   1.937   6.148   7.319 -0.8948  1.7785 -0.1532
  152SAPE   H3Y16874   2.003   6.301   7.293  0.5902  0.2170  0.8153
  152SAPE   C3416875   2.083   6.194   7.460 -0.6052  0.1798 -0.9009
  152SAPE   H4X16876   2.185   6.236   7.474 -0.0353 -1.2565 -0.5932
  152SAPE   H4Y16877   2.098   6.087   7.487  2.4773  0.6046 -0.5716
  152SAPE   C3516878   1.991   6.263   7.558 -0.1073  0.4768 -0.1216
  152SAPE   H5X16879   1.887   6.228   7.539  0.3490 -1.8225  1.2452
  152SAPE   H5Y16880   1.998   6.374   7.554  2.4067  0.4001  0.6779
  152SAPE   C3616881   2.028   6.237   7.703  0.2981  0.1170 -0.0974
  152SAPE   H6X16882   2.125   6.290   7.711 -0.5431  2.2462 -2.6718
  152SAPE   H6Y16883   2.044   6.129   7.726  1.6774  0.7766  2.4277
  152SAPE   C3716884   1.923   6.282   7.810 -0.0879  0.1596  0.1634
  152SAPE   H7X16885   1.832   6.228   7.776  1.0674 -0.7438 -1.6313
  152SAPE   H7Y16886   1.909   6.392   7.803 -0.8093  0.1493  1.1358
  152SAPE   C3816887   1.963   6.237   7.948 -0.1727 -0.2257 -0.0340
  152SAPE   H8X16888   1.920   6.310   8.019  0.5105 -0.3638  0.5358
  152SAPE   H8Y16889   2.072   6.256   7.951  0.0827 -0.7423 -2.7773
  152SAPE   C3916890   1.937   6.094   7.962  0.6187  0.2871 -0.4462
  152SAPE   H9X16891   1.971   6.071   8.066 -1.2757 -1.6687 -0.1767
  152SAPE   H9Y16892   1.983   6.036   7.879  0.5829 -0.7799  0.2479
  152SAPE  C31016893   1.790   6.060   7.966  1.5693  0.9164  0.5754
  152SAPE  H10X16894   1.720   6.146   7.974 -1.1948 -1.1833  0.4494
  152SAPE  H10Y16895   1.778   5.994   8.054  2.5454  1.5756  1.2227
  152SAPE  C31116896   1.739   5.981   7.846 -0.6082 -0.9398  0.1897
  152SAPE  H11X16897   1.782   5.879   7.852  3.1229  0.2553 -2.4178
  152SAPE  H11Y16898   1.785   6.036   7.762 -0.9795 -0.0566  0.5520
  152SAPE  C31216899   1.587   5.981   7.835 -0.6011 -0.4721 -0.3135
  152SAPE  H12X16900   1.566   5.939   7.735 -2.2057 -1.0174  0.2323
  152SAPE  H12Y16901   1.537   6.080   7.832 -0.4921 -0.3201  1.5759
  152SAPE  C31316902   1.523   5.895   7.940 -0.2475 -0.4131 -0.2122
  152SAPE  H13X16903   1.533   5.937   8.043 -1.7400  2.6176 -1.2074
  152SAPE  H13Y16904   1.574   5.796   7.944  3.1181  1.0343 -2.6302
  152SAPE  C31416905   1.378   5.876   7.897 -0.4206 -0.4580  0.2472
  152SAPE  H14X16906   1.334   5.776   7.915 -0.4905 -0.7100 -1.1703
  152SAPE  H14Y16907   1.369   5.880   7.786  1.3279  1.4165  0.1036
  152SAPE  C31516908   1.300   5.992   7.953  1.0251 -0.1321 -0.1809
  152SAPE  H15X16909   1.218   6.016   7.882  0.6086 -0.0263  0.3323
  152SAPE  H15Y16910   1.365   6.082   7.952  0.1836  0.4847 -0.2485
  152SAPE  C31616911   1.257   5.981   8.101  0.8673 -0.3272  0.0214
  152SAPE  H16X16912   1.210   6.077   8.129 -0.5336 -0.8372 -0.4949
  152SAPE  H16Y16913   1.339   5.950   8.170  0.8978  0.5190  0.3719
  152SAPE  C31716914   1.140   5.875   8.120 -0.3118 -0.1179 -0.0125
  152SAPE  H17X16915   1.111   5.890   8.226 -0.2463  1.2258 -0.1626
  152SAPE  H17Y16916   1.169   5.769   8.105 -3.5414 -0.8806 -1.5837
  152SAPE  C31816917   1.013   5.890   8.024 -0.1199 -0.7752 -0.3206
  152SAPE  H18X16918   1.044   5.865   7.920  0.6765  0.4398 -0.4007
  152SAPE  H18Y16919   0.964   5.990   8.029 -1.2232 -1.3325  0.6024
  152SAPE  H18Z16920   0.930   5.820   8.045  1.3319 -2.3507  0.3377
  153SAPE     N16921   5.556   5.164   6.050  0.4293 -0.2578  0.7784
  153SAPE   HN116922   5.495   5.246   6.027  1.9065  0.9874  1.1357
  153SAPE   HN216923   5.652   5.183   6.015  0.8497 -4.3409 -0.8203
  153SAPE   HN316924   5.527   5.077   6.001  1.2810 -0.4786  0.6460
  153SAPE   C1216925   5.550   5.126   6.194  0.4462 -0.0989  0.4228
  153SAPE  H12A16926   5.457   5.171   6.235  0.0720 -0.4320 -0.0557
  153SAPE  H12B16927   5.632   5.176   6.251 -0.3320  0.0191  1.4601
  153SAPE   C1116928   5.548   4.972   6.216 -0.1651  0.6359  0.3491
  153SAPE  H11A16929   5.453   4.944   6.165  0.5018 -0.7207 -0.1814
  153SAPE  H11B16930   5.537   4.953   6.325 -0.8726 -2.2237 -0.1354
  153SAPE     P16931   5.806   4.932   6.226  0.0446  0.4452  0.0989
  153SAPE   O1316932   5.886   4.814   6.188  0.4726  0.1693  0.5490
  153SAPE   O1416933   5.868   5.056   6.180 -0.4595 -0.4076 -0.2606
  153SAPE   O1216934   5.662   4.905   6.153  0.3823 -0.0105 -0.1235
  153SAPE   O1116935   5.774   4.931   6.380 -0.0609 -0.1929  0.3636
  153SAPE    C116936   5.759   4.803   6.442 -0.0649  0.1183 -0.1967
  153SAPE    HA16937   5.661   4.802   6.495  0.3245 -1.0516  0.5202
  153SAPE    HB16938   5.740   4.716   6.377 -0.6371 -0.5910  0.8939
  153SAPE    C216939   5.864   4.772   6.548  0.0881  0.3877  0.2063
  153SAPE    HS16940   5.823   4.694   6.616 -0.8764  0.1353 -0.6466
  153SAPE   O2116941   5.897   4.889   6.625 -0.0447  0.0902  0.1464
  153SAPE   C2116942   5.937   4.877   6.749 -0.5452 -0.2582  0.1502
  153SAPE   O2216943   5.930   4.776   6.814  0.0747 -0.3746 -0.4973
  153SAPE   C2216944   5.983   5.013   6.803  0.6498 -0.0364 -0.1134
  153SAPE   H2R16945   6.068   5.044   6.739 -0.0559  0.1977 -0.9520
  153SAPE   H2S16946   5.906   5.090   6.782 -1.4940 -2.6598 -2.7282
  153SAPE    C316947   5.996   4.720   6.490  0.4472 -0.1149 -0.1453
  153SAPE    HX16948   6.027   4.800   6.419 -0.7329  0.1244 -0.4216
  153SAPE    HY16949   5.954   4.630   6.441  1.8901 -0.8680 -0.0408
  153SAPE   O3116950   6.089   4.694   6.585 -0.5053 -0.0786 -0.4541
  153SAPE   C3116951   6.177   4.602   6.556  0.3223  1.2721 -0.0753
  153SAPE   O3216952   6.174   4.538   6.447 -0.1754  0.1420 -0.5144
  153SAPE   C3216953   6.278   4.585   6.670  0.3201 -0.5182  1.0775
  153SAPE   H2X16954   6.228   4.618   6.764  1.3546  1.1759  1.0649
  153SAPE   H2Y16955   6.366   4.648   6.647  0.6140 -1.1462  0.4416
  153SAPE   C2316956   6.054   5.008   6.944  0.9276  0.0988  0.8063
  153SAPE   H3R16957   6.121   4.919   6.945  0.7362 -0.1008 -1.0205
  153SAPE   H3S16958   5.981   4.986   7.024  0.7452  0.6673  0.7975
  153SAPE   C2416959   6.134   5.138   6.991  0.2280 -0.0640 -0.1455
  153SAPE   H4R16960   6.070   5.229   6.985  0.3886  0.0964  0.5753
  153SAPE   H4S16961   6.225   5.154   6.930  1.2494 -0.2656  1.2805
  153SAPE   C2516962   6.178   5.123   7.134 -0.0383 -0.5933  0.4311
  153SAPE   H5R16963   6.281   5.091   7.153 -0.1784 -0.9795  0.5508
  153SAPE   C2616964   6.105   5.144   7.244 -0.1892 -0.0718 -1.1199
  153SAPE   H6R16965   6.147   5.150   7.346  0.1244  3.5353 -1.3231
  153SAPE   C2716966   5.957   5.176   7.249  0.1486  0.1464  0.4525
  153SAPE   H7R16967   5.920   5.110   7.330 -1.9406 -0.0209 -0.5697
  153SAPE   H7S16968   5.912   5.134   7.157 -0.2973  0.1836  0.6519
  153SAPE   C2816969   5.920   5.321   7.274  0.1781 -0.1555  0.0257
  153SAPE   H8R16970   5.915   5.383   7.183 -0.6084 -1.1652 -0.6417
  153SAPE   C2916971   5.887   5.368   7.397 -0.6761 -0.4838 -0.0729
  153SAPE   H9R16972   5.851   5.472   7.403 -0.0343 -0.1344 -1.7824
  153SAPE  C21016973   5.900   5.298   7.530  0.5523 -0.0963 -0.6463
  153SAPE  H10R16974   5.999   5.247   7.530  0.1060 -1.3523  3.6816
  153SAPE  H10S16975   5.822   5.219   7.518 -0.8178  1.2728 -1.1460
  153SAPE  C21116976   5.888   5.371   7.662 -0.9915 -0.4031 -0.9008
  153SAPE  H11R16977   5.934   5.471   7.666 -1.4669 -0.0161 -3.3830
  153SAPE  C21216978   5.822   5.330   7.776 -0.1603  0.1178  0.5973
  153SAPE  H12R16979   5.815   5.399   7.861  1.0126 -1.3620  1.9653
  153SAPE  C21316980   5.745   5.206   7.784  0.3304 -0.6419  0.1522
  153SAPE  H13R16981   5.750   5.140   7.694 -2.0404 -1.2412  0.4010
  153SAPE  H13S16982   5.636   5.226   7.773  0.4566  0.1591  0.2935
  153SAPE  C21416983   5.779   5.122   7.899  0.7420  0.2437 -0.2680
  153SAPE  H14R16984   5.885   5.122   7.928  1.3272 -1.0129 -2.2467
  153SAPE  C21516985   5.691   5.048   7.968  0.7404  0.3507 -0.0384
  153SAPE  H15R16986   5.716   4.995   8.061  1.6225 -0.3977 -0.6841
  153SAPE  C21616987   5.539   5.039   7.946 -0.1434  0.1795 -0.6728
  153SAPE  H16R16988   5.502   5.107   7.867 -0.5613  1.1217  0.3002
  153SAPE  H16S16989   5.484   5.060   8.040 -0.3548  0.1630 -0.7923
  153SAPE  C21716990   5.490   4.903   7.894 -0.4011  0.3376  0.0478
  153SAPE  H17R16991   5.502   4.840   7.985 -0.2896 -0.1489 -0.2940
  153SAPE  H17S16992   5.559   4.858   7.819 -0.6975 -0.2686  0.1299
  153SAPE  C21816993   5.346   4.889   7.834 -0.1548  0.5504  0.2318
  153SAPE  H18R16994   5.341   4.942   7.736  1.2230  2.7388  1.2594
  153SAPE  H18S16995   5.271   4.938   7.899 -0.9225 -0.2772 -0.0138
  153SAPE  C21916996   5.309   4.742   7.796 -0.4271 -0.0462  0.6897
  153SAPE  H19R16997   5.319   4.680   7.888  3.0014  0.3711  0.7237
  153SAPE  H19S16998   5.389   4.718   7.723 -0.0377 -2.1325  1.7121
  153SAPE  C22016999   5.171   4.731   7.731  0.0519  0.0153 -0.2198
  153SAPE  H20R17000   5.148   4.623   7.717  1.7343 -0.3741 -0.1692
  153SAPE  H20S17001   5.169   4.801   7.645 -0.6958  2.2843  1.5639
  153SAPE  H20T17002   5.090   4.768   7.797  0.0921 -0.2441 -0.0234
  153SAPE   C3317003   6.325   4.435   6.687  1.2195 -1.3071 -0.1473
  153SAPE   H3X17004   6.370   4.405   6.589  0.7849 -1.3806 -0.3256
  153SAPE   H3Y17005   6.235   4.371   6.699  0.8806 -0.9676 -0.8162
  153SAPE   C3417006   6.428   4.400   6.794 -0.5743 -0.0145 -0.0191
  153SAPE   H4X17007   6.527   4.447   6.778 -0.7333  0.1312 -0.6127
  153SAPE   H4Y17008   6.442   4.290   6.799  0.3617  0.1362  1.1845
  153SAPE   C3517009   6.384   4.440   6.935  0.3926 -1.1266  0.1629
  153SAPE   H5X17010   6.289   4.391   6.965  0.4356 -1.9847 -1.0446
  153SAPE   H5Y17011   6.375   4.551   6.940  2.6474 -0.7385 -2.3915
  153SAPE   C3617012   6.485   4.396   7.047  0.5759  0.3765 -0.0723
  153SAPE   H6X17013   6.584   4.446   7.041 -0.0332  1.6169 -0.0695
  153SAPE   H6Y17014   6.507   4.288   7.030 -2.2502 -0.5206  1.2425
  153SAPE   C3717015   6.430   4.414   7.194 -0.1483  0.2015  0.5056
  153SAPE   H7X17016   6.346   4.343   7.207  1.7744 -2.1947  0.5936
  153SAPE   H7Y17017   6.403   4.522   7.203 -1.9203 -0.2274  0.6238
  153SAPE   C3817018   6.537   4.381   7.287 -0.1658  0.4069 -0.0266
  153SAPE   H8X17019   6.627   4.442   7.267 -1.1648  1.0779 -3.0873
  153SAPE   H8Y17020   6.585   4.284   7.262  2.9372  1.8886 -0.2041
  153SAPE   C3917021   6.492   4.402   7.433 -0.0205 -0.7531 -0.4214
  153SAPE   H9X17022   6.389   4.363   7.446  0.3850 -1.5878  0.4647
  153SAPE   H9Y17023   6.484   4.512   7.451  0.4480 -1.0471  1.9135
  153SAPE  C31017024   6.591   4.372   7.548 -0.1867  0.3239 -0.3918
  153SAPE  H10X17025   6.560   4.428   7.639 -0.4673 -1.7777  0.8634
  153SAPE  H10Y17026   6.693   4.408   7.524 -0.6659  1.7489 -0.3790
  153SAPE  C31117027   6.593   4.216   7.581  0.4884 -0.1569  0.6435
  153SAPE  H11X17028   6.644   4.165   7.496 -0.3280 -2.3764  1.4266
  153SAPE  H11Y17029   6.489   4.180   7.565  1.3253 -2.8379  0.8129
  153SAPE  C31217030   6.644   4.181   7.720 -0.2288 -0.4725 -0.2891
  153SAPE  H12X17031   6.641   4.071   7.734  1.9280 -0.2937  2.3147
  153SAPE  H12Y17032   6.584   4.228   7.801  0.4985 -0.6452  0.3599
  153SAPE  C31317033   6.796   4.215   7.735 -0.1639  0.3737 -0.6501
  153SAPE  H13X17034   6.808   4.316   7.780 -0.6216  0.7610 -1.3661
  153SAPE  H13Y17035   6.830   4.223   7.629  0.0418  2.2093 -0.4843
  153SAPE  C31417036   6.881   4.119   7.814 -0.2272 -0.1255  0.9213
  153SAPE  H14X17037   6.987   4.145   7.797 -0.9591  1.8270 -1.2742
  153SAPE  H14Y17038   6.848   4.023   7.769 -0.6039  0.3782  0.0927
  153SAPE  C31517039   6.858   4.121   7.963 -0.4033 -0.6948 -0.1618
  153SAPE  H15X17040   6.758   4.076   7.983 -1.1406  1.3625  1.1784
  153SAPE  H15Y17041   6.859   4.225   8.004  2.7075  0.2864 -2.3844
  153SAPE  C31617042   6.975   4.051   8.031 -0.4365  0.6525  0.0202
  153SAPE  H16X17043   7.062   4.108   7.991 -0.3138  0.5963  0.2065
  153SAPE  H16Y17044   6.986   3.946   7.997 -1.3125  0.8315 -0.8416
  153SAPE  C31717045   6.979   4.066   8.184 -0.1604 -0.3619 -0.4184
  153SAPE  H17X17046   6.886   4.023   8.227 -0.1614 -0.1786 -0.2366
  153SAPE  H17Y17047   6.986   4.173   8.215  0.7016 -0.6474  0.4001
  153SAPE  C31817048   7.096   3.991   8.244 -0.0267 -0.4432 -0.4082
  153SAPE  H18X17049   7.112   3.892   8.197  0.0411 -0.6315  0.0110
  153SAPE  H18Y17050   7.071   3.963   8.348  1.6446  0.4269  0.2643
  153SAPE  H18Z17051   7.194   4.042   8.230 -0.5553  0.4149 -1.0777
  154SAPE     N17052   4.533   4.695   5.820 -0.3068  0.1273  0.0866
  154SAPE   HN117053   4.562   4.650   5.731 -1.1461  0.0240 -0.1416
  154SAPE   HN217054   4.452   4.760   5.805 -0.9566 -0.3886  1.2283
  154SAPE   HN317055   4.616   4.748   5.854 -0.3321  1.3404 -1.5835
  154SAPE   C1217056   4.503   4.597   5.921  0.5904 -0.0026 -0.8479
  154SAPE  H12A17057   4.574   4.512   5.918 -1.2086 -1.7223  1.4792
  154SAPE  H12B17058   4.403   4.555   5.897 -0.2036  1.0895  0.3877
  154SAPE   C1117059   4.503   4.645   6.067  0.0837 -0.5251  0.2918
  154SAPE  H11A17060   4.583   4.723   6.065  0.6300 -1.0904 -1.0196
  154SAPE  H11B17061   4.533   4.565   6.138  1.4553 -1.2189 -1.0003
  154SAPE     P17062   4.353   4.768   6.241  0.3516 -0.0578 -0.4182
  154SAPE   O1317063   4.469   4.866   6.265  0.1178 -0.1476 -0.0796
  154SAPE   O1417064   4.214   4.824   6.246 -0.0481 -0.0904  0.1515
  154SAPE   O1217065   4.374   4.709   6.090 -0.4959  0.0289 -1.0136
  154SAPE   O1117066   4.372   4.638   6.333  0.2647  0.0946 -0.2982
  154SAPE    C117067   4.268   4.551   6.363 -1.1495  0.3922 -0.5500
  154SAPE    HA17068   4.174   4.561   6.305 -1.7643 -3.7966 -0.5821
  154SAPE    HB17069   4.307   4.451   6.336 -0.1406  0.6003  0.0742
  154SAPE    C217070   4.239   4.568   6.514 -0.4799 -0.2706  0.7814
  154SAPE    HS17071   4.236   4.676   6.539  2.5119 -0.1367  0.8172
  154SAPE   O2117072   4.352   4.504   6.582  0.2425 -0.7773 -0.0233
  154SAPE   C2117073   4.377   4.544   6.705  0.3730  0.0120  0.2827
  154SAPE   O2217074   4.342   4.648   6.756  0.0346  0.2108  0.1156
  154SAPE   C2217075   4.486   4.449   6.766  0.8612 -0.0894  0.4787
  154SAPE   H2R17076   4.482   4.360   6.699 -1.7163 -0.8032  1.4356
  154SAPE   H2S17077   4.587   4.493   6.774  1.0784 -0.3808 -0.4639
  154SAPE    C317078   4.104   4.497   6.548  0.2744  0.0081  0.0391
  154SAPE    HX17079   4.117   4.394   6.509 -1.6029 -0.4109  0.3869
  154SAPE    HY17080   4.014   4.536   6.497 -0.0611  0.4637  0.9536
  154SAPE   O3117081   4.087   4.486   6.692 -0.2824  0.0907 -0.4847
  154SAPE   C3117082   4.032   4.596   6.737 -0.6491 -0.5017  0.2878
  154SAPE   O3217083   3.987   4.689   6.670 -0.5997  0.3173 -0.7860
  154SAPE   C3217084   4.042   4.599   6.888 -0.5224 -0.0556 -0.1772
  154SAPE   H2X17085   4.085   4.695   6.922 -1.5258 -0.1373  1.3849
  154SAPE   H2Y17086   4.116   4.520   6.914 -0.5667  0.2072  0.7576
  154SAPE   C2317087   4.444   4.404   6.907  0.1738 -0.0476 -0.1817
  154SAPE   H3R17088   4.335   4.418   6.918  0.4096 -0.1004  3.9828
  154SAPE   H3S17089   4.489   4.474   6.981  0.2974 -2.2449  1.9562
  154SAPE   C2417090   4.488   4.262   6.939  0.3561  0.5760 -0.6957
  154SAPE   H4R17091   4.446   4.196   6.860 -0.6010  0.7777 -0.3672
  154SAPE   H4S17092   4.446   4.230   7.036 -0.1381  0.2444 -1.0121
  154SAPE   C2517093   4.634   4.242   6.936  0.2148  0.6684 -0.2086
  154SAPE   H5R17094   4.683   4.252   6.838 -1.7794 -0.5453 -1.4025
  154SAPE   C2617095   4.712   4.186   7.033  0.1716 -0.5916  0.7926
  154SAPE   H6R17096   4.815   4.163   7.005  0.6906  1.4844  0.8206
  154SAPE   C2717097   4.665   4.145   7.172  0.3148  0.1181  0.5443
  154SAPE   H7R17098   4.577   4.209   7.195 -0.3259 -0.3062 -0.6037
  154SAPE   H7S17099   4.733   4.182   7.251 -0.6134  0.4045  1.2356
  154SAPE   C2817100   4.636   3.994   7.180 -0.8355 -0.0879  0.1602
  154SAPE   H8R17101   4.569   3.949   7.105  1.4538 -1.8438 -0.9676
  154SAPE   C2917102   4.669   3.921   7.287 -0.4002 -0.0196 -0.1406
  154SAPE   H9R17103   4.644   3.814   7.282  0.6494 -0.3145  0.5968
  154SAPE  C21017104   4.747   3.964   7.419 -0.1031 -0.2880  0.0797
  154SAPE  H10R17105   4.824   4.034   7.378  0.4748 -0.8058  0.2711
  154SAPE  H10S17106   4.797   3.883   7.476 -1.4501 -1.0420  0.2262
  154SAPE  C21117107   4.666   4.045   7.519 -0.3384 -0.7900 -0.2182
  154SAPE  H11R17108   4.622   4.139   7.483 -1.2634  0.5945  3.9495
  154SAPE  C21217109   4.632   4.015   7.641 -0.4765 -0.0900  0.0557
  154SAPE  H12R17110   4.547   4.075   7.679  0.9234  1.8789  0.2478
  154SAPE  C21317111   4.673   3.881   7.703 -0.6441 -0.1402 -0.3694
  154SAPE  H13R17112   4.783   3.889   7.690 -0.7892  2.1677 -0.5789
  154SAPE  H13S17113   4.646   3.787   7.651 -0.2387  0.5469 -1.8747
  154SAPE  C21417114   4.628   3.887   7.849 -0.2657 -0.1965 -0.0848
  154SAPE  H14R17115   4.529   3.931   7.865  0.8858  2.8108 -0.5919
  154SAPE  C21517116   4.703   3.859   7.956 -0.1489 -0.1599  0.2280
  154SAPE  H15R17117   4.650   3.873   8.051  1.8296  2.1486  1.0991
  154SAPE  C21617118   4.847   3.814   7.965 -0.1963  0.1819  0.5379
  154SAPE  H16R17119   4.911   3.889   8.016 -0.3983  1.1526 -0.5967
  154SAPE  H16S17120   4.886   3.788   7.864 -1.6947 -0.0556 -0.0044
  154SAPE  C21717121   4.867   3.678   8.044 -0.8209 -0.0253  0.5116
  154SAPE  H17R17122   4.976   3.656   8.048 -1.2429 -2.1640  2.0222
  154SAPE  H17S17123   4.813   3.589   8.004  0.1169 -0.7383  0.7799
  154SAPE  C21817124   4.819   3.690   8.194  0.3878  0.3617  0.5572
  154SAPE  H18R17125   4.711   3.715   8.193  0.1075 -0.7767 -0.3954
  154SAPE  H18S17126   4.865   3.778   8.243 -1.1432  0.0371  2.6955
  154SAPE  C21917127   4.849   3.559   8.274 -0.4366 -0.4254 -0.4906
  154SAPE  H19R17128   4.924   3.498   8.219  0.6781  0.7609 -0.3519
  154SAPE  H19S17129   4.748   3.513   8.278 -0.5213 -0.2438 -0.5432
  154SAPE  C22017130   4.895   3.596   8.418  0.4703  0.4215 -0.0090
  154SAPE  H20R17131   4.823   3.663   8.468 -0.0345 -0.7201  0.8502
  154SAPE  H20S17132   4.994   3.645   8.406  0.4234  0.5514  0.1359
  154SAPE  H20T17133   4.913   3.501   8.474 -0.5918 -0.1430 -0.5952
  154SAPE   C3317134   3.901   4.573   6.953 -0.3300 -0.8814  0.8438
  154SAPE   H3X17135   3.864   4.473   6.923  0.5035 -0.8657 -0.3053
  154SAPE   H3Y17136   3.820   4.636   6.909  0.2246 -1.3288 -0.8761
  154SAPE   C3417137   3.897   4.589   7.105 -0.0549  0.6182 -0.7954
  154SAPE   H4X17138   3.805   4.569   7.164  0.7045 -0.2642  0.1346
  154SAPE   H4Y17139   3.924   4.695   7.124 -0.8320  0.5237  1.0637
  154SAPE   C3517140   4.016   4.510   7.173  0.4550 -0.0761  0.1644
  154SAPE   H5X17141   4.018   4.552   7.276 -2.0185  0.5546  0.0339
  154SAPE   H5Y17142   4.107   4.543   7.120 -0.3384  0.3653 -0.9574
  154SAPE   C3617143   3.998   4.356   7.182  0.3026 -0.4143 -0.1517
  154SAPE   H6X17144   3.973   4.309   7.085  3.7764  2.4746 -2.7624
  154SAPE   H6Y17145   3.910   4.332   7.244 -1.3389  2.9227 -0.9206
  154SAPE   C3717146   4.121   4.277   7.238 -0.4820  0.9210 -0.6284
  154SAPE   H7X17147   4.196   4.264   7.157  0.3874 -0.4696  0.3446
  154SAPE   H7Y17148   4.078   4.176   7.255  0.1767  0.6120 -0.7519
  154SAPE   C3817149   4.192   4.326   7.360 -0.0005 -0.2761 -0.1137
  154SAPE   H8X17150   4.121   4.339   7.445  0.9322 -1.7967  0.9356
  154SAPE   H8Y17151   4.218   4.432   7.341 -0.3519 -0.4290 -1.5753
  154SAPE   C3917152   4.317   4.249   7.412  0.4179 -0.4953 -0.0152
  154SAPE   H9X17153   4.392   4.232   7.331 -0.4659  1.3951 -1.3087
  154SAPE   H9Y17154   4.277   4.147   7.433 -0.0254 -0.3777 -0.2687
  154SAPE  C31017155   4.374   4.319   7.530  0.0012 -0.6231  0.2465
  154SAPE  H10X17156   4.388   4.427   7.507  0.2244 -0.9225 -1.1100
  154SAPE  H10Y17157   4.476   4.279   7.545  1.1487  1.2241 -1.9999
  154SAPE  C31117158   4.291   4.309   7.657  0.5475  0.9102  0.7036
  154SAPE  H11X17159   4.250   4.205   7.657 -0.9262  1.4675  0.4257
  154SAPE  H11Y17160   4.200   4.372   7.651 -0.1899 -0.2956 -2.2677
  154SAPE  C31217161   4.373   4.330   7.786  0.1517 -0.5557  0.1632
  154SAPE  H12X17162   4.408   4.435   7.799  0.9751 -0.9580  1.2925
  154SAPE  H12Y17163   4.457   4.258   7.784  0.9626  0.3726 -1.3476
  154SAPE  C31317164   4.271   4.300   7.900 -0.1656 -0.3556  0.6304
  154SAPE  H13X17165   4.244   4.193   7.896 -1.5221 -0.0307  0.6066
  154SAPE  H13Y17166   4.178   4.354   7.871 -2.7999 -2.9562  3.5977
  154SAPE  C31417167   4.320   4.346   8.032  0.1944  0.9160 -0.2337
  154SAPE  H14X17168   4.343   4.454   8.031 -2.4250  1.5334 -1.5865
  154SAPE  H14Y17169   4.421   4.302   8.051  0.9225  2.6397  0.0599
  154SAPE  C31517170   4.225   4.311   8.154 -0.1124  0.5669  0.1828
  154SAPE  H15X17171   4.194   4.205   8.162  1.4033  0.1604  1.0549
  154SAPE  H15Y17172   4.135   4.377   8.146  0.3702  1.3006  0.6257
  154SAPE  C31617173   4.296   4.321   8.293 -0.2696 -0.1376  0.4054
  154SAPE  H16X17174   4.346   4.420   8.304 -0.3944 -0.0279  0.0164
  154SAPE  H16Y17175   4.372   4.241   8.292 -0.5099 -0.3824  1.1200
  154SAPE  C31717176   4.197   4.308   8.407 -0.1406 -0.0819 -0.3740
  154SAPE  H17X17177   4.129   4.223   8.382 -1.2912  0.4529  0.8055
  154SAPE  H17Y17178   4.136   4.400   8.403  0.9410  0.6346 -0.8445
  154SAPE  C31817179   4.268   4.323   8.538  0.6332  0.2389  0.0707
  154SAPE  H18X17180   4.199   4.342   8.622 -1.1433 -0.5965 -1.1445
  154SAPE  H18Y17181   4.343   4.402   8.516  1.7825 -0.6615  0.6172
  154SAPE  H18Z17182   4.339   4.239   8.556  3.2671  2.0106 -1.3994
  155SAPE     N17183   4.197   5.650   6.274 -0.0171 -0.4300 -0.3046
  155SAPE   HN117184   4.216   5.661   6.173  2.8186  2.4203  0.3705
  155SAPE   HN217185   4.182   5.550   6.300  1.6201 -0.1950  1.9308
  155SAPE   HN317186   4.124   5.713   6.312 -0.9189 -1.6749  0.0943
  155SAPE   C1217187   4.314   5.694   6.362  0.7832  0.0203  0.2957
  155SAPE  H12A17188   4.282   5.675   6.467 -1.0360  0.6417 -0.1181
  155SAPE  H12B17189   4.330   5.802   6.342 -0.4226 -0.1931 -2.2477
  155SAPE   C1117190   4.436   5.621   6.312 -0.7119  0.4080 -0.5033
  155SAPE  H11A17191   4.522   5.654   6.373  0.1671  0.5401 -1.7741
  155SAPE  H11B17192   4.460   5.658   6.210 -2.7919  0.1643 -1.1339
  155SAPE     P17193   4.362   5.383   6.410 -0.1163 -0.2445 -0.6713
  155SAPE   O1317194   4.219   5.425   6.427  0.6673  0.0691  0.6683
  155SAPE   O1417195   4.374   5.244   6.360 -0.6888 -0.5830 -0.1373
  155SAPE   O1217196   4.422   5.477   6.304  0.0717 -0.3271  0.9864
  155SAPE   O1117197   4.451   5.399   6.549  0.4549  0.5424 -0.5607
  155SAPE    C117198   4.382   5.404   6.671 -0.3621  0.4521  0.2371
  155SAPE    HA17199   4.362   5.511   6.691 -2.8702  0.0810  0.0759
  155SAPE    HB17200   4.283   5.354   6.667 -0.1140 -0.0430  0.1867
  155SAPE    C217201   4.464   5.351   6.793  0.0815 -0.2763 -0.3314
  155SAPE    HS17202   4.562   5.403   6.784  0.1423  0.4962  3.3541
  155SAPE   O2117203   4.475   5.210   6.793  0.2781 -0.1778  0.6723
  155SAPE   C2117204   4.585   5.151   6.760  0.2475 -0.2276  0.2573
  155SAPE   O2217205   4.682   5.207   6.711 -0.2215 -0.6420 -0.1730
  155SAPE   C2217206   4.580   5.001   6.790  0.0607  0.6007 -0.0601
  155SAPE   H2R17207   4.483   4.978   6.838  1.0988 -2.1320  0.9377
  155SAPE   H2S17208   4.577   4.950   6.691 -0.0443  0.0659  0.2176
  155SAPE    C317209   4.407   5.399   6.929  0.3354 -0.1118  0.5377
  155SAPE    HX17210   4.310   5.345   6.933  0.5678 -0.8833 -2.2316
  155SAPE    HY17211   4.389   5.508   6.919 -1.0798 -0.2719  1.0977
  155SAPE   O3117212   4.486   5.353   7.041 -0.8789  0.2438 -0.4731
  155SAPE   C3117213   4.456   5.429   7.149 -0.5840 -0.2898 -0.1802
  155SAPE   O3217214   4.375   5.521   7.149 -1.5469  0.1892 -0.0588
  155SAPE   C3217215   4.535   5.387   7.265  0.1467  0.0125 -0.2677
  155SAPE   H2X17216   4.642   5.405   7.241  0.0645  0.7814 -0.1069
  155SAPE   H2Y17217   4.518   5.280   7.287  1.0904 -0.3241 -1.1158
  155SAPE   C2317218   4.700   4.965   6.877 -0.0039 -0.5544  0.3100
  155SAPE   H3R17219   4.694   5.015   6.976  0.6098 -2.6520  1.4627
  155SAPE   H3S17220   4.794   4.991   6.824 -0.5209 -2.0462 -1.4062
  155SAPE   C2417221   4.700   4.809   6.914  0.0563 -0.3131  0.2531
  155SAPE   H4R17222   4.805   4.786   6.938  0.4750  1.3089  0.1042
  155SAPE   H4S17223   4.670   4.755   6.822 -1.3884  3.2015 -1.5626
  155SAPE   C2517224   4.600   4.788   7.024 -0.0044 -0.6047  0.0129
  155SAPE   H5R17225   4.496   4.814   7.001  0.9158  1.1345 -2.6082
  155SAPE   C2617226   4.626   4.722   7.138  0.3909 -0.7013 -0.1026
  155SAPE   H6R17227   4.537   4.710   7.202  0.6191  1.5548  0.7269
  155SAPE   C2717228   4.759   4.666   7.180  0.4296  0.3171 -0.0914
  155SAPE   H7R17229   4.798   4.716   7.271 -0.8742 -1.9682  1.8413
  155SAPE   H7S17230   4.834   4.671   7.098  0.4564 -4.0489 -0.6141
  155SAPE   C2817231   4.754   4.520   7.215 -0.6575 -0.1196 -0.0020
  155SAPE   H8R17232   4.718   4.457   7.132 -1.3695  0.3049 -0.0181
  155SAPE   C2917233   4.774   4.461   7.332  0.0206  0.0218  0.0883
  155SAPE   H9R17234   4.749   4.354   7.343  3.5721 -1.0610 -1.1758
  155SAPE  C21017235   4.804   4.526   7.468  0.2367  0.5157 -0.4444
  155SAPE  H10R17236   4.816   4.636   7.458  0.9171  0.7748  2.4418
  155SAPE  H10S17237   4.905   4.497   7.504  0.8903  4.2079  1.1616
  155SAPE  C21117238   4.690   4.519   7.575 -1.1824  0.2059  0.1908
  155SAPE  H11R17239   4.596   4.558   7.533 -1.2433 -1.1311 -1.0204
  155SAPE  C21217240   4.699   4.464   7.700 -0.1261 -0.5394 -0.0894
  155SAPE  H12R17241   4.611   4.475   7.766  0.2419 -0.0138  0.3257
  155SAPE  C21317242   4.827   4.415   7.762 -0.1407  0.1802 -0.0360
  155SAPE  H13R17243   4.872   4.481   7.840 -0.9368  0.9415 -0.2029
  155SAPE  H13S17244   4.914   4.417   7.693  0.8644 -2.1052  1.0672
  155SAPE  C21417245   4.820   4.281   7.823 -0.0136  0.8461 -0.7753
  155SAPE  H14R17246   4.798   4.196   7.758 -0.2717  2.0895 -2.3775
  155SAPE  C21517247   4.829   4.268   7.955  0.2267  0.1327  0.3457
  155SAPE  H15R17248   4.829   4.164   7.993  1.3910  0.3929  1.1406
  155SAPE  C21617249   4.839   4.377   8.061  0.0931 -0.2860 -1.1561
  155SAPE  H16R17250   4.787   4.341   8.153 -1.1068 -0.8832 -2.0460
  155SAPE  H16S17251   4.789   4.473   8.035 -1.3048 -0.1444  1.6066
  155SAPE  C21717252   4.989   4.420   8.104 -0.8516  0.1219  0.7929
  155SAPE  H17R17253   4.985   4.502   8.178 -1.2696 -0.6203  1.6063
  155SAPE  H17S17254   5.031   4.462   8.010  0.8281  1.2851  2.0018
  155SAPE  C21817255   5.069   4.304   8.168  0.9067  0.2360  1.0370
  155SAPE  H18R17256   5.064   4.209   8.111  0.7310  0.3850  0.8069
  155SAPE  H18S17257   5.024   4.275   8.265  0.1661  0.5878  0.7996
  155SAPE  C21917258   5.215   4.340   8.195  0.1507  0.2032  0.3171
  155SAPE  H19R17259   5.222   4.429   8.261 -1.6256  1.7128 -1.4021
  155SAPE  H19S17260   5.254   4.377   8.098  0.1889  2.1246  1.0209
  155SAPE  C22017261   5.294   4.224   8.245 -0.2230 -0.2982 -0.0704
  155SAPE  H20R17262   5.403   4.245   8.231 -0.2428 -0.1758 -0.0374
  155SAPE  H20S17263   5.282   4.130   8.186 -0.2436 -0.9356  0.9223
  155SAPE  H20T17264   5.263   4.202   8.349 -4.0068  1.2761 -0.7116
  155SAPE   C3317265   4.493   5.464   7.391  0.7298  0.4897 -0.5473
  155SAPE   H3X17266   4.382   5.469   7.385  0.6871 -1.3722 -2.4855
  155SAPE   H3Y17267   4.539   5.565   7.403 -0.0444  1.0047 -1.6798
  155SAPE   C3417268   4.533   5.397   7.523 -0.2098  0.4236 -0.2355
  155SAPE   H4X17269   4.642   5.376   7.520 -0.5589 -1.5130 -1.8698
  155SAPE   H4Y17270   4.499   5.291   7.530  0.4916  0.1618 -0.6311
  155SAPE   C3517271   4.496   5.472   7.646  0.4694 -0.0711  0.3272
  155SAPE   H5X17272   4.390   5.463   7.679  0.8412  1.9103  2.2727
  155SAPE   H5Y17273   4.512   5.581   7.634 -1.8869  0.3459  0.5080
  155SAPE   C3617274   4.586   5.432   7.760 -0.4295 -0.6434 -0.4207
  155SAPE   H6X17275   4.684   5.484   7.756 -1.1929  0.9618  0.6578
  155SAPE   H6Y17276   4.609   5.324   7.758  0.8529 -0.4391  0.9718
  155SAPE   C3717277   4.514   5.464   7.899 -0.6564  0.7414  0.4354
  155SAPE   H7X17278   4.426   5.397   7.891  1.0106 -1.3487 -1.4664
  155SAPE   H7Y17279   4.473   5.568   7.899  1.6075  1.6861  1.1754
  155SAPE   C3817280   4.595   5.428   8.017 -0.5812  0.1402 -0.3003
  155SAPE   H8X17281   4.689   5.487   8.030 -0.6315  0.4202 -1.1111
  155SAPE   H8Y17282   4.626   5.321   8.008  0.2614  0.2650  0.8208
  155SAPE   C3917283   4.526   5.466   8.152  0.1997  0.0627  0.3915
  155SAPE   H9X17284   4.420   5.438   8.137  0.8939 -2.3210 -0.4515
  155SAPE   H9Y17285   4.530   5.577   8.152 -0.9095  0.1232 -0.7532
  155SAPE  C31017286   4.594   5.391   8.269  0.5842 -0.0787 -0.0811
  155SAPE  H10X17287   4.646   5.298   8.238 -0.4982 -0.7686  0.1137
  155SAPE  H10Y17288   4.522   5.361   8.348  0.8952  0.4831  0.4243
  155SAPE  C31117289   4.709   5.457   8.346 -0.6044 -0.2793 -0.1492
  155SAPE  H11X17290   4.682   5.557   8.386 -2.7503 -1.6253  2.0602
  155SAPE  H11Y17291   4.785   5.461   8.265 -0.8125  1.0766 -0.3069
  155SAPE  C31217292   4.750   5.388   8.478  0.9869  0.0137 -0.4664
  155SAPE  H12X17293   4.786   5.283   8.467  0.4782 -0.4103  1.5222
  155SAPE  H12Y17294   4.660   5.396   8.542  0.3248 -0.7084 -1.2861
  155SAPE  C31317295   4.864   5.463   8.555  0.5474 -0.5116 -0.5327
  155SAPE  H13X17296   4.867   5.420   8.657 -0.8272  0.2512 -0.1465
  155SAPE  H13Y17297   4.821   5.565   8.565 -0.1575 -0.7760 -0.8097
  155SAPE  C31417298   5.000   5.461   8.488  0.1674 -0.3797  0.6090
  155SAPE  H14X17299   5.073   5.527   8.542 -1.2669  0.6583  1.3426
  155SAPE  H14Y17300   4.988   5.499   8.384  0.3966 -1.5383  0.1512
  155SAPE  C31517301   5.068   5.324   8.487 -0.5586  0.3721  0.0624
  155SAPE  H15X17302   4.996   5.247   8.449 -0.2790 -0.3041  0.8659
  155SAPE  H15Y17303   5.107   5.299   8.588  0.7155 -1.4722 -0.8408
  155SAPE  C31617304   5.184   5.318   8.386 -0.4239  0.0928  0.7641
  155SAPE  H16X17305   5.251   5.402   8.416 -0.4394  0.4373 -0.1394
  155SAPE  H16Y17306   5.148   5.325   8.281  1.3412  1.2967  0.1885
  155SAPE  C31717307   5.273   5.189   8.397 -0.3441 -0.1849 -0.0775
  155SAPE  H17X17308   5.205   5.102   8.381  0.6732 -1.4454  2.0316
  155SAPE  H17Y17309   5.311   5.174   8.500  0.1067 -0.8355 -0.3337
  155SAPE  C31817310   5.386   5.172   8.287  0.5018 -0.1091  0.5030
  155SAPE  H18X17311   5.458   5.092   8.311 -0.3100 -1.0355 -0.0707
  155SAPE  H18Y17312   5.445   5.265   8.301 -0.4419  0.1881  2.9955
  155SAPE  H18Z17313   5.342   5.174   8.185 -1.3657  1.5338  1.2665
  156SAPE     N17314   2.630   6.200   6.194 -0.1515  0.1492  0.3200
  156SAPE   HN117315   2.629   6.304   6.185 -0.5013 -0.0070 -1.9897
  156SAPE   HN217316   2.704   6.167   6.129 -0.9750 -1.5082  0.1622
  156SAPE   HN317317   2.539   6.168   6.153 -0.8210  2.8010 -0.4496
  156SAPE   C1217318   2.656   6.164   6.340 -0.0556  0.7178  1.3789
  156SAPE  H12A17319   2.663   6.053   6.343 -0.7075  0.6887  2.1556
  156SAPE  H12B17320   2.563   6.190   6.395 -1.2295 -0.1333 -0.1108
  156SAPE   C1117321   2.795   6.207   6.393 -0.4950 -0.2167 -0.2505
  156SAPE  H11A17322   2.789   6.181   6.501 -1.5471  1.1080  0.0431
  156SAPE  H11B17323   2.808   6.316   6.378 -1.5955 -0.1938 -1.1331
  156SAPE     P17324   3.035   6.091   6.379 -0.4541 -0.6378 -0.2875
  156SAPE   O1317325   3.016   5.982   6.477 -0.1457  0.5874 -0.2503
  156SAPE   O1417326   3.145   6.066   6.283 -0.2046 -0.2894  0.8521
  156SAPE   O1217327   2.895   6.138   6.316 -0.2244  0.6470  0.0866
  156SAPE   O1117328   3.079   6.222   6.459 -0.6814  0.1442  0.3481
  156SAPE    C117329   3.182   6.210   6.559 -0.0117 -0.7380  0.0768
  156SAPE    HA17330   3.221   6.110   6.588  0.4610 -0.6496 -0.2479
  156SAPE    HB17331   3.276   6.252   6.518 -0.2566  0.3882  0.6447
  156SAPE    C217332   3.162   6.300   6.680 -0.0274  0.3186  0.2146
  156SAPE    HS17333   3.256   6.338   6.725 -0.1761 -0.0475  0.8479
  156SAPE   O2117334   3.099   6.221   6.782  0.1793 -0.4511 -0.1777
  156SAPE   C2117335   3.187   6.160   6.862  0.1290  0.0809 -0.2526
  156SAPE   O2217336   3.306   6.145   6.841 -0.6111  0.0416  0.3985
  156SAPE   C2217337   3.116   6.125   6.992  0.0168 -0.1650  0.4998
  156SAPE   H2R17338   3.072   6.221   7.024  0.9673  0.7151 -0.7329
  156SAPE   H2S17339   3.045   6.042   6.972 -0.6298  0.5129 -0.0494
  156SAPE    C317340   3.080   6.434   6.643  0.2221  0.0272 -0.2342
  156SAPE    HX17341   2.991   6.399   6.586 -0.4643 -0.4215  1.0733
  156SAPE    HY17342   3.139   6.498   6.574  1.6001 -1.9392 -0.9687
  156SAPE   O3117343   3.052   6.527   6.749  0.4747 -0.7833 -0.5764
  156SAPE   C3117344   2.928   6.522   6.790  0.2716  1.0861  0.1868
  156SAPE   O3217345   2.839   6.454   6.735 -0.0363 -0.0693 -0.5516
  156SAPE   C3217346   2.908   6.616   6.913 -0.9469  0.7599  0.2220
  156SAPE   H2X17347   2.904   6.717   6.869 -0.5210  1.5539  1.9172
  156SAPE   H2Y17348   3.001   6.606   6.975  1.0366  0.6126 -2.5772
  156SAPE   C2317349   3.211   6.082   7.105  0.6904  0.6015  0.6868
  156SAPE   H3R17350   3.261   6.165   7.159  0.5828  0.4200  1.0721
  156SAPE   H3S17351   3.286   6.007   7.071 -2.3075 -3.1054  1.4550
  156SAPE   C2417352   3.134   6.017   7.228  0.5538  0.5963 -0.3967
  156SAPE   H4R17353   3.059   6.094   7.257  0.4714  1.3000 -2.3737
  156SAPE   H4S17354   3.191   6.005   7.323 -1.4276  1.4860  0.9735
  156SAPE   C2517355   3.072   5.890   7.186 -0.3012  0.3367 -0.2014
  156SAPE   H5R17356   3.026   5.882   7.087 -0.7535 -1.4114  0.1139
  156SAPE   C2617357   3.070   5.776   7.268  0.0987  0.4758  0.0355
  156SAPE   H6R17358   3.020   5.688   7.225 -1.2968  1.1587  0.2015
  156SAPE   C2717359   3.107   5.759   7.412 -0.0998  0.0085 -0.5270
  156SAPE   H7R17360   3.170   5.846   7.440 -1.1192  0.1348  1.4901
  156SAPE   H7S17361   3.164   5.664   7.420  0.3739  0.4677  4.7318
  156SAPE   C2817362   2.987   5.760   7.502 -0.4104  0.1546 -0.3883
  156SAPE   H8R17363   2.898   5.811   7.462 -0.1079  2.3724  1.5688
  156SAPE   C2917364   2.980   5.702   7.623  1.0580  0.0654  1.0415
  156SAPE   H9R17365   2.886   5.712   7.678  0.5155  0.1423  0.1277
  156SAPE  C21017366   3.091   5.615   7.684 -0.0380 -0.9007  0.5509
  156SAPE  H10R17367   3.075   5.606   7.793  0.8572 -2.2458  0.5892
  156SAPE  H10S17368   3.188   5.670   7.684  0.2018 -1.2938  1.9386
  156SAPE  C21117369   3.100   5.477   7.617  1.0155 -0.2358  0.1339
  156SAPE  H11R17370   3.095   5.489   7.508  0.5191 -0.7188  0.0983
  156SAPE  C21217371   3.093   5.356   7.668  0.1040 -0.2149 -0.0497
  156SAPE  H12R17372   3.106   5.269   7.602 -1.4353  0.7650 -1.7064
  156SAPE  C21317373   3.091   5.327   7.816  0.1768  0.2105  0.2610
  156SAPE  H13R17374   3.045   5.412   7.871 -1.4869 -0.7211  0.3744
  156SAPE  H13S17375   3.197   5.308   7.842  0.1310 -1.5085 -0.6565
  156SAPE  C21417376   3.007   5.205   7.857  0.1397  1.0774 -0.1183
  156SAPE  H14R17377   2.943   5.167   7.776  2.1793 -0.6806 -0.9980
  156SAPE  C21517378   3.001   5.160   7.985 -0.3328 -0.3208  0.2029
  156SAPE  H15R17379   2.956   5.063   8.009  1.5462 -1.4498 -0.6362
  156SAPE  C21617380   3.080   5.216   8.102  0.6170 -0.0853 -0.6551
  156SAPE  H16R17381   3.177   5.266   8.082  1.1636 -1.0002 -0.3309
  156SAPE  H16S17382   3.110   5.134   8.170  1.6746 -1.9553 -3.2135
  156SAPE  C21717383   2.991   5.324   8.175  0.3173  0.0900 -0.2097
  156SAPE  H17R17384   2.975   5.407   8.103 -1.8887  0.7150  0.9235
  156SAPE  H17S17385   3.052   5.367   8.257  1.1312 -0.5874 -0.4438
  156SAPE  C21817386   2.849   5.275   8.212 -0.4829  0.1985  0.3923
  156SAPE  H18R17387   2.779   5.273   8.126 -0.0266  4.2051 -0.2667
  156SAPE  H18S17388   2.799   5.349   8.278  0.9849  1.3432  0.2737
  156SAPE  C21917389   2.849   5.139   8.293  0.2534 -0.0212  0.3404
  156SAPE  H19R17390   2.926   5.152   8.373 -0.5803 -1.0609  1.3535
  156SAPE  H19S17391   2.868   5.057   8.221 -1.9038  0.0068 -0.3108
  156SAPE  C22017392   2.720   5.120   8.374 -0.3074  0.7237 -0.0034
  156SAPE  H20R17393   2.630   5.143   8.314 -0.0335 -0.2895 -0.8372
  156SAPE  H20S17394   2.716   5.177   8.470  0.0687  0.7065  0.0241
  156SAPE  H20T17395   2.721   5.014   8.409  0.5354  1.4252  2.2721
  156SAPE   C3317396   2.785   6.594   6.994 -0.1886  0.3141 -0.3264
  156SAPE   H3X17397   2.698   6.594   6.925  0.6188 -3.2222 -1.5282
  156SAPE   H3Y17398   2.759   6.666   7.075 -1.9409 -2.7926  2.0935
  156SAPE   C3417399   2.774   6.457   7.070 -0.1787 -0.1115  0.7013
  156SAPE   H4X17400   2.790   6.377   6.995  2.8471  0.4546  0.6123
  156SAPE   H4Y17401   2.667   6.465   7.099 -0.7351 -1.6992 -0.7652
  156SAPE   C3517402   2.870   6.441   7.181 -0.0486 -0.0283 -0.3644
  156SAPE   H5X17403   2.867   6.527   7.251  0.2493 -0.5682  0.3281
  156SAPE   H5Y17404   2.972   6.439   7.137 -0.2652 -2.6190 -0.9030
  156SAPE   C3617405   2.848   6.312   7.265 -0.3437 -0.3429 -0.5840
  156SAPE   H6X17406   2.868   6.223   7.202 -3.0702 -1.0683 -0.5791
  156SAPE   H6Y17407   2.743   6.308   7.301 -1.0282 -0.7341 -2.4982
  156SAPE   C3717408   2.931   6.307   7.397  0.1520 -0.5074 -0.1506
  156SAPE   H7X17409   2.934   6.401   7.456  2.4534 -1.9217  2.1844
  156SAPE   H7Y17410   3.032   6.287   7.355  0.3422  1.5133 -0.7682
  156SAPE   C3817411   2.866   6.202   7.483  0.3692  0.2586  0.2074
  156SAPE   H8X17412   2.840   6.118   7.415  1.0138  1.0459 -1.0533
  156SAPE   H8Y17413   2.772   6.244   7.525 -0.9360 -1.9091 -0.4258
  156SAPE   C3917414   2.951   6.130   7.583  0.4826 -0.0862  0.0314
  156SAPE   H9X17415   3.050   6.107   7.538  0.8920 -0.4856  1.0905
  156SAPE   H9Y17416   2.904   6.038   7.622  1.8407 -0.2281  1.4403
  156SAPE  C31017417   2.979   6.229   7.693 -0.7440  0.2850  0.4391
  156SAPE  H10X17418   2.880   6.245   7.742  0.6366 -0.7937  3.8335
  156SAPE  H10Y17419   3.014   6.326   7.651  0.1305  0.0659  0.6413
  156SAPE  C31117420   3.070   6.186   7.808 -0.1937  0.1793 -0.1649
  156SAPE  H11X17421   3.012   6.116   7.872 -2.6388  1.0635 -1.3173
  156SAPE  H11Y17422   3.077   6.269   7.882 -1.3860  0.4828 -0.3825
  156SAPE  C31217423   3.203   6.127   7.760 -0.1840  0.1903  0.3281
  156SAPE  H12X17424   3.193   6.030   7.707  2.3477 -1.1299  2.0509
  156SAPE  H12Y17425   3.259   6.093   7.850  0.5630  1.6807  0.4580
  156SAPE  C31317426   3.287   6.227   7.686 -0.1858  0.2439  0.2185
  156SAPE  H13X17427   3.222   6.285   7.617 -0.1860  1.8245  1.4911
  156SAPE  H13Y17428   3.376   6.192   7.630  0.5141  0.2234  1.3118
  156SAPE  C31417429   3.350   6.343   7.775  0.1787 -0.3258 -0.1756
  156SAPE  H14X17430   3.262   6.395   7.818 -0.9495 -3.3478  1.5114
  156SAPE  H14Y17431   3.393   6.414   7.702 -1.1342  0.1694 -0.4983
  156SAPE  C31517432   3.436   6.307   7.896  0.0082 -0.2640 -0.6193
  156SAPE  H15X17433   3.516   6.252   7.841  0.8253 -0.7464  0.9686
  156SAPE  H15Y17434   3.394   6.231   7.966  1.1628  0.6252  1.1144
  156SAPE  C31617435   3.495   6.430   7.969  0.1092 -0.3232  0.4476
  156SAPE  H16X17436   3.503   6.522   7.909 -2.0447 -0.6624 -0.4233
  156SAPE  H16Y17437   3.598   6.402   8.000  1.3531 -0.3063 -3.1639
  156SAPE  C31717438   3.417   6.458   8.095 -0.5891  0.1014 -0.5202
  156SAPE  H17X17439   3.383   6.365   8.146  0.5753  0.1267  0.3244
  156SAPE  H17Y17440   3.320   6.505   8.067 -1.1673  1.8584  3.6842
  156SAPE  C31817441   3.486   6.551   8.192  0.0962  0.1659  0.2909
  156SAPE  H18X17442   3.427   6.562   8.287 -0.5509  2.7755 -0.3368
  156SAPE  H18Y17443   3.485   6.651   8.144  0.2413 -0.0081 -0.0723
  156SAPE  H18Z17444   3.589   6.523   8.219 -0.2725 -1.7291 -0.1548
  157SAPE     N17445   6.176   0.745   6.193  0.0345 -0.0413  0.4393
  157SAPE   HN117446   6.080   0.777   6.170  0.0970  1.1286  1.7066
  157SAPE   HN217447   6.249   0.758   6.120 -0.3024 -1.8056 -0.2716
  157SAPE   HN317448   6.179   0.642   6.208 -0.4487 -0.1731 -0.3372
  157SAPE   C1217449   6.220   0.808   6.317  0.1335 -0.4104 -0.3087
  157SAPE  H12A17450   6.324   0.781   6.343  0.1173 -0.2367 -0.0622
  157SAPE  H12B17451   6.148   0.784   6.398  1.2314  1.0540  1.1655
  157SAPE   C1117452   6.218   0.964   6.291 -0.7591  0.7464  0.8604
  157SAPE  H11A17453   6.282   0.991   6.204 -1.9807 -0.6236 -0.5128
  157SAPE  H11B17454   6.258   1.010   6.383  0.3241 -0.3806  0.9942
  157SAPE     P17455   6.037   1.122   6.192 -0.4162 -0.2445 -0.2904
  157SAPE   O1317456   6.106   1.140   6.061  0.3534 -0.4914 -0.3291
  157SAPE   O1417457   5.892   1.137   6.198 -0.1935  0.5285 -0.5607
  157SAPE   O1217458   6.081   0.987   6.246  0.1658 -0.1995  0.0949
  157SAPE   O1117459   6.104   1.215   6.300 -0.0618 -0.7733 -0.1882
  157SAPE    C117460   6.026   1.283   6.402 -0.7919  0.0077  0.2418
  157SAPE    HA17461   6.076   1.382   6.415  1.7825 -1.2294  0.3453
  157SAPE    HB17462   5.919   1.296   6.374 -0.2992  0.6746 -1.4347
  157SAPE    C217463   6.053   1.222   6.539  0.5268  0.4995 -0.0408
  157SAPE    HS17464   6.033   1.113   6.529 -0.4154  0.7071 -0.5612
  157SAPE   O2117465   5.962   1.292   6.627 -0.1191  0.0536 -0.0567
  157SAPE   C2117466   5.855   1.219   6.656  0.0462  0.0791 -0.3944
  157SAPE   O2217467   5.818   1.117   6.596 -0.2037 -0.1094 -0.2093
  157SAPE   C2217468   5.778   1.283   6.770  0.5624  0.1705  0.1366
  157SAPE   H2R17469   5.796   1.392   6.779  0.9331  0.0450  0.9874
  157SAPE   H2S17470   5.677   1.243   6.746  0.2329  1.0702  0.0080
  157SAPE    C317471   6.195   1.240   6.591 -0.3277  0.1364  0.0660
  157SAPE    HX17472   6.222   1.347   6.576  0.2797 -0.0316 -0.0823
  157SAPE    HY17473   6.257   1.174   6.527  0.4356  2.3867 -1.6753
  157SAPE   O3117474   6.214   1.216   6.732 -0.5375  0.4304  0.0746
  157SAPE   C3117475   6.235   1.087   6.773  0.0223  0.4042 -0.0927
  157SAPE   O3217476   6.214   0.987   6.710  0.3358  0.4398  0.5011
  157SAPE   C3217477   6.275   1.097   6.916  0.3159  0.4717 -0.3406
  157SAPE   H2X17478   6.192   1.136   6.979  0.0267  0.0458 -0.4564
  157SAPE   H2Y17479   6.356   1.172   6.924  0.9931 -0.2275 -0.5923
  157SAPE   C2317480   5.839   1.232   6.901 -0.3078  0.0324 -0.6672
  157SAPE   H3R17481   5.947   1.260   6.906 -0.6405  1.1105  1.0477
  157SAPE   H3S17482   5.844   1.122   6.914  2.8216  0.2917  1.3850
  157SAPE   C2417483   5.773   1.290   7.028  0.3608 -0.3050 -0.5055
  157SAPE   H4R17484   5.750   1.397   7.006  2.9733  0.8332  1.6511
  157SAPE   H4S17485   5.860   1.277   7.096 -1.5715 -1.1047  1.9499
  157SAPE   C2517486   5.655   1.215   7.076  1.1163 -0.3643  0.4290
  157SAPE   H5R17487   5.575   1.202   7.001  1.8116  0.8626 -0.5743
  157SAPE   C2617488   5.635   1.155   7.199 -0.0377 -0.2591  0.3349
  157SAPE   H6R17489   5.536   1.121   7.232 -0.5072 -0.2630 -1.0054
  157SAPE   C2717490   5.743   1.155   7.310  0.1178 -0.0307  0.2180
  157SAPE   H7R17491   5.694   1.145   7.409 -0.6194 -1.3543 -0.2435
  157SAPE   H7S17492   5.791   1.254   7.306 -0.1619  0.1307 -3.8442
  157SAPE   C2817493   5.834   1.034   7.302 -0.2159  0.3208 -0.0985
  157SAPE   H8R17494   5.819   0.960   7.222  0.3873  1.0406 -0.9040
  157SAPE   C2917495   5.924   1.004   7.400  0.0776  0.0197  0.4074
  157SAPE   H9R17496   5.996   0.923   7.382 -0.8533 -0.7381 -0.0178
  157SAPE  C21017497   5.968   1.105   7.502  0.3930 -0.6276  0.0209
  157SAPE  H10R17498   5.903   1.195   7.504  1.7457  0.3901 -0.8305
  157SAPE  H10S17499   6.069   1.146   7.483  1.4234 -3.2890 -0.6907
  157SAPE  C21117500   5.966   1.046   7.645 -0.5847  0.7003  0.1778
  157SAPE  H11R17501   5.891   0.966   7.657 -0.1632 -0.4680 -3.4521
  157SAPE  C21217502   6.041   1.060   7.763 -0.0796  1.0439  0.0866
  157SAPE  H12R17503   6.011   1.011   7.856 -0.0534  0.8909  0.0151
  157SAPE  C21317504   6.154   1.157   7.775  0.1729  0.9546 -0.1732
  157SAPE  H13R17505   6.105   1.254   7.798 -2.2233 -0.3120  0.5060
  157SAPE  H13S17506   6.211   1.156   7.680  0.6045 -0.4372  0.0778
  157SAPE  C21417507   6.269   1.121   7.874  0.1011  0.4760 -0.3605
  157SAPE  H14R17508   6.369   1.120   7.829  0.7728 -2.1023  0.9739
  157SAPE  C21517509   6.261   1.103   8.009 -0.9892 -0.0328 -0.3873
  157SAPE  H15R17510   6.348   1.093   8.076 -0.1206  1.6734 -1.2105
  157SAPE  C21617511   6.138   1.115   8.090 -0.2109  0.1109 -0.1902
  157SAPE  H16R17512   6.086   1.019   8.114  0.6378  0.0230  1.5082
  157SAPE  H16S17513   6.066   1.180   8.036  1.0568 -0.0008 -2.1082
  157SAPE  C21717514   6.167   1.186   8.226 -1.1179 -0.0493  0.2252
  157SAPE  H17R17515   6.222   1.281   8.209 -0.3066 -0.2638  1.4971
  157SAPE  H17S17516   6.233   1.125   8.292 -0.5786  0.8810  0.5653
  157SAPE  C21817517   6.035   1.239   8.288  0.1046  0.2777  0.0197
  157SAPE  H18R17518   5.979   1.151   8.325  0.2921  0.4636  0.7654
  157SAPE  H18S17519   5.965   1.291   8.219  0.1283  0.0427 -0.1859
  157SAPE  C21917520   6.042   1.330   8.412 -0.2038  0.3221 -0.1232
  157SAPE  H19R17521   5.944   1.354   8.458 -0.7908 -1.5161 -0.3500
  157SAPE  H19S17522   6.085   1.428   8.383  2.0427 -0.3490  0.7294
  157SAPE  C22017523   6.133   1.289   8.526 -0.1692  0.2696  0.3217
  157SAPE  H20R17524   6.238   1.282   8.491  0.1911  2.1278  0.9309
  157SAPE  H20S17525   6.104   1.190   8.567  1.2915 -0.6095 -0.6654
  157SAPE  H20T17526   6.137   1.371   8.601 -0.9965  2.6160 -2.0764
  157SAPE   C3317527   6.323   0.958   6.979  0.5656  0.4903 -0.4424
  157SAPE   H3X17528   6.412   0.919   6.924 -0.3221 -1.3104 -0.6758
  157SAPE   H3Y17529   6.240   0.885   6.990  2.5465 -1.6196  1.6649
  157SAPE   C3417530   6.381   0.976   7.118 -0.3173 -0.0801 -0.0667
  157SAPE   H4X17531   6.451   1.062   7.119  0.3690 -0.6201 -0.7385
  157SAPE   H4Y17532   6.443   0.887   7.144  1.2976  0.7343 -0.9885
  157SAPE   C3517533   6.273   0.989   7.224  0.5456  0.1984 -0.0721
  157SAPE   H5X17534   6.205   0.902   7.220  0.4225  0.2604  0.5751
  157SAPE   H5Y17535   6.216   1.083   7.206 -0.9380 -0.4524  1.0456
  157SAPE   C3617536   6.334   1.002   7.365 -0.3346 -0.0022  0.1937
  157SAPE   H6X17537   6.364   0.900   7.397  0.5959  0.4138  0.7140
  157SAPE   H6Y17538   6.251   1.034   7.431  0.0500 -0.4552  0.9188
  157SAPE   C3717539   6.458   1.093   7.375 -0.1455 -0.2846  0.4890
  157SAPE   H7X17540   6.448   1.173   7.298  2.5559  1.4119  1.7384
  157SAPE   H7Y17541   6.549   1.032   7.356 -0.6751 -0.5015 -1.5244
  157SAPE   C3817542   6.468   1.165   7.511 -0.1688  0.0087 -0.0606
  157SAPE   H8X17543   6.471   1.090   7.593 -1.3563  0.9562  0.8933
  157SAPE   H8Y17544   6.377   1.224   7.535 -0.4359 -0.6473  0.5552
  157SAPE   C3917545   6.582   1.259   7.521 -1.0551 -0.7471  0.4084
  157SAPE   H9X17546   6.586   1.338   7.443 -0.1241  0.5984  1.7590
  157SAPE   H9Y17547   6.680   1.209   7.509 -0.0132  1.2849  0.0181
  157SAPE  C31017548   6.575   1.327   7.655 -0.4139 -0.1001 -0.4772
  157SAPE  H10X17549   6.471   1.331   7.694 -0.0157 -0.7404  0.6880
  157SAPE  H10Y17550   6.603   1.433   7.639 -1.1091  0.1735  0.0524
  157SAPE  C31117551   6.657   1.252   7.758  0.1661 -0.1031  0.1122
  157SAPE  H11X17552   6.757   1.220   7.722  1.1008  0.5247  1.9970
  157SAPE  H11Y17553   6.608   1.154   7.778  2.4024 -0.8895  2.2597
  157SAPE  C31217554   6.684   1.333   7.886  0.7292  0.1382  0.2681
  157SAPE  H12X17555   6.592   1.350   7.946 -0.7569 -0.6525 -1.6687
  157SAPE  H12Y17556   6.744   1.423   7.863  0.3000  1.1111  2.6417
  157SAPE  C31317557   6.772   1.246   7.983 -0.8453  0.2798 -0.5829
  157SAPE  H13X17558   6.785   1.302   8.077  0.3120 -1.9454  0.6590
  157SAPE  H13Y17559   6.875   1.236   7.944  0.4985  1.1198  2.4938
  157SAPE  C31417560   6.711   1.114   8.030 -0.1150 -0.3198  0.0471
  157SAPE  H14X17561   6.789   1.054   8.081  2.8028  1.5432 -1.9532
  157SAPE  H14Y17562   6.684   1.065   7.934  0.0341  0.1110 -0.2152
  157SAPE  C31517563   6.601   1.124   8.141 -0.3293 -0.2022 -0.1537
  157SAPE  H15X17564   6.543   1.030   8.148 -0.4578 -0.0546  0.9447
  157SAPE  H15Y17565   6.532   1.211   8.142  0.0419  0.0974 -0.2419
  157SAPE  C31617566   6.668   1.155   8.281 -0.8082 -0.3207 -0.1234
  157SAPE  H16X17567   6.729   1.248   8.275 -0.2769 -0.7775 -2.5460
  157SAPE  H16Y17568   6.731   1.069   8.312 -0.4139  0.1795  0.4926
  157SAPE  C31717569   6.567   1.176   8.398  0.4218  0.2561 -0.0669
  157SAPE  H17X17570   6.490   1.248   8.366 -0.9077 -1.3962 -0.7485
  157SAPE  H17Y17571   6.622   1.223   8.483  1.4369  3.3944 -2.2615
  157SAPE  C31817572   6.493   1.050   8.452 -0.0185 -0.2898 -0.1765
  157SAPE  H18X17573   6.559   0.978   8.504 -0.9171  0.9045  2.7746
  157SAPE  H18Y17574   6.441   0.999   8.367  2.7392 -0.5114 -1.8733
  157SAPE  H18Z17575   6.423   1.094   8.526  0.7420 -0.7108  0.8136
  158SAPE     N17576   1.305   3.760   6.144 -0.1749  0.2582 -0.0155
  158SAPE   HN117577   1.226   3.698   6.173 -0.3179 -0.4802 -1.8410
  158SAPE   HN217578   1.281   3.816   6.059  0.9865 -0.6032 -0.9306
  158SAPE   HN317579   1.386   3.697   6.126 -1.9283 -2.5256  1.1985
  158SAPE   C1217580   1.350   3.870   6.246 -0.0089  0.5229 -0.0998
  158SAPE  H12A17581   1.278   3.954   6.233 -0.6375  0.4487  2.3588
  158SAPE  H12B17582   1.449   3.905   6.209 -0.8702  2.8496 -0.3859
  158SAPE   C1117583   1.344   3.814   6.389 -0.6202  0.0169  0.6148
  158SAPE  H11A17584   1.250   3.756   6.395 -0.3639 -0.7288 -1.6680
  158SAPE  H11B17585   1.330   3.905   6.451 -0.6665  0.4002  0.0453
  158SAPE     P17586   1.593   3.793   6.463  0.1726 -0.1803 -0.4772
  158SAPE   O1317587   1.674   3.685   6.520  0.0614  0.2196  0.1835
  158SAPE   O1417588   1.652   3.870   6.354  0.0656  0.2305  0.5091
  158SAPE   O1217589   1.451   3.733   6.425 -0.0833 -0.0897  0.0884
  158SAPE   O1117590   1.556   3.891   6.579  0.2680 -0.1258 -0.5386
  158SAPE    C117591   1.622   4.017   6.606  0.0369 -0.4706 -0.2834
  158SAPE    HA17592   1.657   4.061   6.510 -0.1410  0.1720 -0.0645
  158SAPE    HB17593   1.546   4.082   6.655  0.1189 -2.0143  2.0104
  158SAPE    C217594   1.740   3.998   6.698 -0.6038  0.5979  0.7525
  158SAPE    HS17595   1.798   3.919   6.646  2.2878  2.3494  1.0970
  158SAPE   O2117596   1.683   3.963   6.826 -0.1598 -0.6331  0.4365
  158SAPE   C2117597   1.754   3.864   6.885  0.2710  0.5686 -0.4579
  158SAPE   O2217598   1.836   3.793   6.831  0.0975  0.2835  0.5074
  158SAPE   C2217599   1.701   3.832   7.021  0.6138 -0.4673 -0.6068
  158SAPE   H2R17600   1.591   3.821   7.013  0.5234 -0.3580  0.4097
  158SAPE   H2S17601   1.734   3.732   7.054 -0.7474 -0.0912  2.1912
  158SAPE    C317602   1.829   4.125   6.718  0.0198 -0.0915 -0.1852
  158SAPE    HX17603   1.779   4.202   6.780 -2.1813 -3.0896  2.0620
  158SAPE    HY17604   1.850   4.167   6.617 -0.1143  0.4045 -0.0089
  158SAPE   O3117605   1.952   4.104   6.787  0.1137  0.8721  0.0082
  158SAPE   C3117606   2.043   4.032   6.716  0.3108 -0.0305 -0.1767
  158SAPE   O3217607   2.043   4.023   6.590 -0.3564 -0.3799  0.2178
  158SAPE   C3217608   2.144   3.972   6.819  1.1230  0.0119 -0.5240
  158SAPE   H2X17609   2.225   3.930   6.755  0.9476  2.1580 -2.2835
  158SAPE   H2Y17610   2.083   3.886   6.852 -0.7963  1.7204  0.5623
  158SAPE   C2317611   1.736   3.941   7.135  0.2374  0.4202 -0.2330
  158SAPE   H3R17612   1.678   3.910   7.225 -0.8258  0.4048 -0.9034
  158SAPE   H3S17613   1.696   4.038   7.100  1.1170  0.9300  0.1527
  158SAPE   C2417614   1.892   3.947   7.152  0.9900 -0.0291  0.2285
  158SAPE   H4R17615   1.949   3.987   7.065 -0.5866  0.9708 -0.4001
  158SAPE   H4S17616   1.924   3.842   7.166 -0.4230 -0.3174  1.6021
  158SAPE   C2517617   1.925   4.035   7.271 -0.1494  0.6732  0.5979
  158SAPE   H5R17618   1.909   4.143   7.257  2.6094  1.3068  1.6383
  158SAPE   C2617619   1.962   3.990   7.392  0.1717  0.1672 -0.0468
  158SAPE   H6R17620   1.990   4.059   7.473  0.0489 -1.6806  1.6383
  158SAPE   C2717621   1.980   3.840   7.421 -0.5009  0.2790 -0.3627
  158SAPE   H7R17622   2.075   3.829   7.479 -0.1768  2.3622 -0.4240
  158SAPE   H7S17623   2.005   3.778   7.332 -1.0852 -0.1902 -0.2070
  158SAPE   C2817624   1.857   3.784   7.489  0.1019 -0.0420 -0.0842
  158SAPE   H8R17625   1.775   3.741   7.428 -2.5559 -1.9268  4.3078
  158SAPE   C2917626   1.829   3.797   7.619 -0.1602  0.0581  0.5750
  158SAPE   H9R17627   1.729   3.774   7.659 -1.2980 -0.6691 -2.3567
  158SAPE  C21017628   1.918   3.865   7.719 -0.7588 -0.1127  0.2174
  158SAPE  H10R17629   2.020   3.884   7.681 -0.9891 -0.6092 -0.6917
  158SAPE  H10S17630   1.933   3.789   7.799  4.6319  0.6092  0.2317
  158SAPE  C21117631   1.852   3.987   7.769 -0.1961  0.4117 -0.1743
  158SAPE  H11R17632   1.799   4.036   7.686 -1.1352 -2.7522 -1.5863
  158SAPE  C21217633   1.858   4.032   7.899 -0.1108 -0.3526  0.1067
  158SAPE  H12R17634   1.810   4.128   7.921  1.0384  0.3678 -0.4659
  158SAPE  C21317635   1.940   3.970   8.005 -0.0994  0.1831  0.1418
  158SAPE  H13R17636   2.030   3.926   7.958  1.0912  0.6812  1.8305
  158SAPE  H13S17637   1.893   3.893   8.070  1.7089 -0.1804  1.0982
  158SAPE  C21417638   1.983   4.069   8.116 -0.0596 -0.1093 -0.5994
  158SAPE  H14R17639   1.920   4.159   8.115 -1.0453 -0.7605 -2.4673
  158SAPE  C21517640   2.066   4.041   8.217  0.2631 -0.1940 -0.9806
  158SAPE  H15R17641   2.096   4.113   8.295  1.2722 -2.2052  0.5771
  158SAPE  C21617642   2.147   3.914   8.238 -0.3216 -0.0036 -0.2447
  158SAPE  H16R17643   2.239   3.929   8.177  1.7621  0.2758  2.6999
  158SAPE  H16S17644   2.104   3.816   8.208 -0.7006  0.0726  0.0409
  158SAPE  C21717645   2.203   3.910   8.379  0.2669 -0.6886 -0.0795
  158SAPE  H17R17646   2.127   3.880   8.454  0.0299 -2.1395 -0.8651
  158SAPE  H17S17647   2.248   4.006   8.412 -1.4645  1.0899 -2.5105
  158SAPE  C21817648   2.322   3.814   8.391  0.8402 -0.5696 -0.0131
  158SAPE  H18R17649   2.396   3.823   8.308  0.1916 -1.7874 -0.7522
  158SAPE  H18S17650   2.292   3.707   8.382  4.5252 -1.6265 -1.5784
  158SAPE  C21917651   2.409   3.833   8.518  1.0638 -0.0933 -0.1389
  158SAPE  H19R17652   2.437   3.940   8.520  3.6176 -0.7098 -0.0770
  158SAPE  H19S17653   2.499   3.774   8.490 -0.1910 -0.9520 -2.7344
  158SAPE  C22017654   2.342   3.782   8.647  0.0535  0.6617  0.6148
  158SAPE  H20R17655   2.257   3.845   8.684 -1.8015  0.0402 -2.2363
  158SAPE  H20S17656   2.417   3.781   8.728  2.3336 -2.3969 -1.3074
  158SAPE  H20T17657   2.312   3.679   8.620 -0.4348  0.6481  1.1897
  158SAPE   C3317658   2.193   4.076   6.921 -0.1092  0.6065  0.5436
  158SAPE   H3X17659   2.110   4.140   6.956 -1.1613 -0.0522 -0.6684
  158SAPE   H3Y17660   2.278   4.132   6.877 -0.4690  0.6181 -0.1463
  158SAPE   C3417661   2.231   4.014   7.054 -0.7606  0.7289 -0.6218
  158SAPE   H4X17662   2.170   3.923   7.069  0.4231  0.2256  1.5673
  158SAPE   H4Y17663   2.203   4.085   7.135  1.8470 -2.6936  3.7696
  158SAPE   C3517664   2.385   3.985   7.069 -0.2960 -0.7297  0.4940
  158SAPE   H5X17665   2.428   4.084   7.044 -0.5713 -0.0696  2.4592
  158SAPE   H5Y17666   2.409   3.905   6.995  1.9422 -0.2660  0.6525
  158SAPE   C3617667   2.426   3.945   7.213 -0.4297  0.3760 -0.4444
  158SAPE   H6X17668   2.415   4.029   7.284  1.2010 -0.2537  0.6103
  158SAPE   H6Y17669   2.534   3.920   7.213 -0.7054 -1.0600  1.6159
  158SAPE   C3717670   2.357   3.822   7.270 -0.1469  0.0798  0.6378
  158SAPE   H7X17671   2.248   3.843   7.281 -0.1104  2.8334 -2.5885
  158SAPE   H7Y17672   2.380   3.737   7.203  0.9440  0.8585 -0.0137
  158SAPE   C3817673   2.412   3.775   7.408  0.2697 -0.3271  0.3855
  158SAPE   H8X17674   2.400   3.848   7.491  3.6971 -1.3546  1.9719
  158SAPE   H8Y17675   2.521   3.755   7.406 -0.0258 -2.2783  1.1180
  158SAPE   C3917676   2.342   3.649   7.453  0.0711 -0.5324 -0.1204
  158SAPE   H9X17677   2.386   3.560   7.402  0.6178 -2.3582  3.2223
  158SAPE   H9Y17678   2.234   3.649   7.429 -0.3616  0.8352  1.6969
  158SAPE  C31017679   2.348   3.624   7.608  0.4196 -0.6276  0.3107
  158SAPE  H10X17680   2.275   3.700   7.642  0.7845  0.1307 -0.5317
  158SAPE  H10Y17681   2.443   3.658   7.653  0.4078  1.4136 -1.0370
  158SAPE  C31117682   2.294   3.496   7.665 -0.2399  0.6432 -1.0747
  158SAPE  H11X17683   2.378   3.423   7.653 -0.6182 -0.0355  0.1592
  158SAPE  H11Y17684   2.204   3.461   7.611  0.3654 -0.7354 -1.2325
  158SAPE  C31217685   2.253   3.513   7.809 -0.0158 -0.5242 -0.5237
  158SAPE  H12X17686   2.205   3.422   7.850  1.4652  0.5111  4.0391
  158SAPE  H12Y17687   2.186   3.601   7.813  0.0487 -0.4865 -0.2903
  158SAPE  C31317688   2.371   3.520   7.915  0.5136 -0.0457 -1.0560
  158SAPE  H13X17689   2.397   3.627   7.925  1.3990 -0.4156  1.0289
  158SAPE  H13Y17690   2.450   3.468   7.856  0.1669 -1.3759 -0.3925
  158SAPE  C31417691   2.350   3.454   8.044  0.0109 -0.0470 -0.0748
  158SAPE  H14X17692   2.441   3.461   8.107  1.0958 -1.5341 -1.3842
  158SAPE  H14Y17693   2.322   3.347   8.031 -2.4136  0.7292 -1.8820
  158SAPE  C31517694   2.234   3.523   8.114  0.5073  0.2201  0.4986
  158SAPE  H15X17695   2.144   3.498   8.055  1.2365  0.4258 -0.7425
  158SAPE  H15Y17696   2.237   3.634   8.107  1.8087  0.4542  3.4278
  158SAPE  C31617697   2.220   3.479   8.263  0.0350 -0.2679  0.4966
  158SAPE  H16X17698   2.148   3.547   8.312 -0.0561  1.4749 -1.8354
  158SAPE  H16Y17699   2.316   3.492   8.317  0.8471 -1.3203 -0.6273
  158SAPE  C31717700   2.189   3.332   8.289 -0.3354  0.2974 -0.4349
  158SAPE  H17X17701   2.276   3.265   8.272 -0.4963 -0.5523  1.7251
  158SAPE  H17Y17702   2.105   3.301   8.223  1.0152 -2.4013 -1.0453
  158SAPE  C31817703   2.132   3.322   8.437  0.1187 -0.4389 -0.1724
  158SAPE  H18X17704   2.089   3.224   8.468  0.4950 -1.1539 -1.7779
  158SAPE  H18Y17705   2.057   3.403   8.449  1.7109  0.9013  1.2867
  158SAPE  H18Z17706   2.220   3.336   8.503  0.4603  0.4649 -0.7998
  159SAPE     N17707   6.650   1.395   6.105  0.0323 -0.3292  0.2438
  159SAPE   HN117708   6.729   1.329   6.091 -0.0834 -0.9712  2.2032
  159SAPE   HN217709   6.692   1.473   6.161  0.6287 -2.0497  2.3273
  159SAPE   HN317710   6.576   1.352   6.164  0.7081  1.4997  2.5950
  159SAPE   C1217711   6.597   1.441   5.970 -0.0294  0.1222 -0.0691
  159SAPE  H12A17712   6.514   1.510   5.993  1.5742  1.7504  1.1058
  159SAPE  H12B17713   6.553   1.356   5.913  0.3564  0.7302 -1.3133
  159SAPE   C1117714   6.701   1.514   5.882  0.0643 -0.0357  0.3773
  159SAPE  H11A17715   6.648   1.558   5.794 -0.1758  2.7105  1.7826
  159SAPE  H11B17716   6.778   1.438   5.857 -1.4510 -1.5120 -0.0002
  159SAPE     P17717   6.726   1.756   5.961 -0.4369  0.1666 -0.4335
  159SAPE   O1317718   6.778   1.810   5.837 -0.5448 -0.4211  0.6269
  159SAPE   O1417719   6.580   1.763   5.982  0.5600 -0.1267  0.4527
  159SAPE   O1217720   6.772   1.616   5.952  0.5181  0.1564  0.2980
  159SAPE   O1117721   6.798   1.817   6.085 -0.2707  0.0878 -0.3123
  159SAPE    C117722   6.936   1.837   6.104  0.1111  0.7453 -0.2258
  159SAPE    HA17723   6.989   1.833   6.007  3.4721  1.6718  1.4212
  159SAPE    HB17724   6.966   1.934   6.149  1.8694  0.9624 -1.7612
  159SAPE    C217725   6.994   1.738   6.199 -0.2532  0.2335 -0.6998
  159SAPE    HS17726   6.992   1.637   6.154  1.7121 -1.1457  1.9919
  159SAPE   O2117727   6.913   1.742   6.321  0.5717 -0.3970  0.1181
  159SAPE   C2117728   6.799   1.676   6.332 -0.6151 -1.0888  0.3784
  159SAPE   O2217729   6.758   1.592   6.254  0.2203  0.0230 -0.1733
  159SAPE   C2217730   6.727   1.715   6.463 -0.1290 -0.6515 -0.1841
  159SAPE   H2R17731   6.799   1.720   6.548 -0.9488 -1.6868  0.5962
  159SAPE   H2S17732   6.678   1.813   6.444  2.3514  0.9193  0.9857
  159SAPE    C317733   7.138   1.779   6.240 -0.1661 -0.0651 -0.5779
  159SAPE    HX17734   7.131   1.884   6.277 -3.1439 -0.9698  1.8247
  159SAPE    HY17735   7.200   1.781   6.148  2.0278  1.6374  0.8387
  159SAPE   O3117736   7.193   1.689   6.339 -0.1790  0.4306  0.6487
  159SAPE   C3117737   7.214   1.739   6.458 -0.3378  1.1622  0.2199
  159SAPE   O3217738   7.212   1.854   6.494  0.5426  0.4989 -0.3148
  159SAPE   C3217739   7.243   1.624   6.552 -0.3816 -0.1204  0.4415
  159SAPE   H2X17740   7.217   1.531   6.497  2.1828 -0.7958  0.2585
  159SAPE   H2Y17741   7.180   1.629   6.643  0.9639 -2.3009  1.5730
  159SAPE   C2317742   6.618   1.617   6.496  0.9528  0.2360  0.0852
  159SAPE   H3R17743   6.660   1.516   6.515 -0.7178 -0.5437 -0.1790
  159SAPE   H3S17744   6.548   1.609   6.411 -0.6237 -1.6001  1.4603
  159SAPE   C2417745   6.540   1.662   6.618  0.0542 -0.1473 -0.1391
  159SAPE   H4R17746   6.506   1.767   6.605  3.9543  1.4692  1.1893
  159SAPE   H4S17747   6.616   1.663   6.699 -1.4951 -1.0662  1.3987
  159SAPE   C2517748   6.426   1.570   6.655  0.6248  0.1959  0.2663
  159SAPE   H5R17749   6.346   1.553   6.581  0.3315 -4.4465  1.3734
  159SAPE   C2617750   6.420   1.516   6.783  0.4467  1.2539 -0.2896
  159SAPE   H6R17751   6.345   1.436   6.795  1.0559  0.4667 -1.4759
  159SAPE   C2717752   6.512   1.521   6.896 -0.4232 -0.1066  0.3260
  159SAPE   H7R17753   6.494   1.613   6.955  0.7119  1.0200 -1.0081
  159SAPE   H7S17754   6.617   1.525   6.860 -0.9647 -1.7995 -1.6445
  159SAPE   C2817755   6.503   1.405   6.990 -0.0211  0.1825 -0.0910
  159SAPE   H8R17756   6.550   1.317   6.945  0.8860  0.8329 -0.4619
  159SAPE   C2917757   6.456   1.401   7.118 -0.2223 -0.4287  0.1440
  159SAPE   H9R17758   6.464   1.303   7.169  2.4566 -1.6243 -2.2946
  159SAPE  C21017759   6.395   1.517   7.204 -0.6337  0.1617  0.1348
  159SAPE  H10R17760   6.471   1.599   7.202 -0.0217 -0.3399  1.4888
  159SAPE  H10S17761   6.398   1.489   7.311  2.6845 -2.3127 -0.4444
  159SAPE  C21117762   6.259   1.569   7.157  0.1362 -0.0807  0.2682
  159SAPE  H11R17763   6.247   1.585   7.049 -1.9356  3.3697  0.8756
  159SAPE  C21217764   6.153   1.605   7.228  0.1755 -0.5070  0.7785
  159SAPE  H12R17765   6.068   1.624   7.161  2.4861  0.8868 -2.0082
  159SAPE  C21317766   6.147   1.596   7.377  0.3612  0.5976  0.0085
  159SAPE  H13R17767   6.211   1.513   7.414 -0.5538 -0.7714 -1.3493
  159SAPE  H13S17768   6.051   1.549   7.406  0.6880 -0.0396  0.0790
  159SAPE  C21417769   6.169   1.724   7.453  0.8945 -0.7584  0.1099
  159SAPE  H14R17770   6.133   1.816   7.405  0.7913 -0.4480  0.7713
  159SAPE  C21517771   6.259   1.739   7.552  0.2286 -0.2303 -0.7051
  159SAPE  H15R17772   6.261   1.829   7.616  1.2671  0.1038 -1.1722
  159SAPE  C21617773   6.359   1.645   7.616  0.1235  0.2936 -0.1361
  159SAPE  H16R17774   6.453   1.704   7.618  0.4471 -0.1926  2.6303
  159SAPE  H16S17775   6.355   1.551   7.556 -0.6020  0.8483 -0.9810
  159SAPE  C21717776   6.334   1.627   7.768  0.1279  0.9885  0.4322
  159SAPE  H17R17777   6.331   1.728   7.814  0.9229  0.2651  2.1641
  159SAPE  H17S17778   6.427   1.582   7.810 -0.3994  0.5885  1.1931
  159SAPE  C21817779   6.226   1.531   7.817 -0.1024 -0.3094  0.0391
  159SAPE  H18R17780   6.246   1.436   7.763 -2.2595 -2.2669  2.4313
  159SAPE  H18S17781   6.130   1.560   7.771  1.1537  2.3192 -1.1718
  159SAPE  C21917782   6.231   1.509   7.972  0.1425 -0.5321  0.0148
  159SAPE  H19R17783   6.311   1.439   8.005  1.0267  0.4715  0.0590
  159SAPE  H19S17784   6.137   1.455   7.998 -1.2041  0.4393 -2.5283
  159SAPE  C22017785   6.228   1.632   8.055 -0.1819 -0.7673  1.1924
  159SAPE  H20R17786   6.132   1.684   8.035  0.7316  1.4382  2.2821
  159SAPE  H20S17787   6.315   1.699   8.041 -0.2695 -0.5627  1.6187
  159SAPE  H20T17788   6.230   1.616   8.165 -1.3624  1.3911  1.5803
  159SAPE   C3317789   7.395   1.622   6.604  0.1571  0.7237  0.1558
  159SAPE   H3X17790   7.466   1.667   6.531 -1.0853  0.2705 -1.3956
  159SAPE   H3Y17791   7.417   1.514   6.622  0.0789  0.3476 -1.7372
  159SAPE   C3417792   7.405   1.697   6.734 -0.5210  0.3663  0.5293
  159SAPE   H4X17793   7.385   1.805   6.718  1.0892  1.0852  2.8637
  159SAPE   H4Y17794   7.507   1.694   6.777 -0.8175  0.9673  1.2999
  159SAPE   C3517795   7.315   1.641   6.835 -0.1163  0.3698  0.1366
  159SAPE   H5X17796   7.308   1.531   6.832  0.8489  0.2950  0.1869
  159SAPE   H5Y17797   7.211   1.680   6.827 -0.3099 -0.3897 -1.3433
  159SAPE   C3617798   7.357   1.685   6.978 -0.0683  0.2549  0.1120
  159SAPE   H6X17799   7.348   1.795   6.980 -3.0441  0.2083 -2.2421
  159SAPE   H6Y17800   7.461   1.654   7.000 -0.7667 -0.0291  3.6152
  159SAPE   C3717801   7.261   1.618   7.088 -0.1581 -0.4465  0.3805
  159SAPE   H7X17802   7.258   1.508   7.073  1.2734 -0.7863  2.2042
  159SAPE   H7Y17803   7.155   1.638   7.065 -0.4619  0.1082  2.1100
  159SAPE   C3817804   7.286   1.660   7.234 -0.3711 -0.4281  0.0738
  159SAPE   H8X17805   7.207   1.610   7.294 -2.1033  1.9431 -0.0907
  159SAPE   H8Y17806   7.276   1.768   7.259  0.6941 -0.7033  1.8223
  159SAPE   C3917807   7.424   1.621   7.286  0.2464 -0.1042 -1.0375
  159SAPE   H9X17808   7.497   1.691   7.241  0.8215 -0.1558 -0.2091
  159SAPE   H9Y17809   7.431   1.521   7.237  0.2441 -1.1878  1.0588
  159SAPE  C31017810   7.428   1.629   7.435 -0.2107 -0.1886  0.1465
  159SAPE  H10X17811   7.350   1.558   7.473 -0.3674  0.8356  1.8191
  159SAPE  H10Y17812   7.393   1.731   7.460 -1.8746 -0.6114 -0.2963
  159SAPE  C31117813   7.568   1.605   7.496  0.0335  0.4488 -0.1235
  159SAPE  H11X17814   7.632   1.689   7.463 -0.5137  0.6539 -0.6796
  159SAPE  H11Y17815   7.609   1.507   7.463 -1.1656  0.0294 -0.4332
  159SAPE  C31217816   7.554   1.589   7.645 -0.4389  0.3557 -0.3852
  159SAPE  H12X17817   7.511   1.490   7.670 -1.1387  0.9133  0.6583
  159SAPE  H12Y17818   7.485   1.666   7.685  0.6441  1.1147  0.0851
  159SAPE  C31317819   7.685   1.610   7.734  0.2398 -0.0924  0.7507
  159SAPE  H13X17820   7.717   1.713   7.707  2.1337 -0.8831 -0.2052
  159SAPE  H13Y17821   7.767   1.539   7.708  0.8399  1.1541 -0.9410
  159SAPE  C31417822   7.659   1.619   7.882  0.5065  0.6544 -0.0082
  159SAPE  H14X17823   7.611   1.525   7.916 -0.8985  1.3008 -0.1195
  159SAPE  H14Y17824   7.587   1.702   7.902  0.1398  1.2262 -3.1643
  159SAPE  C31517825   7.790   1.651   7.964  0.1969  0.3217 -0.7351
  159SAPE  H15X17826   7.826   1.754   7.946  1.1056  0.0296 -0.6200
  159SAPE  H15Y17827   7.865   1.576   7.930 -0.7590 -2.3648  2.5615
  159SAPE  C31617828   7.775   1.628   8.115 -0.2904 -0.0165  0.0514
  159SAPE  H16X17829   7.871   1.657   8.163  1.1252 -0.9358 -2.0918
  159SAPE  H16Y17830   7.759   1.525   8.154 -1.5125  0.5207  1.0369
  159SAPE  C31717831   7.659   1.719   8.167 -0.5741  0.2174 -0.3643
  159SAPE  H17X17832   7.557   1.680   8.144 -0.9904 -0.6689  2.5255
  159SAPE  H17Y17833   7.666   1.820   8.121 -0.4484 -0.2764 -1.4439
  159SAPE  C31817834   7.677   1.728   8.318  0.4119  0.0148 -0.4493
  159SAPE  H18X17835   7.686   1.625   8.357  1.2363  0.4809  0.6371
  159SAPE  H18Y17836   7.603   1.785   8.379 -0.9866 -1.7008 -0.4669
  159SAPE  H18Z17837   7.775   1.779   8.333 -0.6887  2.7264 -1.7003
  160SAPE     N17838   3.232   4.082   6.518  0.7049  0.6153  0.1462
  160SAPE   HN117839   3.325   4.067   6.564  0.1881 -1.3681  0.6396
  160SAPE   HN217840   3.232   4.026   6.431 -0.5754 -0.8785  1.0509
  160SAPE   HN317841   3.220   4.183   6.497  1.2858  0.2087 -2.4910
  160SAPE   C1217842   3.115   4.043   6.608 -0.1397 -0.4506  0.0454
  160SAPE  H12A17843   3.133   3.947   6.660 -0.1628  0.3919  1.6946
  160SAPE  H12B17844   3.019   4.030   6.554 -0.6057 -1.6158  1.1092
  160SAPE   C1117845   3.103   4.148   6.726  0.5802 -0.0395 -0.3488
  160SAPE  H11A17846   3.195   4.129   6.785  0.3013  0.7600  0.3748
  160SAPE  H11B17847   3.015   4.115   6.786  1.0537  0.1562  0.4609
  160SAPE     P17848   2.950   4.347   6.656 -0.3326  0.1416  0.0756
  160SAPE   O1317849   2.948   4.494   6.648 -0.7779  0.3468  0.4610
  160SAPE   O1417850   2.885   4.269   6.554 -0.9493  0.0542  0.3421
  160SAPE   O1217851   3.092   4.283   6.674 -0.9987  0.1647 -0.2978
  160SAPE   O1117852   2.888   4.305   6.797  0.3078  0.7921 -0.0610
  160SAPE    C117853   2.745   4.335   6.823 -0.0314  0.0800  0.1033
  160SAPE    HA17854   2.689   4.342   6.727  1.5562  1.4866 -0.7970
  160SAPE    HB17855   2.695   4.251   6.875  0.5645  0.1268  0.7704
  160SAPE    C217856   2.727   4.471   6.898 -0.8486 -0.1372 -0.7725
  160SAPE    HS17857   2.796   4.546   6.855 -1.8595  2.3470  1.6505
  160SAPE   O2117858   2.773   4.443   7.034 -0.4605 -0.0975 -0.1249
  160SAPE   C2117859   2.850   4.526   7.091 -0.4221 -0.8205 -0.9159
  160SAPE   O2217860   2.902   4.629   7.042 -0.6292  0.2068  0.0436
  160SAPE   C2217861   2.879   4.480   7.242  0.0313  0.0312 -0.5442
  160SAPE   H2R17862   2.959   4.404   7.226  0.6365  0.8739 -1.6567
  160SAPE   H2S17863   2.930   4.567   7.286 -2.3475  0.1122  2.3670
  160SAPE    C317864   2.589   4.541   6.907 -0.1036  0.7149  0.2510
  160SAPE    HX17865   2.510   4.469   6.939  0.7184 -0.9244 -1.2308
  160SAPE    HY17866   2.551   4.555   6.804 -1.7923  0.9750  0.8703
  160SAPE   O3117867   2.584   4.655   6.994 -0.1090 -0.2662 -0.0406
  160SAPE   C3117868   2.651   4.755   6.926 -0.3611  0.5224 -0.9192
  160SAPE   O3217869   2.678   4.747   6.811 -0.5571 -0.1101  0.3704
  160SAPE   C3217870   2.673   4.878   7.023  0.0706 -0.0664  0.0892
  160SAPE   H2X17871   2.663   4.971   6.964  2.3900  0.2359  0.1146
  160SAPE   H2Y17872   2.776   4.862   7.059 -0.4337  0.9115  2.1194
  160SAPE   C2317873   2.758   4.428   7.319  0.2636 -0.5707 -0.1723
  160SAPE   H3R17874   2.802   4.364   7.398  1.2452  0.1525 -0.1040
  160SAPE   H3S17875   2.678   4.373   7.265 -0.5055  1.0822 -0.7879
  160SAPE   C2417876   2.686   4.541   7.394 -0.4384 -0.6498 -0.1001
  160SAPE   H4R17877   2.659   4.617   7.318  1.3146 -0.6459 -0.7618
  160SAPE   H4S17878   2.752   4.603   7.458 -1.3259  0.5449 -0.3030
  160SAPE   C2517879   2.561   4.498   7.473 -0.7444  0.2424 -0.3280
  160SAPE   H5R17880   2.473   4.493   7.408  1.1517 -1.3152 -3.0117
  160SAPE   C2617881   2.556   4.486   7.604 -0.1072  0.2259  0.0116
  160SAPE   H6R17882   2.466   4.437   7.644  0.6949 -2.7810 -1.6134
  160SAPE   C2717883   2.665   4.499   7.708  0.6616  0.2217  0.7440
  160SAPE   H7R17884   2.644   4.581   7.780  0.4869  0.0856  0.8459
  160SAPE   H7S17885   2.756   4.538   7.657 -0.0145  0.1393 -0.5754
  160SAPE   C2817886   2.686   4.373   7.785 -0.4962 -0.2250 -0.7656
  160SAPE   H8R17887   2.733   4.287   7.735 -0.8981 -0.2597 -1.0829
  160SAPE   C2917888   2.647   4.353   7.914 -1.0401 -0.1015 -0.5868
  160SAPE   H9R17889   2.688   4.262   7.962  0.3271  0.7083 -0.1725
  160SAPE  C21017890   2.592   4.463   8.002  0.9324 -0.1650 -0.5397
  160SAPE  H10R17891   2.484   4.467   7.980  0.3714 -0.6420  1.8203
  160SAPE  H10S17892   2.635   4.560   7.968  1.3995 -0.5141 -0.9607
  160SAPE  C21117893   2.606   4.462   8.154  0.6649  0.1628  0.2983
  160SAPE  H11R17894   2.508   4.460   8.203 -0.8972  1.6956 -2.4756
  160SAPE  C21217895   2.716   4.463   8.230  0.0403  0.1702 -0.6769
  160SAPE  H12R17896   2.703   4.479   8.338 -0.8435  2.1805 -1.0443
  160SAPE  C21317897   2.858   4.479   8.186  0.0178  0.1120  0.0601
  160SAPE  H13R17898   2.860   4.470   8.076 -0.8421 -2.0270  0.1611
  160SAPE  H13S17899   2.915   4.397   8.235  0.6425 -0.0132 -0.8618
  160SAPE  C21417900   2.927   4.602   8.239  1.5393  0.2243  1.0829
  160SAPE  H14R17901   2.914   4.612   8.347 -1.5180 -0.6526  0.8988
  160SAPE  C21517902   3.016   4.683   8.174  0.5280  0.0824 -0.2164
  160SAPE  H15R17903   3.051   4.773   8.226  0.8008  1.6323 -2.9230
  160SAPE  C21617904   3.069   4.667   8.032 -0.5118 -0.3867 -0.0683
  160SAPE  H16R17905   3.035   4.576   7.979 -2.0715 -0.8691  1.6417
  160SAPE  H16S17906   3.179   4.661   8.037 -0.2520  2.8834  0.8009
  160SAPE  C21717907   3.031   4.782   7.941 -0.4627 -0.0285 -0.4399
  160SAPE  H17R17908   3.057   4.877   7.991  0.8043  0.0220 -1.1626
  160SAPE  H17S17909   2.920   4.787   7.938 -0.5843 -2.0034 -2.0351
  160SAPE  C21817910   3.093   4.775   7.800  0.1725 -0.1214  0.0656
  160SAPE  H18R17911   3.055   4.683   7.752  2.0649 -1.2256  0.5828
  160SAPE  H18S17912   3.204   4.778   7.804  0.2993 -1.1278 -1.7383
  160SAPE  C21917913   3.066   4.885   7.699 -0.5922 -0.1712 -0.2456
  160SAPE  H19R17914   3.133   4.964   7.740  0.0288 -1.2527  0.9154
  160SAPE  H19S17915   2.964   4.927   7.709 -0.3062  0.5802 -0.3637
  160SAPE  C22017916   3.100   4.865   7.555  0.6712  0.3738 -0.1133
  160SAPE  H20R17917   3.076   4.961   7.503  0.8443  1.0553  1.0276
  160SAPE  H20S17918   3.029   4.785   7.527  1.1575  0.1288 -0.6749
  160SAPE  H20T17919   3.206   4.832   7.543  0.6629 -0.0321  0.8574
  160SAPE   C3317920   2.560   4.893   7.131  0.5066 -0.5729  0.5681
  160SAPE   H3X17921   2.569   4.810   7.204  0.6122 -0.0343  1.1810
  160SAPE   H3Y17922   2.462   4.890   7.078 -0.1494  0.4579  1.6523
  160SAPE   C3417923   2.564   5.036   7.195 -0.7231  0.5916  0.0909
  160SAPE   H4X17924   2.466   5.054   7.245 -0.8789 -0.7179  0.3099
  160SAPE   H4Y17925   2.577   5.118   7.122  0.3255 -0.6306 -1.1454
  160SAPE   C3517926   2.673   5.053   7.301  0.1016  0.4155 -0.3737
  160SAPE   H5X17927   2.660   5.158   7.336  0.8462 -0.0287  1.3783
  160SAPE   H5Y17928   2.779   5.040   7.270  0.0639 -0.1135 -0.2862
  160SAPE   C3617929   2.631   4.967   7.425 -0.2394 -0.0975  0.2176
  160SAPE   H6X17930   2.636   4.858   7.404 -3.0270 -0.2626 -0.0459
  160SAPE   H6Y17931   2.522   4.979   7.441 -0.4629 -0.9344 -0.5540
  160SAPE   C3717932   2.700   5.005   7.555 -0.6398  0.4850 -0.2824
  160SAPE   H7X17933   2.662   5.109   7.565 -0.6506  0.5127 -0.6019
  160SAPE   H7Y17934   2.810   5.012   7.542 -0.4538 -2.2342 -0.8933
  160SAPE   C3817935   2.658   4.915   7.673 -0.3255 -0.0559  0.3429
  160SAPE   H8X17936   2.723   4.828   7.695  0.7703  0.7575  0.3692
  160SAPE   H8Y17937   2.561   4.864   7.651 -0.8742  1.0677  0.1163
  160SAPE   C3917938   2.635   4.986   7.808 -0.6522 -0.1167 -0.1663
  160SAPE   H9X17939   2.550   5.057   7.808 -1.8102 -1.4418 -1.2081
  160SAPE   H9Y17940   2.736   5.021   7.840 -1.3980  2.0675 -0.0047
  160SAPE  C31017941   2.584   4.881   7.909  0.0706 -0.6712  0.3894
  160SAPE  H10X17942   2.656   4.797   7.915  0.5966 -0.5882 -2.6739
  160SAPE  H10Y17943   2.487   4.836   7.880 -1.1256 -0.3720  3.5454
  160SAPE  C31117944   2.548   4.939   8.057  0.2917  0.0632 -0.0933
  160SAPE  H11X17945   2.476   5.022   8.041 -0.0025 -0.5342 -2.1532
  160SAPE  H11Y17946   2.651   4.968   8.090  0.1769 -1.2415  1.5141
  160SAPE  C31217947   2.497   4.831   8.152 -0.2677 -0.0590  0.2062
  160SAPE  H12X17948   2.588   4.772   8.178 -0.9534 -0.9013  0.7443
  160SAPE  H12Y17949   2.414   4.774   8.106 -1.1253  1.2093  0.1124
  160SAPE  C31317950   2.436   4.884   8.282 -0.3027 -0.5329  0.4038
  160SAPE  H13X17951   2.338   4.932   8.260 -0.2126 -0.7730 -0.5783
  160SAPE  H13Y17952   2.504   4.949   8.341 -1.3543 -0.1615  1.2232
  160SAPE  C31417953   2.391   4.770   8.380 -0.5748 -0.1372 -0.1731
  160SAPE  H14X17954   2.486   4.726   8.416 -0.8659  1.7363  3.3415
  160SAPE  H14Y17955   2.334   4.699   8.318 -0.7172 -0.3305  0.1749
  160SAPE  C31517956   2.297   4.808   8.489 -0.1924 -0.1864 -0.5725
  160SAPE  H15X17957   2.232   4.891   8.454 -0.0212  0.2408  0.0977
  160SAPE  H15Y17958   2.358   4.843   8.575  1.3592  0.7537 -1.9890
  160SAPE  C31617959   2.213   4.693   8.533 -0.4756 -0.9068 -0.2411
  160SAPE  H16X17960   2.282   4.609   8.559 -0.1424 -1.0009 -1.3783
  160SAPE  H16Y17961   2.150   4.665   8.446 -2.7316  2.0211  0.2803
  160SAPE  C31717962   2.131   4.729   8.660 -0.0802  0.3432  0.0883
  160SAPE  H17X17963   2.069   4.820   8.648 -0.8638 -0.1230  0.5891
  160SAPE  H17Y17964   2.212   4.730   8.737  1.0001 -1.6794 -0.9290
  160SAPE  C31817965   2.034   4.616   8.703 -0.0708 -0.1972 -0.2094
  160SAPE  H18X17966   1.971   4.588   8.616 -3.0905  0.1212  1.7096
  160SAPE  H18Y17967   1.975   4.652   8.790 -0.5729 -2.6757  0.5812
  160SAPE  H18Z17968   2.094   4.524   8.721  1.6769  0.1213 -3.6450
  161SOPE     N17969   0.481   6.719  10.517  0.3635 -0.6503  0.3913
  161SOPE   HN117970   0.562   6.657  10.538  0.6294  0.3305  2.4956
  161SOPE   HN217971   0.393   6.665  10.528 -1.0006  1.7401  2.0986
  161SOPE   HN317972   0.469   6.763  10.423 -3.1671  1.0608  1.4890
  161SOPE   C1217973   0.481   6.839  10.607 -0.3982 -1.1545  0.0215
  161SOPE  H12A17974   0.570   6.901  10.583 -1.6563  0.8705  0.3563
  161SOPE  H12B17975   0.477   6.799  10.711 -0.7327  1.2531  1.0029
  161SOPE   C1117976   0.357   6.921  10.587 -0.2720 -0.5154 -0.1819
  161SOPE  H11A17977   0.351   6.933  10.477  1.6298 -4.5574 -0.8917
  161SOPE  H11B17978   0.366   7.027  10.619 -0.5176 -0.4509 -0.3297
  161SOPE     P17979   0.176   6.911  10.792 -0.2545 -0.0321 -0.1747
  161SOPE   O1317980   0.283   6.956  10.885  0.0422 -0.4973  0.1050
  161SOPE   O1417981   0.079   6.815  10.844  0.1789 -0.5323  0.1147
  161SOPE   O1217982   0.246   6.855  10.655  0.0203  0.3088 -0.4600
  161SOPE   O1117983   0.107   7.045  10.747 -0.0071  0.0606 -0.5382
  161SOPE    C117984   0.007   7.049  10.642  0.0495  0.1980 -0.4670
  161SOPE    HA17985  -0.087   6.999  10.676 -0.3740  1.3115  0.0467
  161SOPE    HB17986   0.042   6.991  10.554 -0.1361 -1.8960  0.7634
  161SOPE    C217987  -0.033   7.191  10.592  0.0384 -0.7187 -0.1612
  161SOPE    HS17988  -0.029   7.254  10.684  1.2042 -1.5567  0.3798
  161SOPE   O2117989  -0.160   7.187  10.537  0.3535  0.2814 -0.0967
  161SOPE   C2117990  -0.227   7.293  10.528 -0.2223  0.0437  0.3031
  161SOPE   O2217991  -0.196   7.400  10.573  0.0591 -0.6835  0.3154
  161SOPE   C2217992  -0.344   7.267  10.434  0.2767  0.3664 -0.3671
  161SOPE   H2R17993  -0.433   7.287  10.497 -0.0007  0.3285 -0.7413
  161SOPE   H2S17994  -0.350   7.163  10.395  0.3931  1.0934 -2.4889
  161SOPE    C317995   0.082   7.255  10.511  0.4097  0.7692 -0.7716
  161SOPE    HX17996   0.179   7.250  10.564  0.5852 -0.5903 -1.1839
  161SOPE    HY17997   0.056   7.359  10.482  0.5633  0.9538 -0.2558
  161SOPE   O3117998   0.096   7.182  10.387  0.4699 -0.4432 -0.4645
  161SOPE   C3117999   0.195   7.209  10.320 -0.5622 -0.3080  0.1365
  161SOPE   O3218000   0.292   7.282  10.350  0.1704  0.0010 -0.0229
  161SOPE   C3218001   0.182   7.136  10.185 -0.4377 -0.3591  0.2718
  161SOPE   H2X18002   0.107   7.054  10.188 -0.8630 -0.1171 -2.0350
  161SOPE   H2Y18003   0.282   7.088  10.172 -0.3438 -0.2856  0.6890
  161SOPE   C2318004  -0.338   7.363  10.307  0.5173 -0.2398 -0.0201
  161SOPE   H3R18005  -0.317   7.461  10.356 -2.3029  0.2601  0.3412
  161SOPE   H3S18006  -0.434   7.372  10.252 -1.0877 -0.0815  2.6093
  161SOPE   C2418007  -0.225   7.324  10.211  0.4159  0.1284 -0.0787
  161SOPE   H4R18008  -0.135   7.350  10.271 -0.3411 -1.7471  1.9942
  161SOPE   H4S18009  -0.224   7.217  10.183 -2.9569 -0.3733  1.2463
  161SOPE   C2518010  -0.212   7.420  10.084  0.1249  0.4672 -0.2052
  161SOPE   H5R18011  -0.231   7.523  10.122 -1.0061  0.3915 -0.5164
  161SOPE   H5S18012  -0.110   7.405  10.045  0.2567  0.8224 -0.0091
  161SOPE   C2618013  -0.318   7.384   9.982 -0.9258 -0.4309  0.1223
  161SOPE   H6R18014  -0.303   7.275   9.964  3.1841  0.2005 -1.5058
  161SOPE   H6S18015  -0.419   7.395  10.027 -0.9508 -0.8682  0.1758
  161SOPE   C2718016  -0.306   7.468   9.857  0.1867 -0.2679 -0.1089
  161SOPE   H7R18017  -0.348   7.412   9.770  1.2182 -0.5722 -0.4165
  161SOPE   H7S18018  -0.363   7.563   9.871 -0.9340 -0.8209 -0.7140
  161SOPE   C2818019  -0.164   7.494   9.809 -0.7421 -0.0878  0.2404
  161SOPE   H8R18020  -0.105   7.551   9.884  0.1131 -1.9535  1.0589
  161SOPE   H8S18021  -0.114   7.395   9.815  0.2204  0.3393 -0.3769
  161SOPE   C2918022  -0.142   7.556   9.671 -0.0400  0.0655 -0.8092
  161SOPE   H9118023  -0.145   7.665   9.677  1.1273  0.0467  1.0740
  161SOPE  C21018024  -0.144   7.491   9.554 -0.6348  0.1293 -0.1068
  161SOPE  H10118025  -0.098   7.537   9.466 -2.5804 -0.3631 -1.4320
  161SOPE  C21118026  -0.171   7.338   9.540  0.2995 -0.1530  0.3972
  161SOPE  H11R18027  -0.280   7.316   9.529  0.6774 -2.2887  0.4642
  161SOPE  H11S18028  -0.149   7.279   9.631 -1.3457 -2.0487 -0.3488
  161SOPE  C21218029  -0.102   7.268   9.415 -0.1937  0.1063  0.4564
  161SOPE  H12R18030  -0.100   7.157   9.418  1.4678  0.1046  0.3230
  161SOPE  H12S18031   0.001   7.309   9.412  0.8005 -2.0277  2.3429
  161SOPE  C21318032  -0.182   7.297   9.287 -0.2877  0.2202 -1.1820
  161SOPE  H13R18033  -0.216   7.403   9.290  1.6970  0.9096 -1.6586
  161SOPE  H13S18034  -0.271   7.231   9.274 -0.3058 -0.2319  0.8832
  161SOPE  C21418035  -0.088   7.279   9.165  0.1829 -0.2901 -1.6320
  161SOPE  H14R18036  -0.053   7.174   9.176 -0.9232 -0.5506 -0.2166
  161SOPE  H14S18037   0.002   7.340   9.183  1.8199 -2.6529 -1.2927
  161SOPE  C21518038  -0.147   7.309   9.031 -0.6565  0.0529 -0.5766
  161SOPE  H15R18039  -0.225   7.237   9.000 -1.8705  0.8494  0.5460
  161SOPE  H15S18040  -0.061   7.290   8.963 -0.3700 -0.8451  0.0172
  161SOPE  C21618041  -0.211   7.442   9.023 -0.2624  0.8568  0.1369
  161SOPE  H16R18042  -0.154   7.526   9.070  0.3790  0.8028 -0.5240
  161SOPE  H16S18043  -0.310   7.432   9.073 -0.5693 -0.2117 -0.6604
  161SOPE  C21718044  -0.256   7.488   8.881  0.4937  0.8102  0.1225
  161SOPE  H17R18045  -0.342   7.557   8.895  0.0706 -0.0045  1.7874
  161SOPE  H17S18046  -0.284   7.399   8.821  1.3483  0.4992  0.1773
  161SOPE  C21818047  -0.145   7.572   8.807 -0.6301 -0.1887 -0.2795
  161SOPE  H18R18048  -0.168   7.595   8.701  3.3734 -2.6329 -1.9114
  161SOPE  H18S18049  -0.064   7.496   8.816 -0.5347  0.1616  3.5350
  161SOPE  H18T18050  -0.108   7.659   8.866  1.6826 -1.9519  1.0409
  161SOPE   C3318051   0.156   7.231  10.063  0.1306 -0.0698  0.3437
  161SOPE   H3X18052   0.249   7.283  10.032 -1.9850  3.5165 -0.5028
  161SOPE   H3Y18053   0.093   7.319  10.086  0.6918  1.1933 -2.4567
  161SOPE   C3418054   0.095   7.145   9.945 -0.0329 -0.5828  0.4497
  161SOPE   H4X18055   0.075   7.209   9.857  0.3192 -2.0364 -0.7152
  161SOPE   H4Y18056  -0.004   7.108   9.978 -0.5236  0.3643  0.0661
  161SOPE   C3518057   0.183   7.024   9.905 -0.0409 -0.1787 -0.0219
  161SOPE   H5X18058   0.178   6.940   9.979  1.4111  0.3505  0.7325
  161SOPE   H5Y18059   0.289   7.056   9.896 -0.0809  0.4538  1.4047
  161SOPE   C3618060   0.136   6.960   9.772 -0.0538 -0.3179  0.0864
  161SOPE   H6X18061   0.025   6.961   9.770 -0.0769  0.0836 -2.6687
  161SOPE   H6Y18062   0.172   6.856   9.760 -0.8648 -0.5077 -0.9068
  161SOPE   C3718063   0.184   7.047   9.655 -0.3304 -0.4653 -0.1746
  161SOPE   H7X18064   0.280   7.100   9.672 -0.0488  0.0005 -2.8002
  161SOPE   H7Y18065   0.117   7.136   9.661  0.5760  0.1510  1.6927
  161SOPE   C3818066   0.175   6.975   9.521 -0.1117  0.5605  0.1261
  161SOPE   H8X18067   0.078   6.934   9.485  1.5245 -1.9486 -1.7690
  161SOPE   H8Y18068   0.245   6.889   9.529  0.0904  0.4130 -2.4460
  161SOPE   C3918069   0.218   7.060   9.401  0.2696  0.9225  0.5277
  161SOPE   H9X18070   0.315   7.114   9.407  1.3803 -0.9815  0.3417
  161SOPE   H9Y18071   0.138   7.138   9.395  0.2244  1.1796  3.1499
  161SOPE  C31018072   0.198   6.974   9.272  0.5189 -0.3636 -0.1841
  161SOPE  H10X18073   0.099   6.924   9.272 -0.4794  1.5268  0.5493
  161SOPE  H10Y18074   0.277   6.896   9.278  0.2385 -0.5887  0.5956
  161SOPE  C31118075   0.234   7.058   9.149  0.0994 -0.1164  0.2802
  161SOPE  H11X18076   0.340   7.087   9.165  0.2965 -1.8218  2.6806
  161SOPE  H11Y18077   0.176   7.153   9.144 -0.3443 -0.3961 -0.0045
  161SOPE  C31218078   0.202   6.985   9.019 -0.0712 -0.4277 -0.0476
  161SOPE  H12X18079   0.101   6.940   9.029  1.3742 -3.9079  0.1918
  161SOPE  H12Y18080   0.273   6.904   8.994  0.9670  1.2986 -3.2694
  161SOPE  C31318081   0.206   7.079   8.903  0.5068  0.0001  0.1254
  161SOPE  H13X18082   0.307   7.127   8.896 -0.2474  1.6827  0.1787
  161SOPE  H13Y18083   0.130   7.160   8.917  0.9360  0.2629  1.0695
  161SOPE  C31418084   0.185   7.007   8.768 -0.5093  0.8480 -0.0541
  161SOPE  H14X18085   0.249   6.916   8.762 -1.2257  0.3009  0.4912
  161SOPE  H14Y18086   0.215   7.073   8.683  0.5846  0.6226  0.1361
  161SOPE  C31518087   0.043   6.952   8.737  0.7191 -0.0689 -0.2866
  161SOPE  H15X18088  -0.004   6.899   8.823  1.1313 -1.0322 -0.6382
  161SOPE  H15Y18089   0.052   6.891   8.644 -1.2768 -2.1375  0.7959
  161SOPE  C31618090  -0.051   7.066   8.706 -0.0829  0.4696 -0.3619
  161SOPE  H16X18091   0.006   7.140   8.646  1.0564  1.8514  2.2528
  161SOPE  H16Y18092  -0.082   7.112   8.802 -2.0089 -1.7583  0.2008
  161SOPE  C31718093  -0.181   7.043   8.632 -0.8663  0.0391  0.2393
  161SOPE  H17X18094  -0.220   6.941   8.656 -0.1631 -1.3045 -3.6039
  161SOPE  H17Y18095  -0.172   7.031   8.522  1.4676 -2.6079  0.6041
  161SOPE  C31818096  -0.284   7.143   8.668 -0.3328  0.1187 -0.1366
  161SOPE  H18X18097  -0.300   7.145   8.778  0.8439 -0.2511  0.0551
  161SOPE  H18Y18098  -0.379   7.124   8.613 -0.2427 -0.0336 -0.2418
  161SOPE  H18Z18099  -0.252   7.248   8.652 -0.5864  0.2270  0.0795
  162SOPE     N18100   5.709   6.491  11.466  0.4127 -0.3440  0.1205
  162SOPE   HN118101   5.704   6.390  11.490  0.3904 -0.5427 -0.7004
  162SOPE   HN218102   5.760   6.532  11.547 -0.9876 -2.5496  2.2801
  162SOPE   HN318103   5.613   6.531  11.456  0.2353 -0.7578  0.1524
  162SOPE   C1218104   5.784   6.507  11.334 -0.1344 -0.0942 -1.2156
  162SOPE  H12A18105   5.867   6.433  11.333  0.5479  0.5487  1.1978
  162SOPE  H12B18106   5.807   6.615  11.326 -0.3346  0.1576  1.1127
  162SOPE   C1118107   5.697   6.490  11.210  0.1305  0.8352  0.7109
  162SOPE  H11A18108   5.761   6.492  11.119 -0.2133  2.4013  0.4619
  162SOPE  H11B18109   5.621   6.569  11.191 -1.3383 -0.7911 -0.5558
  162SOPE     P18110   5.626   6.248  11.116 -0.3143 -0.1006  0.0698
  162SOPE   O1318111   5.535   6.138  11.158 -0.5289 -0.4371  0.1929
  162SOPE   O1418112   5.766   6.203  11.098 -0.4079  0.0782  0.2385
  162SOPE   O1218113   5.621   6.370  11.224  0.3093  0.0525 -0.0078
  162SOPE   O1118114   5.565   6.301  10.987 -0.0421  0.8883  0.6045
  162SOPE    C118115   5.649   6.295  10.870  0.3940  0.4782 -0.2453
  162SOPE    HA18116   5.671   6.191  10.838  0.3004  0.4506 -0.2206
  162SOPE    HB18117   5.737   6.360  10.884 -0.6171  1.4464  2.0602
  162SOPE    C218118   5.581   6.351  10.746 -0.6351 -0.6539 -0.0164
  162SOPE    HS18119   5.528   6.445  10.774 -1.3774 -1.7235  2.4669
  162SOPE   O2118120   5.486   6.254  10.700  0.2403 -0.3643  0.1071
  162SOPE   C2118121   5.374   6.292  10.650  0.2656 -0.0040  0.9794
  162SOPE   O2218122   5.332   6.408  10.642 -0.4510  0.1101  0.1453
  162SOPE   C2218123   5.298   6.173  10.593 -0.6743  0.0744 -0.8958
  162SOPE   H2R18124   5.236   6.131  10.675 -0.2691  0.2517 -0.4973
  162SOPE   H2S18125   5.374   6.097  10.565 -0.5867 -0.4498  0.6541
  162SOPE    C318126   5.693   6.382  10.647  0.3625 -0.4524 -0.3745
  162SOPE    HX18127   5.752   6.295  10.611 -0.4940 -1.6764  1.0594
  162SOPE    HY18128   5.775   6.438  10.699  0.5525 -0.0370 -1.1111
  162SOPE   O3118129   5.644   6.461  10.539 -0.0319  0.4011  0.0702
  162SOPE   C3118130   5.632   6.404  10.418  0.2018  0.3499  0.1438
  162SOPE   O3218131   5.669   6.291  10.392  0.0526  0.0211  0.0733
  162SOPE   C3218132   5.577   6.506  10.311  1.1004 -0.4354 -1.2461
  162SOPE   H2X18133   5.639   6.599  10.308 -0.5401  0.7201 -0.4474
  162SOPE   H2Y18134   5.471   6.520  10.339  0.8444  0.3749 -2.5526
  162SOPE   C2318135   5.201   6.198  10.476  0.6980  0.2393 -0.1418
  162SOPE   H3R18136   5.140   6.287  10.502 -1.4822 -0.9412 -0.9656
  162SOPE   H3S18137   5.121   6.125  10.451 -1.8714  3.7075 -3.1513
  162SOPE   C2418138   5.268   6.215  10.336  0.0405  0.7010 -0.3950
  162SOPE   H4R18139   5.341   6.297  10.351 -2.1163  2.6336  0.1244
  162SOPE   H4S18140   5.321   6.122  10.308 -0.8118 -1.1838  3.6030
  162SOPE   C2518141   5.170   6.258  10.229  0.0316 -0.1651  0.3822
  162SOPE   H5R18142   5.083   6.190  10.238 -0.4803  0.6503  1.9230
  162SOPE   H5S18143   5.141   6.364  10.244  1.6617  0.6341 -1.5647
  162SOPE   C2618144   5.232   6.245  10.092 -0.1235  0.1823  0.6324
  162SOPE   H6R18145   5.320   6.311  10.075  0.8159 -1.2425 -0.2835
  162SOPE   H6S18146   5.269   6.141  10.077  1.7086  1.0485 -1.3972
  162SOPE   C2718147   5.123   6.258   9.980 -0.6542 -0.0317  0.1253
  162SOPE   H7R18148   5.155   6.204   9.888 -0.9905 -0.5405  0.2958
  162SOPE   H7S18149   5.032   6.204  10.016 -0.1099 -0.2514  1.2177
  162SOPE   C2818150   5.097   6.405   9.945 -0.3590  0.5547 -0.1460
  162SOPE   H8R18151   5.095   6.455  10.044  0.6095 -1.2950  0.8597
  162SOPE   H8S18152   5.178   6.460   9.893  0.1055  1.1486  1.1489
  162SOPE   C2918153   4.973   6.421   9.861  0.5685  0.2397 -0.0773
  162SOPE   H9118154   4.882   6.464   9.906  0.5617  2.1095 -1.7661
  162SOPE  C21018155   4.955   6.388   9.731 -0.2813 -0.6964  0.0025
  162SOPE  H10118156   4.855   6.405   9.689 -0.6058  1.1888  1.3919
  162SOPE  C21118157   5.059   6.324   9.645  0.6226 -0.1105  0.5353
  162SOPE  H11R18158   5.039   6.215   9.645 -0.1699  0.0161 -0.3836
  162SOPE  H11S18159   5.166   6.343   9.670  0.2840  0.5167  1.5666
  162SOPE  C21218160   5.050   6.365   9.496  0.8148  0.1376 -0.3786
  162SOPE  H12R18161   5.139   6.316   9.451  0.1039 -3.3163  1.5852
  162SOPE  H12S18162   5.038   6.475   9.487 -1.4778  0.0539  0.8052
  162SOPE  C21318163   4.932   6.304   9.423 -1.1834 -0.4124  0.1365
  162SOPE  H13R18164   4.848   6.317   9.495  1.4175  1.6776  3.0772
  162SOPE  H13S18165   4.939   6.197   9.394 -0.2661 -0.3767  0.1908
  162SOPE  C21418166   4.896   6.391   9.296 -0.4718  0.0586 -0.3731
  162SOPE  H14R18167   4.952   6.363   9.204  1.2334 -2.9901  1.4178
  162SOPE  H14S18168   4.906   6.498   9.323  1.6645 -0.0639 -0.5051
  162SOPE  C21518169   4.743   6.374   9.262  0.2256  0.2302  0.5387
  162SOPE  H15R18170   4.673   6.399   9.345  1.6401  5.5882  0.4933
  162SOPE  H15S18171   4.724   6.269   9.232 -0.7972  0.9106 -1.3594
  162SOPE  C21618172   4.701   6.462   9.140 -0.0176 -0.1853  0.1348
  162SOPE  H16R18173   4.614   6.415   9.090 -0.1890 -1.1970  1.3252
  162SOPE  H16S18174   4.788   6.465   9.071 -0.7468  1.5539 -0.7714
  162SOPE  C21718175   4.677   6.609   9.164 -0.1662 -0.1477 -0.1499
  162SOPE  H17R18176   4.779   6.641   9.196 -0.0714 -0.8154  0.2473
  162SOPE  H17S18177   4.601   6.604   9.244  0.4544 -0.6806  0.4240
  162SOPE  C21818178   4.622   6.690   9.039  0.2859  0.4972 -0.1496
  162SOPE  H18R18179   4.512   6.686   9.048  0.2647  2.7611  1.7287
  162SOPE  H18S18180   4.665   6.683   8.937  0.2040 -0.4851 -0.1227
  162SOPE  H18T18181   4.638   6.797   9.065 -0.3861  0.8247 -1.0396
  162SOPE   C3318182   5.595   6.440  10.174  0.7977 -1.0752  0.3608
  162SOPE   H3X18183   5.539   6.344  10.167 -1.0257 -0.1039  1.0148
  162SOPE   H3Y18184   5.702   6.425  10.147  1.0179  0.7963  0.1193
  162SOPE   C3418185   5.522   6.517  10.067  0.5212 -0.1584 -0.4582
  162SOPE   H4X18186   5.556   6.622  10.080 -0.4262  0.0470  0.4401
  162SOPE   H4Y18187   5.413   6.534  10.086  0.5483 -0.7054  0.2143
  162SOPE   C3518188   5.548   6.455   9.931  0.0464 -0.7035 -0.4618
  162SOPE   H5X18189   5.528   6.346   9.943 -0.3555 -0.5606  0.2133
  162SOPE   H5Y18190   5.654   6.465   9.900 -0.2047  1.2169 -0.8427
  162SOPE   C3618191   5.457   6.504   9.820  0.0851  0.6094 -0.5910
  162SOPE   H6X18192   5.443   6.612   9.843  0.8775  0.7968 -0.9448
  162SOPE   H6Y18193   5.359   6.453   9.830 -1.5691  3.1086 -2.6983
  162SOPE   C3718194   5.522   6.495   9.685  0.2907  0.1548  0.2251
  162SOPE   H7X18195   5.549   6.389   9.663 -0.4095 -0.4714  2.1942
  162SOPE   H7Y18196   5.612   6.559   9.688  0.3134  0.1049  0.7347
  162SOPE   C3818197   5.428   6.543   9.570  0.2784 -0.4750 -0.3071
  162SOPE   H8X18198   5.414   6.652   9.589 -1.5311 -0.6475 -0.4078
  162SOPE   H8Y18199   5.334   6.486   9.590  1.8208 -3.6943 -1.5509
  162SOPE   C3918200   5.481   6.503   9.438  0.3615  0.1108  0.2794
  162SOPE   H9X18201   5.502   6.395   9.427  0.7975  0.3530 -1.6501
  162SOPE   H9Y18202   5.580   6.548   9.413  0.8592  0.0672  2.0441
  162SOPE  C31018203   5.393   6.550   9.323 -1.0196  0.3238  0.2887
  162SOPE  H10X18204   5.399   6.660   9.316  2.0030  0.3559  1.9999
  162SOPE  H10Y18205   5.290   6.515   9.346 -0.5460 -0.4981  1.2523
  162SOPE  C31118206   5.437   6.495   9.189 -0.4368  0.1967  0.0253
  162SOPE  H11X18207   5.492   6.400   9.206 -2.7903 -0.9223  2.0257
  162SOPE  H11Y18208   5.516   6.564   9.152 -0.3505 -1.3356 -2.9192
  162SOPE  C31218209   5.334   6.469   9.085 -0.4828  0.2710 -0.4081
  162SOPE  H12X18210   5.386   6.442   8.991 -0.6269  0.2086 -0.4704
  162SOPE  H12Y18211   5.281   6.561   9.052 -4.7317 -2.1936 -1.2103
  162SOPE  C31318212   5.233   6.365   9.132 -0.3829 -0.3608  0.1031
  162SOPE  H13X18213   5.159   6.408   9.203  1.8436 -0.6473  2.7637
  162SOPE  H13Y18214   5.278   6.288   9.197 -2.0904 -1.4514  0.0555
  162SOPE  C31418215   5.182   6.287   9.012  0.2022 -0.5112 -0.0020
  162SOPE  H14X18216   5.136   6.191   9.046  1.0442 -0.7470  0.4884
  162SOPE  H14Y18217   5.274   6.246   8.966  0.8525 -1.8796  2.3540
  162SOPE  C31518218   5.078   6.367   8.925  0.2871  0.2262 -0.4685
  162SOPE  H15X18219   5.121   6.468   8.909 -1.2862  1.1361  0.6874
  162SOPE  H15Y18220   4.989   6.392   8.987  1.2587  2.5620  0.1008
  162SOPE  C31618221   5.031   6.303   8.786  0.1726 -0.0573 -0.2722
  162SOPE  H16X18222   4.961   6.217   8.793 -0.5130  0.4034 -1.2785
  162SOPE  H16Y18223   5.132   6.276   8.748  0.7123  2.0174 -0.4072
  162SOPE  C31718224   4.956   6.393   8.685  0.3622 -0.4690  0.7467
  162SOPE  H17X18225   4.950   6.352   8.582  0.3809 -0.4284  0.7299
  162SOPE  H17Y18226   5.018   6.482   8.662 -0.7032 -0.0222 -0.4953
  162SOPE  C31818227   4.817   6.438   8.737  0.1596 -0.1123  0.7727
  162SOPE  H18X18228   4.768   6.516   8.676  0.3986  0.1507  0.9133
  162SOPE  H18Y18229   4.822   6.468   8.844 -1.2588 -1.8012  1.3565
  162SOPE  H18Z18230   4.745   6.354   8.736 -2.9133  2.3278  0.0989
  163SOPE     N18231   5.373   2.685  10.513 -0.1846  0.7320 -0.1291
  163SOPE   HN118232   5.391   2.671  10.615  0.3515 -0.1186 -0.3290
  163SOPE   HN218233   5.288   2.632  10.487  1.0574  0.0850 -3.2803
  163SOPE   HN318234   5.453   2.643  10.461  0.0752 -0.8529  1.4461
  163SOPE   C1218235   5.350   2.830  10.487 -0.5617  0.0109  0.2127
  163SOPE  H12A18236   5.246   2.854  10.517 -0.5566  0.1814  0.0953
  163SOPE  H12B18237   5.366   2.838  10.377  0.3090 -0.0557  0.3271
  163SOPE   C1118238   5.462   2.908  10.554 -0.0835  0.1267  0.4746
  163SOPE  H11A18239   5.442   2.912  10.663 -1.1721  0.3659  0.2687
  163SOPE  H11B18240   5.464   3.013  10.520  1.6393  0.2430  0.8500
  163SOPE     P18241   5.690   2.905  10.416  0.0525  0.0977 -0.2907
  163SOPE   O1318242   5.770   2.794  10.370 -0.0499  0.3378  0.4359
  163SOPE   O1418243   5.766   3.014  10.474  0.3297 -0.0714 -0.4220
  163SOPE   O1218244   5.590   2.847  10.526 -0.0748 -0.3744 -0.2229
  163SOPE   O1118245   5.599   2.958  10.302 -0.8420 -0.0438  0.6085
  163SOPE    C118246   5.611   2.928  10.160 -0.2898 -0.6281  0.0856
  163SOPE    HA18247   5.551   2.993  10.092  2.5226  0.4361 -1.5419
  163SOPE    HB18248   5.574   2.827  10.132 -0.7564 -0.4323 -0.0292
  163SOPE    C218249   5.764   2.955  10.103  0.4721  0.5265  0.4055
  163SOPE    HS18250   5.836   2.895  10.163  1.6180  1.2789 -0.1681
  163SOPE   O2118251   5.791   3.098  10.108 -0.0114  0.1928  0.0218
  163SOPE   C2118252   5.914   3.130  10.117  0.2622 -1.5256 -0.2267
  163SOPE   O2218253   6.015   3.067  10.104  0.2169  0.1016 -0.3441
  163SOPE   C2218254   5.905   3.278  10.149 -0.5607  0.3871 -0.3885
  163SOPE   H2R18255   5.990   3.291  10.220 -0.5123  0.0877 -0.3894
  163SOPE   H2S18256   5.817   3.299  10.213  1.5002  1.2682  2.3533
  163SOPE    C318257   5.775   2.909   9.956  0.3064  0.4023 -0.1981
  163SOPE    HX18258   5.881   2.912   9.925  0.7843  0.2048  1.3539
  163SOPE    HY18259   5.712   2.966   9.884 -1.1469 -0.9908 -0.1103
  163SOPE   O3118260   5.719   2.771   9.949 -0.5545  0.0392  0.0311
  163SOPE   C3118261   5.800   2.676   9.979 -0.0314  0.1856 -0.3842
  163SOPE   O3218262   5.917   2.680   9.987 -0.7145  0.3895  0.6791
  163SOPE   C3218263   5.715   2.552   9.996 -0.2297  0.5197  1.3124
  163SOPE   H2X18264   5.630   2.590  10.056 -0.4805 -0.0182  1.3025
  163SOPE   H2Y18265   5.789   2.484  10.043  2.1333  1.3690 -0.9201
  163SOPE   C2318266   5.912   3.362  10.022 -0.0984  0.2345  0.0288
  163SOPE   H3R18267   5.821   3.345   9.960  2.0365  0.4661 -3.4652
  163SOPE   H3S18268   6.001   3.338   9.959 -2.1501 -0.3821 -2.8769
  163SOPE   C2418269   5.926   3.509  10.052 -0.6701 -0.6301 -0.5306
  163SOPE   H4R18270   5.852   3.534  10.131  0.0970  0.2150 -0.0427
  163SOPE   H4S18271   6.026   3.527  10.098 -2.5532  3.1525  2.7590
  163SOPE   C2518272   5.897   3.612   9.935  0.1711 -0.3030 -0.0399
  163SOPE   H5R18273   5.802   3.590   9.881 -2.4446  4.7760  1.8259
  163SOPE   H5S18274   5.871   3.714   9.969  2.8671  1.2053 -2.2004
  163SOPE   C2618275   6.013   3.623   9.842 -0.2649  0.0409  0.3426
  163SOPE   H6R18276   6.111   3.641   9.892 -0.6940 -0.0685  1.2502
  163SOPE   H6S18277   6.030   3.531   9.782  0.2435  0.9082 -0.8884
  163SOPE   C2718278   6.000   3.725   9.727  0.7498 -0.1024  0.8292
  163SOPE   H7R18279   5.996   3.822   9.781 -0.1562 -0.3968  1.3042
  163SOPE   H7S18280   6.098   3.706   9.677  0.2616 -0.9319  0.1477
  163SOPE   C2818281   5.871   3.694   9.642  0.2103 -0.0931 -0.5162
  163SOPE   H8R18282   5.882   3.588   9.612  1.7363  0.1936 -1.0666
  163SOPE   H8S18283   5.780   3.703   9.706  0.9420  0.3664  0.4933
  163SOPE   C2918284   5.871   3.782   9.521 -0.6148  0.3172  0.4701
  163SOPE   H9118285   5.840   3.887   9.532 -0.5210  0.3233  0.6951
  163SOPE  C21018286   5.925   3.755   9.398  0.0060  0.1658  0.4022
  163SOPE  H10118287   5.909   3.838   9.328 -0.1891  0.0269  0.2804
  163SOPE  C21118288   5.968   3.619   9.353 -0.3877 -0.1024 -0.4147
  163SOPE  H11R18289   5.972   3.544   9.435  0.7285 -0.4410 -0.7518
  163SOPE  H11S18290   6.073   3.624   9.316 -1.0625 -1.6296 -2.7435
  163SOPE  C21218291   5.887   3.558   9.240  1.0858 -0.0918 -0.7420
  163SOPE  H12R18292   5.890   3.625   9.151 -0.3686  1.4409  0.3064
  163SOPE  H12S18293   5.783   3.545   9.276  0.7344  1.4060 -1.1384
  163SOPE  C21318294   5.934   3.418   9.185 -0.3279 -0.5294 -0.5280
  163SOPE  H13R18295   5.911   3.348   9.269 -2.1893 -1.7071 -1.9231
  163SOPE  H13S18296   6.043   3.427   9.170 -0.3918 -0.1196 -0.7625
  163SOPE  C21418297   5.868   3.369   9.058  0.3498 -0.1396  0.4624
  163SOPE  H14R18298   5.882   3.442   8.976  0.8095  0.5905  1.1757
  163SOPE  H14S18299   5.760   3.369   9.084 -0.0964  1.3601 -1.1776
  163SOPE  C21518300   5.912   3.236   9.008  0.0671  0.0890 -0.1535
  163SOPE  H15R18301   5.941   3.166   9.089  0.6741 -0.7295 -1.0452
  163SOPE  H15S18302   5.998   3.248   8.938  0.9360  0.7417  1.0020
  163SOPE  C21618303   5.791   3.170   8.929  0.1113 -0.5351 -0.6216
  163SOPE  H16R18304   5.747   3.227   8.844  2.3356  1.1100 -0.7672
  163SOPE  H16S18305   5.711   3.170   9.006  1.0741 -2.9863  0.4671
  163SOPE  C21718306   5.812   3.029   8.888  0.3735  0.5300 -0.4803
  163SOPE  H17R18307   5.919   3.003   8.879  0.5370  0.4004  1.4241
  163SOPE  H17S18308   5.764   3.028   8.788 -0.8031  5.0332 -0.2027
  163SOPE  C21818309   5.725   2.937   8.970  0.4445 -0.5248 -0.0533
  163SOPE  H18R18310   5.704   2.835   8.930  0.1373 -0.6975  0.5334
  163SOPE  H18S18311   5.628   2.990   8.979  0.0232 -1.4684  1.3858
  163SOPE  H18T18312   5.759   2.927   9.075  0.5897  2.9589  0.3286
  163SOPE   C3318313   5.673   2.503   9.852 -0.1221 -0.1882  0.2380
  163SOPE   H3X18314   5.600   2.571   9.804  0.7735 -0.8345 -2.2077
  163SOPE   H3Y18315   5.619   2.408   9.870 -2.1203  0.9922  0.6537
  163SOPE   C3418316   5.781   2.476   9.748  0.3755 -0.3088 -1.0113
  163SOPE   H4X18317   5.859   2.415   9.797  0.9545 -0.5778 -2.2226
  163SOPE   H4Y18318   5.831   2.570   9.717 -0.0023  0.7909  1.4527
  163SOPE   C3518319   5.729   2.394   9.622 -0.5965  0.1155 -0.3899
  163SOPE   H5X18320   5.670   2.304   9.649 -0.8802  0.5151  0.3554
  163SOPE   H5Y18321   5.817   2.364   9.561 -0.0675  3.0656 -1.2678
  163SOPE   C3618322   5.641   2.475   9.534  0.1697 -0.0933 -0.6556
  163SOPE   H6X18323   5.697   2.570   9.516 -2.9971  1.7060 -1.7957
  163SOPE   H6Y18324   5.550   2.494   9.594  1.5249 -0.2411  1.5789
  163SOPE   C3718325   5.615   2.419   9.397  0.5383 -0.2044  0.3074
  163SOPE   H7X18326   5.591   2.311   9.410 -0.9382  0.4267  4.5847
  163SOPE   H7Y18327   5.704   2.434   9.333 -0.1832  3.6912 -0.0837
  163SOPE   C3818328   5.504   2.499   9.331 -0.3050  0.3764  0.1171
  163SOPE   H8X18329   5.536   2.605   9.331 -1.9405  0.8895 -0.3029
  163SOPE   H8Y18330   5.407   2.492   9.384 -0.3602  2.6984  0.4385
  163SOPE   C3918331   5.482   2.456   9.189 -0.1654 -0.9057  1.1863
  163SOPE   H9X18332   5.453   2.350   9.173 -0.0163 -0.5865 -1.7497
  163SOPE   H9Y18333   5.581   2.459   9.138 -0.3496 -1.2137  0.8017
  163SOPE  C31018334   5.389   2.551   9.116  0.4460 -0.4630  0.4647
  163SOPE  H10X18335   5.399   2.652   9.160 -0.2669 -0.9692  1.8699
  163SOPE  H10Y18336   5.285   2.514   9.129  0.2400  0.0668  0.3679
  163SOPE  C31118337   5.431   2.564   8.965  0.6139 -0.6436 -0.7897
  163SOPE  H11X18338   5.421   2.457   8.937 -0.8080 -0.7855  0.1869
  163SOPE  H11Y18339   5.540   2.582   8.954  0.9169 -1.3897  0.7756
  163SOPE  C31218340   5.352   2.656   8.874  0.4365 -0.3740  0.0096
  163SOPE  H12X18341   5.244   2.633   8.870  0.6306 -1.6192  1.2005
  163SOPE  H12Y18342   5.402   2.633   8.777  0.4814 -0.7247  0.1146
  163SOPE  C31318343   5.368   2.807   8.904 -0.6722  0.1713  0.4294
  163SOPE  H13X18344   5.476   2.817   8.930 -0.1675 -1.9055 -0.6363
  163SOPE  H13Y18345   5.311   2.835   8.995  0.2719 -0.3022  1.1867
  163SOPE  C31418346   5.334   2.909   8.792 -0.4572  0.1920  0.0407
  163SOPE  H14X18347   5.322   3.008   8.841 -1.7721  0.1427 -0.1492
  163SOPE  H14Y18348   5.232   2.886   8.754 -0.9219  2.6027 -0.3588
  163SOPE  C31518349   5.430   2.917   8.673 -0.5611  0.4965  0.1537
  163SOPE  H15X18350   5.436   2.824   8.613  0.5328  1.0103 -0.5702
  163SOPE  H15Y18351   5.535   2.936   8.707 -0.4564 -1.0696  0.8451
  163SOPE  C31618352   5.386   3.034   8.584 -0.1363 -0.0096  0.4840
  163SOPE  H16X18353   5.457   3.073   8.508  0.7276 -0.1918  1.1790
  163SOPE  H16Y18354   5.362   3.116   8.655 -1.7012  1.6222 -1.8040
  163SOPE  C31718355   5.253   3.004   8.514 -0.0757 -0.4072  0.4301
  163SOPE  H17X18356   5.177   3.008   8.595  0.7797  2.2613  1.2079
  163SOPE  H17Y18357   5.243   2.907   8.460 -3.7836 -0.2460  0.5806
  163SOPE  C31818358   5.218   3.116   8.413  0.4592 -0.8145 -0.3359
  163SOPE  H18X18359   5.127   3.089   8.354  0.5611  0.2942 -1.0238
  163SOPE  H18Y18360   5.302   3.137   8.343  1.0053  1.1154  0.8324
  163SOPE  H18Z18361   5.198   3.210   8.468  0.2984 -0.8689 -0.3002
  164SOPE     N18362   3.614   2.095  10.660  0.6956 -0.6950 -0.1001
  164SOPE   HN118363   3.647   2.011  10.608  0.0944 -1.2440  0.3934
  164SOPE   HN218364   3.697   2.144  10.699  0.2339 -0.1049  0.1673
  164SOPE   HN318365   3.562   2.064  10.745  0.6854  1.2195  0.6375
  164SOPE   C1218366   3.542   2.188  10.575  0.1320 -0.6792 -0.6561
  164SOPE  H12A18367   3.620   2.226  10.505 -0.5064  1.4638 -0.2782
  164SOPE  H12B18368   3.503   2.271  10.639 -1.5063 -2.3341  0.5852
  164SOPE   C1118369   3.424   2.135  10.502 -0.1408  0.0552  0.2887
  164SOPE  H11A18370   3.449   2.049  10.437 -1.0276 -0.9720  1.2600
  164SOPE  H11B18371   3.389   2.214  10.432 -2.0841 -1.5980 -0.7491
  164SOPE     P18372   3.211   2.174  10.626  0.3207  0.1572  0.1522
  164SOPE   O1318373   3.268   2.301  10.676 -0.2096 -0.5059 -0.2024
  164SOPE   O1418374   3.120   2.103  10.717 -0.2915  0.6513 -0.2067
  164SOPE   O1218375   3.321   2.081  10.586 -0.2745  0.0179 -0.5406
  164SOPE   O1118376   3.137   2.191  10.481  0.0863  0.1306 -0.3664
  164SOPE    C118377   3.052   2.088  10.432  0.2185  0.6223  0.0537
  164SOPE    HA18378   2.944   2.100  10.456  0.0894 -0.9949  0.3933
  164SOPE    HB18379   3.076   1.989  10.476 -0.2153  1.1007  1.4041
  164SOPE    C218380   3.072   2.053  10.284 -0.1405  0.0468  0.1948
  164SOPE    HS18381   3.181   2.033  10.273 -0.1151  0.4549 -0.4070
  164SOPE   O2118382   3.037   2.158  10.198 -0.9771 -0.1568 -0.0946
  164SOPE   C2118383   3.133   2.240  10.164  0.7413  0.1938 -0.3248
  164SOPE   O2218384   3.243   2.249  10.207  1.0253 -0.8736  0.2794
  164SOPE   C2218385   3.079   2.328  10.051 -0.1284  0.1665 -0.1700
  164SOPE   H2R18386   3.149   2.413  10.040  1.1074 -0.5936  1.4616
  164SOPE   H2S18387   2.982   2.373  10.083 -0.8030 -0.8305 -0.7463
  164SOPE    C318388   2.998   1.922  10.233 -0.1294 -0.1237 -0.3960
  164SOPE    HX18389   2.895   1.925  10.274  0.7515  1.8359  1.9182
  164SOPE    HY18390   3.047   1.829  10.270 -2.4231 -1.3679 -0.3108
  164SOPE   O3118391   2.977   1.921  10.095 -0.0312  0.3977 -0.2720
  164SOPE   C3118392   3.081   1.888  10.019 -0.0474 -1.2761 -0.1701
  164SOPE   O3218393   3.185   1.832  10.053 -0.3532 -0.7431 -0.0940
  164SOPE   C3218394   3.039   1.899   9.868 -0.6511 -0.4120 -0.5383
  164SOPE   H2X18395   3.127   1.910   9.801 -0.1919  0.8858  0.2575
  164SOPE   H2Y18396   2.986   1.996   9.858 -0.2411 -0.1206  0.1016
  164SOPE   C2318397   3.051   2.253   9.923  0.1920 -0.9379  0.8045
  164SOPE   H3R18398   2.966   2.182   9.933 -0.9563  0.2928  0.1062
  164SOPE   H3S18399   3.145   2.203   9.891 -1.1200 -2.3301 -1.0688
  164SOPE   C2418400   3.000   2.352   9.823  0.1661 -0.0732  0.4370
  164SOPE   H4R18401   2.901   2.389   9.856 -0.4011 -2.4089  1.5302
  164SOPE   H4S18402   3.063   2.442   9.807 -2.0643  1.9202  1.9874
  164SOPE   C2518403   2.983   2.293   9.676  0.7055 -0.2637 -0.1081
  164SOPE   H5R18404   3.074   2.246   9.635 -1.7077 -3.9143 -1.8164
  164SOPE   H5S18405   2.912   2.211   9.700 -0.9320  1.0776 -0.0815
  164SOPE   C2618406   2.928   2.394   9.579 -0.4920 -0.1951  0.1126
  164SOPE   H6R18407   2.831   2.423   9.624 -0.5272 -1.1635  0.6952
  164SOPE   H6S18408   2.982   2.491   9.573 -1.4963  0.4488  1.0738
  164SOPE   C2718409   2.893   2.334   9.445  0.1791  0.2725  0.2460
  164SOPE   H7R18410   2.810   2.264   9.464 -1.0213  1.4086 -0.6154
  164SOPE   H7S18411   2.853   2.412   9.376  1.7986 -0.4372 -1.5766
  164SOPE   C2818412   3.009   2.252   9.375  0.4074 -0.0355 -0.6688
  164SOPE   H8R18413   3.104   2.306   9.398 -0.2359  0.8489  0.0140
  164SOPE   H8S18414   3.008   2.152   9.423  0.8071  1.3365  2.4229
  164SOPE   C2918415   2.982   2.245   9.229 -0.5536  0.3199 -0.0520
  164SOPE   H9118416   2.952   2.144   9.196 -2.0791  1.0428 -0.9671
  164SOPE  C21018417   2.996   2.341   9.132  0.0340 -0.0401  0.2884
  164SOPE  H10118418   2.966   2.334   9.027  1.3035  0.5318 -0.1367
  164SOPE  C21118419   3.076   2.468   9.155 -0.0866 -0.3913  0.3043
  164SOPE  H11R18420   3.185   2.448   9.167  0.2097  1.1836  0.4615
  164SOPE  H11S18421   3.056   2.510   9.256  0.7668 -1.7081  1.0588
  164SOPE  C21218422   3.050   2.577   9.053 -0.5887  0.5463  0.2760
  164SOPE  H12R18423   3.090   2.676   9.085 -0.5564  1.2053 -1.6847
  164SOPE  H12S18424   2.941   2.597   9.055 -1.2041 -2.4629  1.3049
  164SOPE  C21318425   3.115   2.559   8.916  0.2029 -0.0460  0.3448
  164SOPE  H13R18426   3.093   2.459   8.872  1.2297 -1.6130  3.1610
  164SOPE  H13S18427   3.221   2.547   8.947  1.0424 -0.0611 -2.2662
  164SOPE  C21418428   3.080   2.662   8.815 -0.8108 -0.6716  0.2162
  164SOPE  H14R18429   3.121   2.760   8.845  0.0647 -1.2280  0.8871
  164SOPE  H14S18430   2.970   2.681   8.810 -0.4818  1.3263  0.0209
  164SOPE  C21518431   3.138   2.630   8.671 -0.3750  0.5898 -0.6957
  164SOPE  H15R18432   3.085   2.543   8.626  0.6959  1.4094 -3.7682
  164SOPE  H15S18433   3.246   2.606   8.678 -0.3594  0.6239 -0.8180
  164SOPE  C21618434   3.103   2.741   8.567  0.9336  0.6479 -0.3332
  164SOPE  H16R18435   3.150   2.709   8.471 -0.6507 -1.2489 -0.5477
  164SOPE  H16S18436   3.133   2.837   8.613  1.9323 -0.4089  1.3175
  164SOPE  C21718437   2.952   2.754   8.535 -0.0812 -0.2269  0.2272
  164SOPE  H17R18438   2.901   2.762   8.634 -2.2471  0.3206 -0.8708
  164SOPE  H17S18439   2.915   2.659   8.492 -0.3722  0.0467 -0.1326
  164SOPE  C21818440   2.918   2.881   8.453 -0.3257  0.6850  0.5413
  164SOPE  H18R18441   2.942   2.973   8.510  2.2731  0.3252  0.1583
  164SOPE  H18S18442   2.809   2.883   8.435 -0.6618  0.3412  2.3541
  164SOPE  H18T18443   2.979   2.879   8.360 -0.6403  3.1163  0.2165
  164SOPE   C3318444   2.952   1.782   9.833  0.7320 -0.5156  0.1346
  164SOPE   H3X18445   2.876   1.821   9.764  1.2278  0.0576 -0.0933
  164SOPE   H3Y18446   2.898   1.738   9.920 -0.6457 -0.9096 -0.8973
  164SOPE   C3418447   3.034   1.679   9.753  1.2702 -0.2499  0.3772
  164SOPE   H4X18448   2.976   1.585   9.735 -0.7006  0.8519  0.6801
  164SOPE   H4Y18449   3.120   1.648   9.816  1.5822  0.3175  0.2306
  164SOPE   C3518450   3.087   1.719   9.611  0.0491 -0.1083 -0.5488
  164SOPE   H5X18451   3.141   1.634   9.567  2.1278 -0.0045  1.5911
  164SOPE   H5Y18452   3.162   1.799   9.632  1.4217 -1.6272  0.5961
  164SOPE   C3618453   2.978   1.757   9.509  0.0551 -0.0098 -0.0252
  164SOPE   H6X18454   2.938   1.858   9.529  0.6501  0.4333 -1.0053
  164SOPE   H6Y18455   2.896   1.685   9.531  0.5556 -0.4908  0.3084
  164SOPE   C3718456   3.007   1.735   9.359  0.1105  0.5936  0.0248
  164SOPE   H7X18457   2.910   1.749   9.308  0.7567  2.5005 -0.7814
  164SOPE   H7Y18458   3.048   1.634   9.337 -0.7498  0.5733 -1.6088
  164SOPE   C3818459   3.113   1.839   9.311  0.3036 -0.0894 -0.2274
  164SOPE   H8X18460   3.215   1.804   9.336  0.4186  1.0531  1.0068
  164SOPE   H8Y18461   3.101   1.933   9.368  0.5552  0.3756 -0.9230
  164SOPE   C3918462   3.090   1.875   9.164  0.1727  0.1915 -0.2309
  164SOPE   H9X18463   3.001   1.941   9.167 -1.3549 -1.7738 -0.8169
  164SOPE   H9Y18464   3.067   1.784   9.105  0.1474 -0.7001  1.1150
  164SOPE  C31018465   3.210   1.948   9.113 -0.6355  0.7026  0.3495
  164SOPE  H10X18466   3.301   1.885   9.120  0.2782  1.8363 -0.7965
  164SOPE  H10Y18467   3.242   2.033   9.177  0.6980  1.5078 -1.3172
  164SOPE  C31118468   3.183   2.005   8.974 -0.7691 -0.3019  0.5424
  164SOPE  H11X18469   3.097   2.074   8.990 -0.0324  0.9342 -0.6442
  164SOPE  H11Y18470   3.159   1.916   8.912  2.0338 -1.0563  0.4206
  164SOPE  C31218471   3.306   2.070   8.907 -0.0649 -0.0771 -0.1963
  164SOPE  H12X18472   3.377   1.986   8.889 -1.0964 -0.9859 -0.2051
  164SOPE  H12Y18473   3.347   2.139   8.983  0.6190 -1.0797  0.3711
  164SOPE  C31318474   3.280   2.146   8.780  0.3755 -0.3184 -0.5412
  164SOPE  H13X18475   3.364   2.213   8.753  0.8088 -0.4466  0.4534
  164SOPE  H13Y18476   3.189   2.208   8.799  0.6850  0.1727 -0.6360
  164SOPE  C31418477   3.258   2.061   8.651 -0.6214 -0.0668 -0.2469
  164SOPE  H14X18478   3.208   1.972   8.692  0.5762 -0.5298  0.2415
  164SOPE  H14Y18479   3.357   2.041   8.603  0.7684  3.2053  0.9566
  164SOPE  C31518480   3.165   2.131   8.543 -0.1335  0.4219  0.0162
  164SOPE  H15X18481   3.226   2.209   8.491  1.2272 -0.6755 -0.0998
  164SOPE  H15Y18482   3.088   2.186   8.601 -1.1505 -1.7911  0.8619
  164SOPE  C31618483   3.092   2.031   8.452  0.0821  0.7072 -0.5602
  164SOPE  H16X18484   3.039   1.960   8.519 -0.3519  0.0811 -1.5491
  164SOPE  H16Y18485   3.168   1.975   8.394 -1.3895 -1.9079 -0.1023
  164SOPE  C31718486   2.988   2.086   8.361  0.3250 -0.4217 -0.4140
  164SOPE  H17X18487   2.954   2.002   8.296  3.0346 -0.3722 -2.0462
  164SOPE  H17Y18488   3.042   2.156   8.294  1.4416 -0.2786  0.5888
  164SOPE  C31818489   2.860   2.150   8.426  0.1930 -0.3508 -0.8011
  164SOPE  H18X18490   2.874   2.220   8.511 -0.4579 -2.6502  1.3238
  164SOPE  H18Y18491   2.790   2.075   8.469  0.5335  0.5626  1.5340
  164SOPE  H18Z18492   2.801   2.203   8.348 -0.8061 -1.3206 -0.7311
  165SOPE     N18493   2.084   2.480  10.801  0.4697  0.0466 -0.0099
  165SOPE   HN118494   2.182   2.496  10.772  0.9771 -1.3458  0.8202
  165SOPE   HN218495   2.076   2.393  10.858 -2.6836 -0.2927 -0.7426
  165SOPE   HN318496   2.030   2.459  10.715 -1.3354  0.0534  1.0646
  165SOPE   C1218497   2.031   2.597  10.878  0.5497  0.1679 -0.2712
  165SOPE  H12A18498   2.104   2.609  10.960 -0.0526  1.5277  0.0992
  165SOPE  H12B18499   1.927   2.572  10.908  1.3356 -1.3521  1.3523
  165SOPE   C1118500   2.035   2.729  10.798  0.0869 -0.5391  0.4372
  165SOPE  H11A18501   2.136   2.757  10.762 -0.1804  2.2204  1.5436
  165SOPE  H11B18502   2.031   2.813  10.871  2.4455  0.1160 -0.0927
  165SOPE     P18503   1.788   2.809  10.733  0.1908 -0.1325  0.2940
  165SOPE   O1318504   1.755   2.819  10.872  0.3001 -0.1005  0.0487
  165SOPE   O1418505   1.682   2.751  10.645 -0.3868 -0.1399 -0.3607
  165SOPE   O1218506   1.924   2.726  10.709 -0.4865  0.2593  0.4182
  165SOPE   O1118507   1.819   2.954  10.674  0.0229 -0.1427  0.1613
  165SOPE    C118508   1.915   2.976  10.569 -0.0822 -0.3229  0.3000
  165SOPE    HA18509   2.003   2.908  10.573 -2.3708 -3.5377 -0.1360
  165SOPE    HB18510   1.954   3.080  10.578 -2.7935  0.9958 -1.6366
  165SOPE    C218511   1.852   2.976  10.429 -0.1537  0.3156 -0.5925
  165SOPE    HS18512   1.760   3.038  10.433 -0.4555 -0.1647  0.2554
  165SOPE   O2118513   1.818   2.840  10.387 -0.3340 -0.4050  0.3270
  165SOPE   C2118514   1.714   2.834  10.300  0.3058  0.3364 -0.4280
  165SOPE   O2218515   1.654   2.927  10.250 -0.3582  0.1749 -0.7705
  165SOPE   C2218516   1.683   2.691  10.276 -0.4244 -0.5016 -0.2717
  165SOPE   H2R18517   1.666   2.646  10.377  0.3457  2.7700  1.4543
  165SOPE   H2S18518   1.774   2.633  10.248  0.0675 -0.9904  2.0849
  165SOPE    C318519   1.961   3.040  10.335  0.1863 -0.2677 -0.2743
  165SOPE    HX18520   2.060   2.993  10.357  1.5002  2.6202  0.5154
  165SOPE    HY18521   1.982   3.142  10.374  3.6314 -0.7063 -0.6235
  165SOPE   O3118522   1.938   3.036  10.192 -0.5383 -0.3047 -0.5243
  165SOPE   C3118523   1.855   3.129  10.141 -0.1120 -0.3951  0.2834
  165SOPE   O3218524   1.798   3.215  10.203  0.1955 -0.4007 -0.6473
  165SOPE   C3218525   1.835   3.107   9.991  0.5699  0.1884  0.3121
  165SOPE   H2X18526   1.763   3.023   9.982  0.2340  0.5741 -0.7223
  165SOPE   H2Y18527   1.930   3.070   9.947 -0.5605  0.9323 -2.9742
  165SOPE   C2318528   1.558   2.662  10.196  0.2992 -0.3296 -0.1671
  165SOPE   H3R18529   1.479   2.720  10.248  2.2984  1.6166  0.8763
  165SOPE   H3S18530   1.525   2.556  10.209  1.3970 -0.4162  2.5657
  165SOPE   C2418531   1.570   2.694  10.052 -0.0651 -0.4675 -0.2394
  165SOPE   H4R18532   1.473   2.690   9.999  0.2677  0.3338 -0.9323
  165SOPE   H4S18533   1.609   2.798  10.056 -1.4820  0.0721  0.0523
  165SOPE   C2518534   1.672   2.616   9.970  0.2640  0.9023 -0.1183
  165SOPE   H5R18535   1.774   2.618  10.014  1.1268  2.5656 -2.0784
  165SOPE   H5S18536   1.636   2.510   9.974 -1.7107  1.5366  3.4893
  165SOPE   C2618537   1.682   2.669   9.831 -0.1463  0.4303  0.5982
  165SOPE   H6R18538   1.579   2.697   9.798 -0.1424 -0.2487 -0.0125
  165SOPE   H6S18539   1.743   2.762   9.833  1.5418 -0.6032 -0.4635
  165SOPE   C2718540   1.740   2.581   9.728 -0.1811  0.2467  0.0781
  165SOPE   H7R18541   1.840   2.548   9.765 -0.0456 -0.6303 -1.0253
  165SOPE   H7S18542   1.671   2.493   9.726 -3.4546  2.6555 -1.3183
  165SOPE   C2818543   1.756   2.642   9.587 -0.0261  0.1340 -0.5323
  165SOPE   H8R18544   1.788   2.565   9.514  0.2857  0.1286 -0.3941
  165SOPE   H8S18545   1.658   2.676   9.549 -1.6407 -3.0742  0.4241
  165SOPE   C2918546   1.848   2.761   9.586  0.1162  0.1218  0.2173
  165SOPE   H9118547   1.807   2.847   9.642 -0.7101  0.6375 -1.1083
  165SOPE  C21018548   1.979   2.750   9.554  0.4882 -0.4138 -0.7507
  165SOPE  H10118549   2.037   2.843   9.566 -1.1341  0.6515 -0.9899
  165SOPE  C21118550   2.044   2.630   9.509  0.2412  0.4869  1.0114
  165SOPE  H11R18551   1.999   2.532   9.537  0.0148 -0.7655 -3.0722
  165SOPE  H11S18552   2.140   2.626   9.564  0.6942  0.7985  0.2593
  165SOPE  C21218553   2.070   2.631   9.353 -0.3114  0.5975 -0.5707
  165SOPE  H12R18554   2.141   2.550   9.329 -0.0359  0.5634  0.3445
  165SOPE  H12S18555   2.119   2.727   9.324 -1.2415  1.4195  0.4602
  165SOPE  C21318556   1.948   2.616   9.255 -0.0749  0.5632  0.8187
  165SOPE  H13R18557   1.872   2.690   9.289  0.4156  1.1601  0.6464
  165SOPE  H13S18558   1.901   2.516   9.263  0.1122  0.3164 -0.8509
  165SOPE  C21418559   1.983   2.640   9.108  0.3586 -0.3293  0.1188
  165SOPE  H14R18560   2.058   2.721   9.116 -0.9989  0.9540  0.2623
  165SOPE  H14S18561   1.896   2.681   9.052  0.8400 -1.3809 -1.4843
  165SOPE  C21518562   2.060   2.534   9.033  0.7161  0.3605  0.8562
  165SOPE  H15R18563   2.023   2.431   9.052 -2.9604  1.7695  2.1850
  165SOPE  H15S18564   2.165   2.536   9.071  1.1749 -2.1922 -0.0699
  165SOPE  C21618565   2.052   2.552   8.880  0.1122  0.2533 -0.7828
  165SOPE  H16R18566   2.156   2.567   8.846  0.2003  0.9291 -0.2403
  165SOPE  H16S18567   1.999   2.649   8.866 -1.6440 -0.5309  0.1513
  165SOPE  C21718568   1.986   2.437   8.811 -0.0877  0.3597  0.3833
  165SOPE  H17R18569   2.030   2.337   8.833 -1.0185  0.0162  0.7401
  165SOPE  H17S18570   1.996   2.455   8.702  2.1530 -2.1116  0.0945
  165SOPE  C21818571   1.836   2.438   8.840 -0.5944 -0.0707  0.6115
  165SOPE  H18R18572   1.786   2.515   8.777 -0.1143 -1.3874 -1.4817
  165SOPE  H18S18573   1.801   2.463   8.942  0.2336  1.6203  0.5235
  165SOPE  H18T18574   1.790   2.342   8.807 -0.3510  0.5325 -1.7040
  165SOPE   C3318575   1.782   3.234   9.918 -0.3873 -0.3005 -0.7064
  165SOPE   H3X18576   1.844   3.325   9.931  0.0491 -0.7113  0.1896
  165SOPE   H3Y18577   1.683   3.261   9.960  0.6393 -0.8586  2.3702
  165SOPE   C3418578   1.768   3.202   9.769  0.0931 -0.3163 -0.4933
  165SOPE   H4X18579   1.749   3.303   9.726  2.4011  0.6872  0.6923
  165SOPE   H4Y18580   1.680   3.134   9.763  0.6470 -1.1257  0.3246
  165SOPE   C3518581   1.899   3.154   9.704  0.3098  0.4615 -0.7133
  165SOPE   H5X18582   1.930   3.049   9.721 -0.2879 -0.4403 -4.2569
  165SOPE   H5Y18583   1.974   3.222   9.749  0.5736  0.8427 -1.6985
  165SOPE   C3618584   1.899   3.172   9.554 -0.5941  0.2512  0.3356
  165SOPE   H6X18585   1.867   3.274   9.526 -0.8613  0.5525  1.6780
  165SOPE   H6Y18586   1.825   3.103   9.508 -3.4706  3.8919 -0.8927
  165SOPE   C3718587   2.034   3.131   9.478  0.4038  0.1377 -0.0628
  165SOPE   H7X18588   2.065   3.039   9.533 -0.6920  0.1779  0.6467
  165SOPE   H7Y18589   2.110   3.208   9.506  1.0735 -0.4328 -0.2653
  165SOPE   C3818590   2.012   3.136   9.327  0.0957 -0.5412  1.0047
  165SOPE   H8X18591   2.106   3.136   9.268 -1.3717 -1.6751 -1.4936
  165SOPE   H8Y18592   1.953   3.225   9.296 -0.3059 -1.4593 -0.9886
  165SOPE   C3918593   1.937   3.024   9.259 -0.2556  0.0663 -0.8118
  165SOPE   H9X18594   1.830   3.025   9.289  0.3389  0.0125  1.5819
  165SOPE   H9Y18595   1.979   2.928   9.297  1.4841  1.2491  0.3749
  165SOPE  C31018596   1.941   3.035   9.104  0.0388 -0.5482  0.3858
  165SOPE  H10X18597   1.927   3.143   9.081  5.3079  0.5692  1.2028
  165SOPE  H10Y18598   1.858   2.976   9.059 -0.1894  1.5315 -2.1577
  165SOPE  C31118599   2.067   3.002   9.025 -0.4726 -0.7118  0.5153
  165SOPE  H11X18600   2.100   2.900   9.051 -0.7796 -1.0734 -0.4534
  165SOPE  H11Y18601   2.138   3.088   9.032 -1.8787  0.7565 -1.7946
  165SOPE  C31218602   2.034   2.970   8.877  0.7076 -0.3418  0.0831
  165SOPE  H12X18603   1.981   3.055   8.828  0.7996 -0.2429  0.1529
  165SOPE  H12Y18604   1.966   2.883   8.883  0.5034 -0.1116  1.6161
  165SOPE  C31318605   2.162   2.934   8.798  0.2966  0.0627 -0.2799
  165SOPE  H13X18606   2.146   2.863   8.715  2.3202  0.5236 -1.1248
  165SOPE  H13Y18607   2.226   2.873   8.865  2.1661  0.1072 -1.9424
  165SOPE  C31418608   2.241   3.055   8.745  0.1582  0.2943  0.4059
  165SOPE  H14X18609   2.201   3.143   8.799  0.3995  2.5818 -2.8971
  165SOPE  H14Y18610   2.217   3.081   8.640 -0.5854  0.3682  0.5863
  165SOPE  C31518611   2.391   3.042   8.771 -0.3961  0.2169  0.6017
  165SOPE  H15X18612   2.402   3.029   8.881 -0.0454 -0.1124  0.5301
  165SOPE  H15Y18613   2.438   3.141   8.752 -1.4501  0.8755  1.3237
  165SOPE  C31618614   2.460   2.934   8.686 -0.3797  0.1863  0.6863
  165SOPE  H16X18615   2.420   2.835   8.717 -1.1305  0.9063  2.1405
  165SOPE  H16Y18616   2.566   2.937   8.719 -0.0923 -0.4776 -0.1595
  165SOPE  C31718617   2.445   2.940   8.530  0.1773  0.4277  0.4399
  165SOPE  H17X18618   2.481   3.036   8.487  0.7795 -1.0041 -2.5156
  165SOPE  H17Y18619   2.342   2.917   8.495  0.4406 -0.9525  0.5006
  165SOPE  C31818620   2.531   2.828   8.471 -0.9255 -0.0371 -0.3528
  165SOPE  H18X18621   2.515   2.832   8.362 -1.1581 -0.3713 -0.3334
  165SOPE  H18Y18622   2.480   2.736   8.508 -1.9774  0.8089  0.3719
  165SOPE  H18Z18623   2.636   2.830   8.506 -1.3331  0.9142  0.8992
  166SOPE     N18624   5.293   4.642  10.729  0.1375  0.0608  0.3768
  166SOPE   HN118625   5.282   4.619  10.829  3.1884 -0.5061  0.6714
  166SOPE   HN218626   5.393   4.651  10.702 -0.2286  0.9326 -0.8139
  166SOPE   HN318627   5.256   4.738  10.713  2.5439  1.1146  0.8207
  166SOPE   C1218628   5.220   4.555  10.635  0.5440 -0.1379  0.0201
  166SOPE  H12A18629   5.290   4.471  10.616  0.3605 -0.3141  0.1190
  166SOPE  H12B18630   5.202   4.616  10.543  0.7520  0.9259  0.6615
  166SOPE   C1118631   5.095   4.497  10.707 -0.0671 -0.2409  0.0529
  166SOPE  H11A18632   5.030   4.451  10.629  0.8570  1.7495 -2.0042
  166SOPE  H11B18633   5.038   4.580  10.754  0.5485  0.8948 -1.1237
  166SOPE     P18634   5.047   4.337  10.899  0.0501 -0.0725  0.0961
  166SOPE   O1318635   5.087   4.378  11.037  0.1830  0.0710 -0.5502
  166SOPE   O1418636   5.057   4.195  10.871 -0.1194  0.1766 -0.6989
  166SOPE   O1218637   5.146   4.405  10.806 -0.2089  0.2912 -0.1380
  166SOPE   O1118638   4.911   4.398  10.858  0.2181 -0.3339  0.3305
  166SOPE    C118639   4.781   4.341  10.847 -0.1523 -0.5126 -0.4114
  166SOPE    HA18640   4.710   4.425  10.833  0.4604  0.8243  3.3257
  166SOPE    HB18641   4.741   4.287  10.936 -3.0270 -0.3994 -1.5334
  166SOPE    C218642   4.769   4.246  10.727 -0.2524 -0.0413 -0.2511
  166SOPE    HS18643   4.859   4.180  10.729 -0.8786 -0.9379  2.4808
  166SOPE   O2118644   4.760   4.325  10.609  0.3053 -0.1589 -0.1823
  166SOPE   C2118645   4.851   4.310  10.515 -0.5698 -0.5645 -0.1777
  166SOPE   O2218646   4.946   4.231  10.513 -0.0711 -0.5289  0.0102
  166SOPE   C2218647   4.809   4.402  10.394 -0.3290 -0.3778 -0.5050
  166SOPE   H2R18648   4.782   4.500  10.439  1.8860  0.0716 -0.0040
  166SOPE   H2S18649   4.721   4.362  10.340 -0.1685  1.3331 -2.1148
  166SOPE    C318650   4.646   4.146  10.748  0.2954  0.1349  0.0397
  166SOPE    HX18651   4.551   4.202  10.762 -0.4708 -0.8970 -0.9167
  166SOPE    HY18652   4.666   4.103  10.849  2.2091 -1.0290 -0.7787
  166SOPE   O3118653   4.639   4.051  10.638  0.0144  0.4819 -0.0895
  166SOPE   C3118654   4.543   4.077  10.541  0.5733 -0.0497  0.2851
  166SOPE   O3218655   4.460   4.164  10.547  0.2813 -0.0104  0.0122
  166SOPE   C3218656   4.564   3.985  10.420  0.1726 -0.1716  0.2931
  166SOPE   H2X18657   4.516   3.890  10.449  0.7706 -1.1832 -1.8384
  166SOPE   H2Y18658   4.672   3.964  10.401  0.7780  2.3217  0.6005
  166SOPE   C2318659   4.923   4.424  10.294 -0.4704  0.7468 -0.1187
  166SOPE   H3R18660   4.949   4.317  10.276  0.0323  0.7045  0.8338
  166SOPE   H3S18661   5.014   4.466  10.341 -0.8451  0.3733  0.9620
  166SOPE   C2418662   4.886   4.492  10.162  0.5088  0.2711 -0.8528
  166SOPE   H4R18663   4.787   4.461  10.122 -0.0181  0.9325 -0.0779
  166SOPE   H4S18664   4.871   4.594  10.203  2.1182  0.0674  0.3229
  166SOPE   C2518665   4.993   4.476  10.062 -0.6489 -0.0707  0.7456
  166SOPE   H5R18666   5.076   4.541  10.098  0.0305  0.1855 -1.1460
  166SOPE   H5S18667   5.036   4.374  10.063  1.6947  0.8381  2.2820
  166SOPE   C2618668   4.946   4.513   9.916 -0.1191 -0.4509 -0.4884
  166SOPE   H6R18669   4.861   4.449   9.884  1.2787 -2.5607 -0.2020
  166SOPE   H6S18670   4.906   4.617   9.919 -0.7962 -0.6528 -1.8194
  166SOPE   C2718671   5.063   4.518   9.815  0.3887 -0.6833 -0.2043
  166SOPE   H7R18672   5.159   4.558   9.854 -0.8147  1.2977  0.8463
  166SOPE   H7S18673   5.088   4.413   9.785  1.0489 -0.3404 -0.9110
  166SOPE   C2818674   5.022   4.598   9.689 -0.4657 -0.5674  0.0933
  166SOPE   H8R18675   4.931   4.561   9.639  0.7879 -2.2862 -1.0229
  166SOPE   H8S18676   5.004   4.705   9.715 -2.4685  0.0740 -3.2967
  166SOPE   C2918677   5.148   4.582   9.597 -0.1547 -0.1743  0.6653
  166SOPE   H9118678   5.242   4.572   9.652  0.2765 -0.7583 -0.1627
  166SOPE  C21018679   5.142   4.538   9.470 -0.5336  0.4279  0.4189
  166SOPE  H10118680   5.245   4.541   9.432 -0.8270  1.0707 -0.3631
  166SOPE  C21118681   5.032   4.524   9.369  0.1646 -0.3258  0.1467
  166SOPE  H11R18682   4.944   4.515   9.436  0.2102 -1.3015  0.0964
  166SOPE  H11S18683   5.048   4.430   9.311 -1.3942 -1.2940  1.2145
  166SOPE  C21218684   5.017   4.654   9.285 -0.3015 -0.2130 -0.2584
  166SOPE  H12R18685   5.115   4.689   9.246 -0.5799  0.7115 -0.1653
  166SOPE  H12S18686   4.980   4.727   9.361 -0.4165  1.7471 -2.0827
  166SOPE  C21318687   4.920   4.649   9.169 -0.7218  0.6256 -0.5229
  166SOPE  H13R18688   4.823   4.598   9.188  0.0995 -0.2646  1.6828
  166SOPE  H13S18689   4.969   4.600   9.082  0.8087  1.8984 -0.4252
  166SOPE  C21418690   4.890   4.788   9.115  0.1000  0.2822 -0.1207
  166SOPE  H14R18691   4.990   4.837   9.106 -0.0665  0.3762 -1.7200
  166SOPE  H14S18692   4.835   4.854   9.185  0.4060 -0.3841  0.7753
  166SOPE  C21518693   4.818   4.779   8.982  0.1086 -0.0123  0.6400
  166SOPE  H15R18694   4.718   4.730   8.979 -0.7600  1.7146 -0.4972
  166SOPE  H15S18695   4.878   4.726   8.905  0.3749  1.4865 -0.2188
  166SOPE  C21618696   4.798   4.921   8.924  0.0689 -0.3980  0.4062
  166SOPE  H16R18697   4.749   4.992   8.993  0.4754  0.4376 -0.1400
  166SOPE  H16S18698   4.728   4.905   8.839 -0.2947  4.2170 -0.4286
  166SOPE  C21718699   4.933   4.984   8.869  0.6722 -0.0344 -0.3155
  166SOPE  H17R18700   4.982   4.928   8.786  1.1275  1.5484 -1.1511
  166SOPE  H17S18701   5.006   4.984   8.952 -0.1464  0.0600  0.4195
  166SOPE  C21818702   4.914   5.125   8.813  0.7487  0.2800 -0.5868
  166SOPE  H18R18703   4.871   5.138   8.711  0.6185  2.4847 -0.2926
  166SOPE  H18S18704   5.012   5.174   8.795  0.7508  0.2253 -0.7343
  166SOPE  H18T18705   4.859   5.179   8.893  0.1051 -0.3445 -0.5967
  166SOPE   C3318706   4.499   4.039  10.294 -0.5080  0.2893 -0.3864
  166SOPE   H3X18707   4.563   4.123  10.262 -2.1142  2.6391  2.0776
  166SOPE   H3Y18708   4.394   4.073  10.310 -0.2527  0.5515  0.8473
  166SOPE   C3418709   4.501   3.935  10.178 -0.6600 -0.8540  0.2531
  166SOPE   H4X18710   4.424   3.858  10.200  0.4181 -1.1919  3.2305
  166SOPE   H4Y18711   4.597   3.880  10.171 -1.5730 -2.4521 -0.2704
  166SOPE   C3518712   4.483   4.004  10.049  0.6821 -0.1702 -0.0163
  166SOPE   H5X18713   4.560   4.082  10.033 -0.1281  0.4866 -0.8582
  166SOPE   H5Y18714   4.391   4.062  10.074  1.5303  2.1548 -1.8384
  166SOPE   C3618715   4.472   3.914   9.925 -0.4684 -0.2708 -0.0989
  166SOPE   H6X18716   4.408   3.832   9.964 -0.7867  0.7982  1.8138
  166SOPE   H6Y18717   4.570   3.868   9.903 -0.3976 -0.5286  0.6991
  166SOPE   C3718718   4.414   3.982   9.803  0.4287  0.1259  0.4219
  166SOPE   H7X18719   4.483   4.056   9.756 -0.1616 -0.4666 -1.4306
  166SOPE   H7Y18720   4.314   4.029   9.816 -0.1562 -1.0004  0.1051
  166SOPE   C3818721   4.405   3.881   9.696  0.2384 -0.0053  0.3154
  166SOPE   H8X18722   4.329   3.805   9.724  0.1068 -0.9378 -2.3297
  166SOPE   H8Y18723   4.506   3.834   9.697  0.7677  0.7282 -3.3919
  166SOPE   C3918724   4.384   3.936   9.549  0.1201 -0.3009  0.2606
  166SOPE   H9X18725   4.459   4.017   9.539  0.6808 -0.7425  0.8411
  166SOPE   H9Y18726   4.286   3.990   9.543  0.6123  0.5965  0.1206
  166SOPE  C31018727   4.378   3.832   9.433  0.0616  0.8088  0.2695
  166SOPE  H10X18728   4.291   3.764   9.444  0.4117 -0.2962 -2.9569
  166SOPE  H10Y18729   4.461   3.759   9.440 -0.4402  0.2712  0.7388
  166SOPE  C31118730   4.386   3.903   9.301 -0.1412 -0.2122 -0.1638
  166SOPE  H11X18731   4.461   3.984   9.297 -0.6406  0.3208  0.8749
  166SOPE  H11Y18732   4.287   3.951   9.308 -0.4311 -0.9634  1.5188
  166SOPE  C31218733   4.395   3.801   9.192  0.2920 -0.5448 -0.0680
  166SOPE  H12X18734   4.332   3.711   9.212  0.0821 -0.7851 -1.6800
  166SOPE  H12Y18735   4.498   3.760   9.184 -0.3960 -2.3683 -0.0013
  166SOPE  C31318736   4.344   3.863   9.062 -0.1964  0.4351  1.2577
  166SOPE  H13X18737   4.378   3.967   9.042  0.0561  0.1060 -0.1116
  166SOPE  H13Y18738   4.234   3.866   9.074 -0.2556 -2.7267  2.3892
  166SOPE  C31418739   4.371   3.773   8.936 -0.1585  0.7348  0.1134
  166SOPE  H14X18740   4.306   3.685   8.947  0.5564  0.1745 -0.0562
  166SOPE  H14Y18741   4.479   3.747   8.930  0.9022  4.5757 -0.8931
  166SOPE  C31518742   4.330   3.849   8.806  0.1187 -0.9808 -0.5605
  166SOPE  H15X18743   4.374   3.792   8.721 -1.1885 -1.6436 -0.8170
  166SOPE  H15Y18744   4.378   3.950   8.813  3.4939 -2.5226  0.8822
  166SOPE  C31618745   4.184   3.868   8.769  0.4104 -0.0891  0.7102
  166SOPE  H16X18746   4.130   3.897   8.862 -1.4366 -2.9253  0.6626
  166SOPE  H16Y18747   4.137   3.776   8.730  1.6486 -0.9356  1.1719
  166SOPE  C31718748   4.155   3.975   8.667 -0.6334  0.2666  0.3845
  166SOPE  H17X18749   4.200   4.071   8.700  3.6169 -0.8435 -1.4959
  166SOPE  H17Y18750   4.044   3.976   8.659 -0.6918 -2.1352  0.2483
  166SOPE  C31818751   4.222   3.942   8.528  0.0217 -0.7210  0.4253
  166SOPE  H18X18752   4.205   4.025   8.456 -0.4380  0.3141  1.6936
  166SOPE  H18Y18753   4.185   3.845   8.486 -0.2744 -0.1153 -0.7696
  166SOPE  H18Z18754   4.330   3.923   8.539  0.1115  0.4888  1.8633
  167SOPE     N18755   4.914   2.698   5.607  0.1709  0.0793  0.1916
  167SOPE   HN118756   4.836   2.754   5.646 -0.7461 -0.7236 -0.4618
  167SOPE   HN218757   4.869   2.667   5.518  0.9795 -0.2048 -0.1287
  167SOPE   HN318758   4.936   2.622   5.674 -0.5188 -1.3135 -1.0986
  167SOPE   C1218759   5.034   2.786   5.582 -0.5190  0.3460  0.6405
  167SOPE  H12A18760   5.007   2.849   5.495  0.8256 -1.3882 -1.1038
  167SOPE  H12B18761   5.124   2.727   5.556 -0.2292  1.0059  0.1077
  167SOPE   C1118762   5.063   2.872   5.693  0.3336 -0.1865  0.3782
  167SOPE  H11A18763   5.149   2.936   5.665 -0.0582  1.4239  2.5542
  167SOPE  H11B18764   5.088   2.811   5.783 -1.4480 -0.9652  0.3881
  167SOPE     P18765   4.858   2.973   5.827  0.2209  0.0502  0.1944
  167SOPE   O1318766   4.773   2.847   5.813 -0.1267 -1.4700 -0.2156
  167SOPE   O1418767   4.785   3.102   5.816 -0.5822  0.2841  0.1770
  167SOPE   O1218768   4.964   2.971   5.711  0.2330  0.4510  0.3714
  167SOPE   O1118769   4.936   2.955   5.958 -0.4592 -0.1572  0.0456
  167SOPE    C118770   5.050   3.026   5.999  0.6318  0.6285  0.3733
  167SOPE    HA18771   5.054   3.124   5.948  4.0742  0.1510 -0.5400
  167SOPE    HB18772   5.136   2.957   5.980 -0.9441 -1.4850  0.4976
  167SOPE    C218773   5.050   3.058   6.148 -0.7185 -0.2590 -0.1045
  167SOPE    HS18774   4.978   3.142   6.160 -0.9793  0.3423 -4.3046
  167SOPE   O2118775   5.193   3.084   6.181  0.4866  0.1344  0.0990
  167SOPE   C2118776   5.226   3.216   6.176  0.2549  0.3802  0.0994
  167SOPE   O2218777   5.148   3.302   6.141  0.3596  0.3178  0.0830
  167SOPE   C2218778   5.368   3.228   6.234 -0.5295 -0.0084 -0.0481
  167SOPE   H2R18779   5.426   3.273   6.151  0.5078  1.8156  1.5619
  167SOPE   H2S18780   5.405   3.124   6.246 -0.7848  0.0261  1.1409
  167SOPE    C318781   5.006   2.936   6.223  0.0423 -0.3089 -0.4153
  167SOPE    HX18782   5.085   2.858   6.216 -0.3007 -1.0300  2.4508
  167SOPE    HY18783   4.909   2.893   6.189  0.2100 -1.6187  0.6697
  167SOPE   O3118784   4.977   2.963   6.360 -0.2119  0.8077 -0.3022
  167SOPE   C3118785   5.065   2.932   6.447 -0.7170  0.1650 -1.1263
  167SOPE   O3218786   5.173   2.880   6.431  0.0456  0.1729  0.4858
  167SOPE   C3218787   5.007   2.962   6.589  0.6786  0.7020  0.0740
  167SOPE   H2X18788   4.897   2.972   6.572  0.3951 -1.3659  0.4250
  167SOPE   H2Y18789   5.037   3.062   6.624 -0.3262  1.5552 -1.3789
  167SOPE   C2318790   5.383   3.310   6.360 -0.1511  0.2259 -1.1245
  167SOPE   H3R18791   5.352   3.416   6.351  2.9447  1.6017  2.1549
  167SOPE   H3S18792   5.491   3.304   6.383 -0.1112 -2.0642 -1.6323
  167SOPE   C2418793   5.317   3.239   6.481  0.1307  0.0794 -0.3836
  167SOPE   H4R18794   5.213   3.216   6.449  0.3905 -0.8620 -0.6081
  167SOPE   H4S18795   5.365   3.141   6.504  3.5386  1.6456 -0.2811
  167SOPE   C2518796   5.319   3.321   6.608 -0.1918  0.0598  0.4678
  167SOPE   H5R18797   5.387   3.409   6.603  1.0296 -0.6535  2.8755
  167SOPE   H5S18798   5.217   3.359   6.633  0.4698  2.8560 -0.7418
  167SOPE   C2618799   5.361   3.240   6.743 -0.1466  0.6135  0.1552
  167SOPE   H6R18800   5.295   3.151   6.752 -0.1893  0.7908  1.8500
  167SOPE   H6S18801   5.464   3.199   6.741 -0.4728 -0.2169 -0.6544
  167SOPE   C2718802   5.339   3.318   6.870  0.7000 -0.4159 -0.7209
  167SOPE   H7R18803   5.426   3.314   6.939 -0.9501  0.7444  1.5662
  167SOPE   H7S18804   5.324   3.425   6.843 -2.1199 -0.3981  0.4849
  167SOPE   C2818805   5.210   3.282   6.938  0.3894 -0.1878  0.4964
  167SOPE   H8R18806   5.184   3.368   7.004  0.6920  1.5488 -1.5379
  167SOPE   H8S18807   5.126   3.272   6.866 -0.2753  0.8236  1.0946
  167SOPE   C2918808   5.222   3.154   7.015 -0.4200  1.3753 -0.0482
  167SOPE   H9118809   5.218   3.061   6.957  0.9416 -0.5358  2.7162
  167SOPE  C21018810   5.243   3.142   7.146 -0.1452 -0.6622 -0.7734
  167SOPE  H10118811   5.257   3.047   7.199  0.9062  0.0947  0.3370
  167SOPE  C21118812   5.247   3.260   7.242  0.3340 -0.8052 -0.5272
  167SOPE  H11R18813   5.146   3.282   7.284  0.5202 -2.9249  1.1782
  167SOPE  H11S18814   5.282   3.352   7.190 -0.4949 -0.0799  0.1663
  167SOPE  C21218815   5.328   3.249   7.378  0.1823 -0.4311  0.3103
  167SOPE  H12R18816   5.357   3.348   7.420 -1.5838  0.3071 -0.0943
  167SOPE  H12S18817   5.410   3.175   7.367  1.0084 -0.0561  3.1961
  167SOPE  C21318818   5.241   3.189   7.490 -0.3052  0.2491  0.1536
  167SOPE  H13R18819   5.202   3.089   7.462 -1.9196  0.4650  1.4088
  167SOPE  H13S18820   5.145   3.245   7.497 -0.1559  0.9173 -2.3241
  167SOPE  C21418821   5.311   3.174   7.621 -0.1545  0.2361 -0.1099
  167SOPE  H14R18822   5.378   3.260   7.640  1.2578 -0.7111 -0.6719
  167SOPE  H14S18823   5.362   3.076   7.617  0.6922  0.6887 -0.5636
  167SOPE  C21518824   5.212   3.140   7.730  0.4891 -0.1250  0.4432
  167SOPE  H15R18825   5.129   3.073   7.697  2.5320 -2.1817 -0.7975
  167SOPE  H15S18826   5.167   3.239   7.754  2.0890  0.6062  0.5308
  167SOPE  C21618827   5.275   3.081   7.855 -0.1193 -0.6006 -0.2026
  167SOPE  H16R18828   5.380   3.115   7.864  0.6777 -2.4480 -1.9031
  167SOPE  H16S18829   5.270   2.971   7.850 -1.2574 -0.5392 -0.8393
  167SOPE  C21718830   5.204   3.128   7.982  0.3773  0.4222 -0.6129
  167SOPE  H17R18831   5.225   3.235   8.002 -1.1544  0.6035  0.1583
  167SOPE  H17S18832   5.260   3.076   8.062 -1.9514 -0.1326  0.7493
  167SOPE  C21818833   5.051   3.098   7.979 -0.4272 -0.6190 -0.2882
  167SOPE  H18R18834   5.004   3.128   8.075  0.8230  2.3124 -0.4921
  167SOPE  H18S18835   5.035   2.990   7.960 -1.6921 -0.4509 -0.3146
  167SOPE  H18T18836   4.989   3.156   7.907 -0.4196 -1.5858 -1.1036
  167SOPE   C3318837   5.023   2.852   6.700  0.2620 -0.6448 -0.8337
  167SOPE   H3X18838   5.130   2.834   6.723  0.7069  0.0142 -2.2188
  167SOPE   H3Y18839   4.993   2.756   6.653 -0.5681  0.7414 -3.3440
  167SOPE   C3418840   4.959   2.897   6.827  0.5357 -0.4201  0.4465
  167SOPE   H4X18841   4.855   2.924   6.800  0.8655 -0.2055 -0.6559
  167SOPE   H4Y18842   5.008   2.987   6.869 -3.2945  0.7338  2.9109
  167SOPE   C3518843   4.962   2.781   6.926 -0.6349 -0.4195  0.7616
  167SOPE   H5X18844   5.046   2.717   6.891 -0.4570  0.5779 -0.7267
  167SOPE   H5Y18845   4.863   2.734   6.910 -1.4019  1.1709  0.6095
  167SOPE   C3618846   4.994   2.830   7.072 -0.0603  0.3320 -0.3942
  167SOPE   H6X18847   4.897   2.878   7.097 -0.5294 -0.0855 -1.3452
  167SOPE   H6Y18848   5.082   2.896   7.060 -0.5078  0.7604 -1.5118
  167SOPE   C3718849   5.029   2.714   7.166  0.6568 -0.2282 -0.2211
  167SOPE   H7X18850   5.125   2.665   7.139  0.6948  0.0539 -0.6155
  167SOPE   H7Y18851   4.940   2.647   7.167  0.5559 -0.1055  1.1512
  167SOPE   C3818852   5.029   2.768   7.306 -0.2216 -0.2762 -0.0340
  167SOPE   H8X18853   4.937   2.829   7.316 -0.8300 -0.9167 -1.3842
  167SOPE   H8Y18854   5.117   2.829   7.333  0.6373 -1.2737 -0.4929
  167SOPE   C3918855   5.031   2.656   7.421  0.0477 -0.8716 -0.2120
  167SOPE   H9X18856   5.125   2.605   7.390  1.1768  1.4620 -0.9422
  167SOPE   H9Y18857   4.946   2.588   7.399 -2.4965  2.3626 -1.1325
  167SOPE  C31018858   5.031   2.726   7.557 -0.0613 -0.3016 -0.1009
  167SOPE  H10X18859   4.931   2.769   7.579 -0.4320 -1.0825 -0.1972
  167SOPE  H10Y18860   5.104   2.809   7.551  1.2623 -1.4705 -0.5462
  167SOPE  C31118861   5.074   2.635   7.677  0.7826 -0.0169  0.2700
  167SOPE  H11X18862   5.162   2.582   7.634  1.7778  2.1174 -0.4480
  167SOPE  H11Y18863   4.991   2.561   7.679  1.4369 -0.8531 -1.3079
  167SOPE  C31218864   5.126   2.715   7.801 -0.3387  0.4013  0.0126
  167SOPE  H12X18865   5.043   2.780   7.836 -1.1906 -1.0013  0.6845
  167SOPE  H12Y18866   5.211   2.779   7.770  1.5774 -1.1853  1.6799
  167SOPE  C31318867   5.177   2.624   7.911  0.5906  0.0922  0.3868
  167SOPE  H13X18868   5.267   2.577   7.866 -0.4686  0.5093 -2.3563
  167SOPE  H13Y18869   5.098   2.549   7.930 -0.7387  1.6330  1.1725
  167SOPE  C31418870   5.206   2.675   8.050 -0.0972 -0.3271  0.0380
  167SOPE  H14X18871   5.118   2.738   8.073 -0.0610 -0.6312  1.0430
  167SOPE  H14Y18872   5.294   2.742   8.050 -2.1238  2.5264  1.8930
  167SOPE  C31518873   5.221   2.568   8.154  0.4757  0.4066 -0.2271
  167SOPE  H15X18874   5.303   2.493   8.145 -0.3126 -0.7195  1.4428
  167SOPE  H15Y18875   5.131   2.503   8.163 -2.3036  3.7844 -1.5020
  167SOPE  C31618876   5.238   2.620   8.293 -0.4321  0.0891  0.3827
  167SOPE  H16X18877   5.164   2.698   8.321  0.4453  0.6753  1.1233
  167SOPE  H16Y18878   5.333   2.678   8.303 -0.2940 -0.2218  0.8941
  167SOPE  C31718879   5.227   2.515   8.409  0.8024  0.7875 -0.0037
  167SOPE  H17X18880   5.309   2.440   8.406  2.0726  2.1323  0.3612
  167SOPE  H17Y18881   5.136   2.456   8.383  0.9121 -0.0785  1.4769
  167SOPE  C31818882   5.215   2.572   8.549  0.3485  0.0763 -0.0353
  167SOPE  H18X18883   5.178   2.493   8.617 -0.8247  1.5550  1.0888
  167SOPE  H18Y18884   5.153   2.663   8.539 -1.3659 -0.7235  2.4574
  167SOPE  H18Z18885   5.314   2.593   8.596 -0.5461  0.9889  1.5305
  168SOPE     N18886   6.025   0.444   5.718  0.6764  0.1158  0.0810
  168SOPE   HN118887   6.015   0.512   5.796 -0.1566  0.4440 -0.2972
  168SOPE   HN218888   6.122   0.420   5.690  0.6122 -0.9943  0.7311
  168SOPE   HN318889   5.975   0.474   5.632 -0.6504 -2.0894  0.0120
  168SOPE   C1218890   5.943   0.316   5.753 -0.0157  0.2196 -0.1630
  168SOPE  H12A18891   5.951   0.246   5.667  0.1730  0.4845 -0.3661
  168SOPE  H12B18892   5.837   0.345   5.764  0.2263  1.3218 -0.5793
  168SOPE   C1118893   6.001   0.257   5.888  0.7506  0.0335 -0.5313
  168SOPE  H11A18894   5.927   0.188   5.934 -0.1870  2.0486  1.1727
  168SOPE  H11B18895   6.010   0.343   5.959 -0.5252  0.6792 -1.1046
  168SOPE     P18896   6.135   0.028   5.845  0.5019  0.1458 -0.0021
  168SOPE   O1318897   6.274   0.001   5.801 -0.3087 -0.3245 -0.3566
  168SOPE   O1418898   6.026  -0.021   5.758  0.3639 -0.2431  0.2007
  168SOPE   O1218899   6.115   0.189   5.852  0.2022 -0.1523  0.5470
  168SOPE   O1118900   6.110  -0.029   5.994  0.8684 -0.7989 -0.0165
  168SOPE    C118901   6.145   0.041   6.112  0.2962 -0.3962 -0.1380
  168SOPE    HA18902   6.081   0.007   6.196  0.2337 -1.8082 -0.7408
  168SOPE    HB18903   6.130   0.151   6.110 -0.6950 -0.5197 -0.0784
  168SOPE    C218904   6.284   0.010   6.177 -0.0805 -0.2095  0.4317
  168SOPE    HS18905   6.347  -0.043   6.103 -1.0638 -1.5892  0.5438
  168SOPE   O2118906   6.261  -0.073   6.299 -0.0828  0.5200  0.3538
  168SOPE   C2118907   6.356  -0.171   6.311 -0.3398 -0.3469  0.6152
  168SOPE   O2218908   6.463  -0.177   6.250  0.3076  0.1531 -0.1074
  168SOPE   C2218909   6.298  -0.271   6.412  0.6110 -0.5314 -0.6347
  168SOPE   H2R18910   6.256  -0.357   6.355  0.2881 -0.8113  0.0155
  168SOPE   H2S18911   6.214  -0.225   6.468  1.0824 -1.7446  1.1364
  168SOPE    C318912   6.362   0.143   6.211 -0.2242 -0.4327  0.2309
  168SOPE    HX18913   6.383   0.198   6.117 -0.0413  0.6068  0.8664
  168SOPE    HY18914   6.466   0.123   6.244 -0.5804 -0.5747  1.3373
  168SOPE   O3118915   6.297   0.227   6.312  0.4891 -0.0680  0.5733
  168SOPE   C3118916   6.326   0.184   6.431  0.0324  1.0353  0.3342
  168SOPE   O3218917   6.410   0.101   6.468 -0.4787 -0.2681  0.4478
  168SOPE   C3218918   6.244   0.262   6.528 -0.1220  0.7376 -0.5032
  168SOPE   H2X18919   6.145   0.297   6.493  0.0572  1.9265  0.1158
  168SOPE   H2Y18920   6.291   0.363   6.529 -1.8462  1.5953  0.9260
  168SOPE   C2318921   6.396  -0.327   6.516 -0.0270 -0.2509 -0.8228
  168SOPE   H3R18922   6.496  -0.341   6.469 -0.0229 -1.8209 -0.4107
  168SOPE   H3S18923   6.370  -0.428   6.555  0.5002  0.6746  2.1464
  168SOPE   C2418924   6.417  -0.230   6.635 -0.5185  0.1838  0.0449
  168SOPE   H4R18925   6.527  -0.233   6.650 -0.5291 -0.0721  0.0776
  168SOPE   H4S18926   6.368  -0.134   6.608 -0.2393  0.7403  1.4041
  168SOPE   C2518927   6.347  -0.277   6.763  0.1749 -0.5535  0.3565
  168SOPE   H5R18928   6.308  -0.190   6.819  0.7750 -0.8400  1.2381
  168SOPE   H5S18929   6.258  -0.334   6.728  0.8860 -0.0174 -2.6575
  168SOPE   C2618930   6.443  -0.367   6.846 -0.0501 -0.2579 -1.2172
  168SOPE   H6R18931   6.478  -0.452   6.784 -0.4108 -0.6270 -0.9182
  168SOPE   H6S18932   6.529  -0.305   6.879  0.4829 -0.6440 -1.8473
  168SOPE   C2718933   6.385  -0.405   6.983 -0.0776  0.3546 -0.4418
  168SOPE   H7R18934   6.280  -0.439   6.968  0.0395 -1.6885  2.5548
  168SOPE   H7S18935   6.428  -0.493   7.035  0.3358  0.3377 -0.8035
  168SOPE   C2818936   6.378  -0.282   7.082 -0.0271 -0.3274 -0.1755
  168SOPE   H8R18937   6.338  -0.190   7.034  0.1420  0.0900  0.4620
  168SOPE   H8S18938   6.307  -0.307   7.164 -2.2949  3.2050 -0.8365
  168SOPE   C2918939   6.512  -0.240   7.129 -0.1331 -0.0419  0.7341
  168SOPE   H9118940   6.576  -0.192   7.052 -0.5470  1.6257  1.3840
  168SOPE  C21018941   6.561  -0.253   7.253  0.4407 -0.0051 -0.5132
  168SOPE  H10118942   6.660  -0.209   7.272 -0.8880  2.3778  1.5012
  168SOPE  C21118943   6.504  -0.322   7.374  0.2970  0.1579  0.0433
  168SOPE  H11R18944   6.576  -0.396   7.417 -0.1378  0.0914  0.6668
  168SOPE  H11S18945   6.420  -0.390   7.350 -0.0058  0.7331 -0.5287
  168SOPE  C21218946   6.471  -0.227   7.487 -0.3142 -0.2044 -0.1215
  168SOPE  H12R18947   6.405  -0.149   7.445  0.8875  1.0767  0.2809
  168SOPE  H12S18948   6.559  -0.174   7.529 -0.0392 -0.9313  0.2569
  168SOPE  C21318949   6.399  -0.300   7.598 -0.6241  0.0316 -0.7527
  168SOPE  H13R18950   6.459  -0.391   7.621  1.0506  0.7324 -2.1562
  168SOPE  H13S18951   6.297  -0.329   7.565 -1.0430  0.2675  0.2843
  168SOPE  C21418952   6.412  -0.224   7.724 -0.1229  0.5239 -0.0604
  168SOPE  H14R18953   6.363  -0.126   7.707 -0.7935 -0.1647 -2.5611
  168SOPE  H14S18954   6.515  -0.190   7.750  0.5145 -0.8008 -0.7395
  168SOPE  C21518955   6.362  -0.298   7.847  0.1586  0.2642 -0.9362
  168SOPE  H15R18956   6.419  -0.394   7.849 -1.2794 -0.7058 -2.8191
  168SOPE  H15S18957   6.254  -0.310   7.826 -0.2101  0.8274  0.5416
  168SOPE  C21618958   6.372  -0.218   7.976  0.1464  0.3121 -0.0356
  168SOPE  H16R18959   6.314  -0.126   7.953  0.1076  0.0558 -1.0167
  168SOPE  H16S18960   6.481  -0.207   7.999  0.3037  1.8190 -1.3048
  168SOPE  C21718961   6.287  -0.280   8.093 -0.2261  0.1962 -0.3550
  168SOPE  H17R18962   6.196  -0.332   8.057 -0.8630  2.0838 -1.5990
  168SOPE  H17S18963   6.267  -0.198   8.165  1.2657 -0.3501  0.7454
  168SOPE  C21818964   6.370  -0.385   8.161 -0.1157 -0.1651 -0.2253
  168SOPE  H18R18965   6.453  -0.348   8.224  0.5340  0.3521 -1.3597
  168SOPE  H18S18966   6.406  -0.463   8.091  2.5361  1.9675 -1.4053
  168SOPE  H18T18967   6.306  -0.431   8.240  1.3680 -3.4905 -0.7813
  168SOPE   C3318968   6.221   0.191   6.666 -0.3804 -0.0152  0.2165
  168SOPE   H3X18969   6.221   0.271   6.742 -1.7156  1.4510 -1.2526
  168SOPE   H3Y18970   6.314   0.134   6.685 -1.5482 -1.7598  0.9553
  168SOPE   C3418971   6.099   0.107   6.672  0.2858 -0.4058 -0.4092
  168SOPE   H4X18972   6.096   0.027   6.596  0.4376  0.5698 -1.4701
  168SOPE   H4Y18973   6.011   0.173   6.656  2.1759  2.1649 -0.8259
  168SOPE   C3518974   6.093   0.052   6.812 -0.2451 -0.1752  0.1496
  168SOPE   H5X18975   6.185  -0.009   6.824  2.7304  2.9765 -3.9827
  168SOPE   H5Y18976   6.010  -0.022   6.819  0.3312 -1.0109 -1.2695
  168SOPE   C3618977   6.105   0.151   6.926 -0.2922 -0.7046 -0.1720
  168SOPE   H6X18978   6.035   0.236   6.908 -0.5921 -0.5533  1.5093
  168SOPE   H6Y18979   6.204   0.200   6.933 -0.2153 -0.8699 -0.0942
  168SOPE   C3718980   6.064   0.098   7.062  0.2561 -0.1090  0.1128
  168SOPE   H7X18981   6.107  -0.002   7.083  0.1506 -0.0195  0.7620
  168SOPE   H7Y18982   5.954   0.088   7.071  0.1698  1.2336  0.8127
  168SOPE   C3818983   6.114   0.190   7.173  0.2794 -0.1956 -0.2382
  168SOPE   H8X18984   6.044   0.277   7.180 -0.4112 -0.8781  2.6805
  168SOPE   H8Y18985   6.214   0.230   7.148  1.0228 -0.7727  1.6523
  168SOPE   C3918986   6.119   0.122   7.306 -0.6752  0.1321 -0.6409
  168SOPE   H9X18987   6.196   0.044   7.295 -1.7805 -0.9207 -1.1604
  168SOPE   H9Y18988   6.022   0.068   7.316 -1.6976  2.0682  0.6846
  168SOPE  C31018989   6.147   0.219   7.427 -0.5994 -0.8082  0.1169
  168SOPE  H10X18990   6.071   0.295   7.456  0.3952 -0.1864  1.1879
  168SOPE  H10Y18991   6.226   0.291   7.396 -1.4789  0.3256  0.4049
  168SOPE  C31118992   6.199   0.155   7.550  0.8583  0.1007  0.4794
  168SOPE  H11X18993   6.271   0.074   7.526  0.4879  0.2229 -1.1219
  168SOPE  H11Y18994   6.110   0.104   7.593 -0.7294  0.5133 -2.1490
  168SOPE  C31218995   6.254   0.255   7.665  0.2829 -0.3152  0.9229
  168SOPE  H12X18996   6.166   0.319   7.689  0.9159 -0.1884  3.1010
  168SOPE  H12Y18997   6.345   0.311   7.637  0.5409 -0.7717  0.8346
  168SOPE  C31318998   6.288   0.179   7.798 -0.0013  0.0900 -0.4132
  168SOPE  H13X18999   6.372   0.110   7.772  0.2242  1.2472 -3.0117
  168SOPE  H13Y19000   6.203   0.109   7.812 -0.2165  0.4320  0.0226
  168SOPE  C31419001   6.303   0.277   7.911 -0.3071  0.4057  0.0813
  168SOPE  H14X19002   6.222   0.354   7.908 -0.3456  0.4279  1.2025
  168SOPE  H14Y19003   6.398   0.335   7.909 -0.5794  0.8597  0.0362
  168SOPE  C31519004   6.290   0.195   8.028  0.0117 -0.0742  0.2748
  168SOPE  H15X19005   6.377   0.129   8.047  0.0810 -0.3310 -0.8651
  168SOPE  H15Y19006   6.194   0.140   8.027 -0.1908  0.1874 -2.8741
  168SOPE  C31619007   6.279   0.280   8.165 -0.4882  0.6243  0.5280
  168SOPE  H16X19008   6.210   0.363   8.137 -0.6657  0.3047  0.0225
  168SOPE  H16Y19009   6.373   0.336   8.187 -1.7243  3.3002 -0.5440
  168SOPE  C31719010   6.234   0.207   8.292 -0.3482 -0.7784  0.1988
  168SOPE  H17X19011   6.140   0.164   8.252 -1.3392  1.6010 -0.2377
  168SOPE  H17Y19012   6.205   0.278   8.373  2.6497 -0.3655  1.0602
  168SOPE  C31819013   6.317   0.090   8.347  0.4977  0.1994 -0.7229
  168SOPE  H18X19014   6.420   0.125   8.371  1.3029 -1.4735 -1.5223
  168SOPE  H18Y19015   6.334   0.017   8.265 -0.5554 -2.4681  1.2985
  168SOPE  H18Z19016   6.270   0.041   8.435  2.3349  2.7074  1.8236
  169SOPE     N19017   0.771   3.204   6.401  0.0340 -0.0071  0.3678
  169SOPE   HN119018   0.722   3.239   6.486 -2.3580 -2.4651  0.1379
  169SOPE   HN219019   0.851   3.140   6.417  1.0025  0.7164 -1.3026
  169SOPE   HN319020   0.818   3.278   6.345  0.9806 -0.9528 -0.1200
  169SOPE   C1219021   0.677   3.140   6.304 -0.9765 -0.0281  0.3941
  169SOPE  H12A19022   0.704   3.187   6.207  0.8384  1.0230  1.3589
  169SOPE  H12B19023   0.573   3.175   6.322 -0.2240  1.7470  1.5253
  169SOPE   C1119024   0.677   2.988   6.306 -0.3940 -0.2363  0.8467
  169SOPE  H11A19025   0.779   2.945   6.297 -0.3042 -0.1138  1.2351
  169SOPE  H11B19026   0.619   2.948   6.220 -1.3300  0.2816  1.2236
  169SOPE     P19027   0.502   2.837   6.420  0.1645 -0.0036 -0.1845
  169SOPE   O1319028   0.562   2.716   6.370 -0.0861 -0.4824  0.2381
  169SOPE   O1419029   0.385   2.895   6.349 -0.4989 -0.2298 -0.5888
  169SOPE   O1219030   0.619   2.942   6.423 -0.0623  0.5697 -0.0409
  169SOPE   O1119031   0.473   2.811   6.574  0.5758  0.1964  0.6230
  169SOPE    C119032   0.537   2.890   6.669  0.2634 -0.2420  0.2079
  169SOPE    HA19033   0.505   2.997   6.664  0.8315 -0.1060 -0.9550
  169SOPE    HB19034   0.646   2.905   6.655  0.2304  0.5554  0.7390
  169SOPE    C219035   0.509   2.843   6.807 -0.2467  0.2593  0.1888
  169SOPE    HS19036   0.559   2.898   6.890 -0.7979  1.5946 -0.3353
  169SOPE   O2119037   0.537   2.701   6.809  0.3535 -0.4657 -0.6667
  169SOPE   C2119038   0.665   2.681   6.825  0.1152  0.4006  0.6861
  169SOPE   O2219039   0.750   2.768   6.835  0.2326 -0.4910 -0.1779
  169SOPE   C2219040   0.699   2.536   6.849 -0.3637 -0.0130  0.0433
  169SOPE   H2R19041   0.807   2.514   6.863 -0.6451 -0.3647  1.9695
  169SOPE   H2S19042   0.678   2.494   6.748 -0.4943  0.7086 -0.2405
  169SOPE    C319043   0.361   2.871   6.843  0.6496  0.0427  0.4274
  169SOPE    HX19044   0.303   2.861   6.749 -0.0586  0.3731  0.8226
  169SOPE    HY19045   0.356   2.976   6.879  0.7383  0.3303 -0.3805
  169SOPE   O3119046   0.311   2.774   6.937  0.1558  0.0845 -0.1529
  169SOPE   C3119047   0.298   2.811   7.062  0.2991 -0.1264 -0.7827
  169SOPE   O3219048   0.334   2.918   7.110  0.0199  0.5844  0.4240
  169SOPE   C3219049   0.231   2.691   7.138  0.2973  0.4713  0.5241
  169SOPE   H2X19050   0.176   2.622   7.070  1.7575 -0.5356  0.3318
  169SOPE   H2Y19051   0.163   2.739   7.213 -0.8945 -1.0014  0.4398
  169SOPE   C2319052   0.626   2.469   6.963 -0.1655  0.4822 -0.2518
  169SOPE   H3R19053   0.636   2.360   6.942  1.6925  0.3615  1.0710
  169SOPE   H3S19054   0.520   2.500   6.961  0.1567  1.6142 -0.8211
  169SOPE   C2419055   0.688   2.506   7.102  0.8875 -0.9118 -0.5321
  169SOPE   H4R19056   0.678   2.615   7.121  0.4199 -0.9306 -0.6594
  169SOPE   H4S19057   0.617   2.461   7.175 -1.2537  0.4201 -1.6783
  169SOPE   C2519058   0.833   2.476   7.139 -0.0094 -0.0391 -0.0756
  169SOPE   H5R19059   0.867   2.371   7.121  0.0582 -0.0740  0.2333
  169SOPE   H5S19060   0.899   2.549   7.089  0.2156  0.0154  0.2947
  169SOPE   C2619061   0.845   2.489   7.299  0.2121  1.4176 -0.0910
  169SOPE   H6R19062   0.827   2.593   7.334 -0.2162  1.5200 -0.6061
  169SOPE   H6S19063   0.767   2.436   7.358  0.2407  1.1519 -0.2915
  169SOPE   C2719064   0.986   2.433   7.335  0.4180  0.0150 -0.1711
  169SOPE   H7R19065   0.993   2.326   7.308  0.0050 -0.2266  0.6425
  169SOPE   H7S19066   1.060   2.501   7.287 -1.8337  2.0302 -0.9885
  169SOPE   C2819067   0.998   2.444   7.488  0.1870 -0.2521 -0.3889
  169SOPE   H8R19068   0.904   2.417   7.540 -0.1884  2.2589  0.3826
  169SOPE   H8S19069   1.077   2.378   7.530  0.1878 -0.6164 -0.9584
  169SOPE   C2919070   1.040   2.589   7.526  0.2057 -0.2581 -0.8299
  169SOPE   H9119071   1.013   2.670   7.457 -0.0880  1.6866  1.4210
  169SOPE  C21019072   1.092   2.621   7.649  0.0365  0.1968 -0.1445
  169SOPE  H10119073   1.122   2.725   7.670 -1.7726  0.5515  0.9274
  169SOPE  C21119074   1.143   2.523   7.755  0.2159 -0.1656  0.3067
  169SOPE  H11R19075   1.231   2.470   7.712 -0.7252 -1.6444  0.1441
  169SOPE  H11S19076   1.069   2.445   7.784  0.7707 -0.0366  2.1785
  169SOPE  C21219077   1.169   2.603   7.879  0.7266 -0.5689  0.4763
  169SOPE  H12R19078   1.078   2.655   7.916  1.5653 -0.2518  2.1758
  169SOPE  H12S19079   1.234   2.689   7.852  1.4787 -0.1569  3.2683
  169SOPE  C21319080   1.227   2.512   7.991  0.5399  0.2011 -0.2463
  169SOPE  H13R19081   1.324   2.470   7.955  1.7578  1.1176  1.7718
  169SOPE  H13S19082   1.159   2.428   8.019 -1.3863  0.7683 -2.8329
  169SOPE  C21419083   1.231   2.597   8.113  0.4587  0.2897  0.2018
  169SOPE  H14R19084   1.139   2.658   8.125 -0.2840 -0.8798  0.6799
  169SOPE  H14S19085   1.318   2.665   8.097  0.5613  0.2930  0.7597
  169SOPE  C21519086   1.277   2.517   8.240  0.2893 -0.0929  0.2862
  169SOPE  H15R19087   1.206   2.431   8.243 -1.4681  1.2988  0.5743
  169SOPE  H15S19088   1.271   2.586   8.327  0.3573  1.8844 -1.2163
  169SOPE  C21619089   1.419   2.465   8.230  0.3502  0.1067  0.1768
  169SOPE  H16R19090   1.483   2.535   8.173 -0.4706  1.8263  1.2718
  169SOPE  H16S19091   1.394   2.371   8.175 -0.8166  0.6602 -0.2668
  169SOPE  C21719092   1.485   2.434   8.355  0.7072 -0.5088  0.2405
  169SOPE  H17R19093   1.421   2.357   8.402  0.5811 -0.7609 -0.3391
  169SOPE  H17S19094   1.495   2.525   8.418 -1.1144  0.0118 -0.1786
  169SOPE  C21819095   1.628   2.379   8.349 -0.4058  0.6212  0.0948
  169SOPE  H18R19096   1.696   2.452   8.301  0.1602 -1.1176 -1.9039
  169SOPE  H18S19097   1.625   2.286   8.287 -0.2744  1.3143 -0.9749
  169SOPE  H18T19098   1.662   2.350   8.451 -1.7423 -2.0047 -0.1240
  169SOPE   C3319099   0.320   2.599   7.227 -0.8150  0.0536 -0.0952
  169SOPE   H3X19100   0.393   2.548   7.159 -1.1501  0.5120 -0.8118
  169SOPE   H3Y19101   0.250   2.520   7.262 -0.2407 -1.0020 -1.2290
  169SOPE   C3419102   0.383   2.684   7.333  0.0389 -0.1140  0.1735
  169SOPE   H4X19103   0.309   2.744   7.390  1.3711 -1.4568  3.5119
  169SOPE   H4Y19104   0.442   2.761   7.277  0.8818 -0.3127  0.7677
  169SOPE   C3519105   0.465   2.603   7.432 -0.0057 -0.2697  0.5965
  169SOPE   H5X19106   0.545   2.551   7.375 -0.2304  0.8070 -0.7420
  169SOPE   H5Y19107   0.392   2.525   7.463 -2.7436  0.6470 -2.9521
  169SOPE   C3619108   0.542   2.681   7.533 -0.6539 -0.0970 -0.2355
  169SOPE   H6X19109   0.476   2.750   7.589  0.2461 -0.0568  0.8010
  169SOPE   H6Y19110   0.626   2.741   7.493  0.0061 -0.9283 -0.1079
  169SOPE   C3719111   0.603   2.592   7.637 -0.8055  0.3341  0.3618
  169SOPE   H7X19112   0.676   2.528   7.583 -1.2742 -0.4575  0.6468
  169SOPE   H7Y19113   0.531   2.525   7.688  0.1343 -0.3620  0.8167
  169SOPE   C3819114   0.695   2.667   7.735  0.0366  0.0397  0.8297
  169SOPE   H8X19115   0.784   2.707   7.681 -0.9867  0.8006 -0.3647
  169SOPE   H8Y19116   0.638   2.757   7.766 -0.1072 -0.0248  0.7510
  169SOPE   C3919117   0.734   2.577   7.853  0.3813  0.2707 -0.2680
  169SOPE   H9X19118   0.809   2.501   7.822  1.2717  1.0481 -0.0609
  169SOPE   H9Y19119   0.639   2.535   7.893  1.2103 -0.1879  1.2842
  169SOPE  C31019120   0.799   2.666   7.968  0.4111 -0.3320 -0.2665
  169SOPE  H10X19121   0.725   2.745   7.992 -1.5931 -1.8693 -1.0464
  169SOPE  H10Y19122   0.897   2.708   7.937 -0.3433  1.3465 -0.4622
  169SOPE  C31119123   0.803   2.584   8.102 -0.2854  0.5294 -0.0933
  169SOPE  H11X19124   0.702   2.539   8.116  0.6467 -1.5443  0.2823
  169SOPE  H11Y19125   0.833   2.645   8.189  1.6963 -1.5414  0.7619
  169SOPE  C31219126   0.893   2.456   8.092  0.9103 -0.1816 -0.5974
  169SOPE  H12X19127   0.990   2.510   8.098 -0.3400  2.1082  0.0131
  169SOPE  H12Y19128   0.864   2.403   7.999 -2.3455  0.3420  0.0016
  169SOPE  C31319129   0.896   2.359   8.218 -0.8405  0.1190  0.2605
  169SOPE  H13X19130   0.988   2.296   8.214  0.2458  1.5898  1.0421
  169SOPE  H13Y19131   0.802   2.299   8.211 -1.2452  0.5761  1.5325
  169SOPE  C31419132   0.901   2.426   8.358 -0.0831  0.4547 -0.4830
  169SOPE  H14X19133   0.808   2.484   8.376  1.0765  2.0729  0.5473
  169SOPE  H14Y19134   0.982   2.501   8.347  1.1287 -0.6718  0.4373
  169SOPE  C31519135   0.927   2.339   8.483 -0.5695  0.3090  0.1157
  169SOPE  H15X19136   1.008   2.270   8.451 -1.5477 -0.9750  0.3247
  169SOPE  H15Y19137   0.839   2.270   8.488  0.8705 -1.6982 -0.9077
  169SOPE  C31619138   0.938   2.423   8.608 -0.0262 -0.3160 -0.8316
  169SOPE  H16X19139   0.865   2.508   8.608 -1.1101 -1.0784  2.5170
  169SOPE  H16Y19140   1.040   2.467   8.612 -1.1625  2.7440 -2.1319
  169SOPE  C31719141   0.922   2.338   8.743 -0.2646  0.3365  0.4394
  169SOPE  H17X19142   1.007   2.267   8.734  0.7516  1.6173 -0.4359
  169SOPE  H17Y19143   0.831   2.279   8.720  1.6700 -2.0019 -1.7575
  169SOPE  C31819144   0.926   2.422   8.872  0.0787 -0.3662  0.3888
  169SOPE  H18X19145   0.948   2.355   8.957  2.0302 -0.4544 -0.1418
  169SOPE  H18Y19146   0.831   2.478   8.884  0.7624  1.5939 -2.3420
  169SOPE  H18Z19147   1.006   2.499   8.859  0.7992 -1.0366  0.7734
  170SOPE     N19148   1.763   0.467   5.841 -0.3637 -0.0570  0.7339
  170SOPE   HN119149   1.713   0.421   5.763  0.8425  0.0993 -0.1479
  170SOPE   HN219150   1.754   0.570   5.829  0.1465  0.0312  1.0927
  170SOPE   HN319151   1.863   0.439   5.832 -0.4271  0.3101 -1.7900
  170SOPE   C1219152   1.696   0.423   5.968  0.5177 -0.0381  0.3202
  170SOPE  H12A19153   1.608   0.358   5.945  1.3092 -0.5201 -1.4702
  170SOPE  H12B19154   1.671   0.510   6.032  1.8484 -0.3898  1.3710
  170SOPE   C1119155   1.777   0.325   6.055  0.1849 -0.5047  0.0462
  170SOPE  H11A19156   1.713   0.291   6.139  2.0726  1.1461  2.2828
  170SOPE  H11B19157   1.849   0.394   6.102 -0.5590 -1.2036  2.3183
  170SOPE     P19158   1.984   0.215   5.948  0.2365  0.2792 -0.5040
  170SOPE   O1319159   2.010   0.326   5.851 -0.1640  0.0581 -0.2801
  170SOPE   O1419160   2.035   0.081   5.907 -0.3199  0.1256 -0.1102
  170SOPE   O1219161   1.828   0.210   5.984  0.3808  0.4799 -0.4916
  170SOPE   O1119162   2.049   0.241   6.097 -0.0525 -0.0200 -0.1967
  170SOPE    C119163   2.184   0.256   6.127 -0.4063 -0.8450 -0.1327
  170SOPE    HA19164   2.233   0.339   6.072  0.0935 -0.9248  0.1892
  170SOPE    HB19165   2.249   0.167   6.109 -1.2236 -1.5883  0.5169
  170SOPE    C219166   2.215   0.291   6.274  0.7418 -0.1273  0.0603
  170SOPE    HS19167   2.140   0.235   6.334 -1.7949  0.0154 -2.7502
  170SOPE   O2119168   2.186   0.433   6.287  0.4197 -0.1284  0.2730
  170SOPE   C2119169   2.136   0.465   6.406  0.7183 -1.0645 -0.2615
  170SOPE   O2219170   2.092   0.396   6.495 -0.2609  0.1353  0.5116
  170SOPE   C2219171   2.131   0.622   6.403  0.1243 -0.4887 -0.1126
  170SOPE   H2R19172   2.077   0.654   6.311 -2.1646  0.7888  1.5542
  170SOPE   H2S19173   2.235   0.659   6.394  0.5669 -1.2568  1.6011
  170SOPE    C319174   2.359   0.255   6.309 -0.0364 -0.7128 -0.4875
  170SOPE    HX19175   2.420   0.286   6.221 -2.5191  0.6550 -1.8192
  170SOPE    HY19176   2.356   0.144   6.312  2.5923 -0.8402  1.9809
  170SOPE   O3119177   2.413   0.315   6.431  0.3225  0.0807 -0.2467
  170SOPE   C3119178   2.404   0.246   6.537  0.0540  0.4713  0.3230
  170SOPE   O3219179   2.379   0.127   6.536 -0.4913  0.5833 -0.2935
  170SOPE   C3219180   2.443   0.324   6.657  0.2767  0.1591  0.4881
  170SOPE   H2X19181   2.413   0.431   6.650 -1.0875  0.0307  3.2791
  170SOPE   H2Y19182   2.553   0.317   6.658  0.3896 -0.0159  4.8145
  170SOPE   C2319183   2.091   0.691   6.532 -0.0069  0.3947 -0.2701
  170SOPE   H3R19184   1.981   0.677   6.543 -0.2687  0.0331 -2.8885
  170SOPE   H3S19185   2.107   0.801   6.525 -0.0477  0.5424  1.4527
  170SOPE   C2419186   2.168   0.661   6.652 -0.9623 -0.2283 -0.4631
  170SOPE   H4R19187   2.132   0.559   6.675 -1.2529 -0.7194 -2.8272
  170SOPE   H4S19188   2.277   0.652   6.633 -1.3123 -1.7091 -2.0475
  170SOPE   C2519189   2.138   0.745   6.781 -0.4636  0.0870  0.1071
  170SOPE   H5R19190   2.169   0.851   6.769 -1.3422  0.1885 -1.4418
  170SOPE   H5S19191   2.028   0.743   6.795 -0.2459 -1.0504  2.0223
  170SOPE   C2619192   2.211   0.682   6.909  0.9480 -0.3129  0.4473
  170SOPE   H6R19193   2.165   0.583   6.928  0.6321 -0.4897 -1.1534
  170SOPE   H6S19194   2.313   0.677   6.867  0.4670  1.2461 -1.0221
  170SOPE   C2719195   2.219   0.766   7.039 -0.0467  0.1586 -0.2719
  170SOPE   H7R19196   2.266   0.866   7.023 -1.7089  1.3167  1.5123
  170SOPE   H7S19197   2.115   0.790   7.070 -0.6615 -0.2895 -1.9031
  170SOPE   C2819198   2.270   0.681   7.154  0.0558  0.8516  0.2238
  170SOPE   H8R19199   2.205   0.592   7.158  3.9941 -2.4041 -1.1286
  170SOPE   H8S19200   2.373   0.651   7.125 -0.7241  0.5517 -2.6113
  170SOPE   C2919201   2.274   0.748   7.289 -0.2521 -0.3991  0.5465
  170SOPE   H9119202   2.301   0.854   7.274 -4.1443  0.4446 -2.1262
  170SOPE  C21019203   2.236   0.699   7.408  1.1335 -0.2679 -0.4624
  170SOPE  H10119204   2.245   0.762   7.498 -0.7519 -1.2215  0.4527
  170SOPE  C21119205   2.198   0.553   7.444  0.0592 -0.5495  0.0070
  170SOPE  H11R19206   2.217   0.488   7.356 -0.7643  0.0683 -0.6413
  170SOPE  H11S19207   2.089   0.534   7.455 -0.4118  1.6481 -0.3374
  170SOPE  C21219208   2.282   0.497   7.555  0.0623 -0.1227 -0.6634
  170SOPE  H12R19209   2.386   0.536   7.549 -0.2155  0.9051  0.7303
  170SOPE  H12S19210   2.287   0.387   7.546  1.0292 -0.3054  1.4701
  170SOPE  C21319211   2.225   0.525   7.693 -0.9299  0.5463  0.6707
  170SOPE  H13R19212   2.128   0.472   7.705  0.3071 -1.9156  0.2504
  170SOPE  H13S19213   2.235   0.631   7.727  1.0950 -0.5408  3.8611
  170SOPE  C21419214   2.309   0.462   7.806 -0.3257 -0.0399 -0.3562
  170SOPE  H14R19215   2.412   0.504   7.799  0.0937 -1.0807 -0.5952
  170SOPE  H14S19216   2.321   0.352   7.793 -1.2859 -0.2549  0.4354
  170SOPE  C21519217   2.258   0.481   7.950 -0.3309  0.3122 -0.9526
  170SOPE  H15R19218   2.149   0.461   7.957 -0.2294  0.4828  2.5075
  170SOPE  H15S19219   2.267   0.586   7.984  1.4314 -0.6045  1.6729
  170SOPE  C21619220   2.333   0.399   8.054 -0.2676  0.0769 -0.0756
  170SOPE  H16R19221   2.439   0.434   8.056 -0.4151  0.6479 -1.1709
  170SOPE  H16S19222   2.335   0.290   8.032 -1.3588 -0.3986  1.9626
  170SOPE  C21719223   2.266   0.418   8.191 -0.5302  0.6356 -0.4183
  170SOPE  H17R19224   2.293   0.332   8.256 -2.4313  1.4903  1.6316
  170SOPE  H17S19225   2.155   0.421   8.182 -0.7728 -0.2258  1.7259
  170SOPE  C21819226   2.328   0.546   8.258 -0.3284  0.3764 -0.3247
  170SOPE  H18R19227   2.437   0.539   8.242 -0.8345 -1.1666 -4.2391
  170SOPE  H18S19228   2.309   0.552   8.368  1.1115  1.1447 -0.0992
  170SOPE  H18T19229   2.284   0.637   8.213 -0.2757  0.6019  0.0725
  170SOPE   C3319230   2.375   0.266   6.786  0.0432  0.8244  0.9330
  170SOPE   H3X19231   2.436   0.177   6.811 -1.6153 -1.0130 -1.1553
  170SOPE   H3Y19232   2.271   0.234   6.767  0.9268 -0.9697 -1.3010
  170SOPE   C3419233   2.393   0.352   6.912 -0.6054  0.0618  0.2717
  170SOPE   H4X19234   2.303   0.414   6.930  1.5236  2.3958  4.2908
  170SOPE   H4Y19235   2.489   0.408   6.912  1.9232 -3.9054 -0.3093
  170SOPE   C3519236   2.391   0.259   7.037  0.6073  0.1284 -0.2052
  170SOPE   H5X19237   2.435   0.159   7.017 -1.0834 -0.9513  1.1651
  170SOPE   H5Y19238   2.286   0.228   7.058  0.5536 -1.2211 -2.1967
  170SOPE   C3619239   2.460   0.331   7.152 -0.3648  0.2282 -0.8938
  170SOPE   H6X19240   2.432   0.436   7.175 -1.3102 -0.3816  0.9293
  170SOPE   H6Y19241   2.566   0.338   7.121  0.1795 -3.6516 -0.4358
  170SOPE   C3719242   2.464   0.258   7.285 -0.5031  0.1691 -0.4717
  170SOPE   H7X19243   2.500   0.153   7.274  0.7044  0.5125  0.0414
  170SOPE   H7Y19244   2.359   0.259   7.322  0.2238 -1.9239  1.9360
  170SOPE   C3819245   2.557   0.317   7.397 -0.0042 -0.4921 -0.6064
  170SOPE   H8X19246   2.538   0.425   7.417 -1.9277 -0.8666 -0.2235
  170SOPE   H8Y19247   2.666   0.297   7.384 -0.5428 -2.8659 -2.0508
  170SOPE   C3919248   2.535   0.240   7.532  0.7328 -0.3866 -0.0344
  170SOPE   H9X19249   2.574   0.138   7.515 -1.3728 -1.5473  1.6757
  170SOPE   H9Y19250   2.426   0.227   7.547  0.4888  1.4160  0.0596
  170SOPE  C31019251   2.612   0.309   7.646  0.0507  0.2116  0.0994
  170SOPE  H10X19252   2.556   0.397   7.685 -0.6812 -1.0508  2.0401
  170SOPE  H10Y19253   2.707   0.344   7.600  0.4068  0.1323  0.7627
  170SOPE  C31119254   2.655   0.221   7.764 -0.6849 -0.4776  0.1457
  170SOPE  H11X19255   2.707   0.132   7.723 -0.5792  0.2336 -1.3399
  170SOPE  H11Y19256   2.560   0.191   7.814  0.1814 -0.2647  1.9963
  170SOPE  C31219257   2.765   0.298   7.849 -0.4256 -0.0113  0.3628
  170SOPE  H12X19258   2.731   0.400   7.874  0.9202  1.0581 -1.8358
  170SOPE  H12Y19259   2.849   0.315   7.778  0.1023  3.1265  1.5773
  170SOPE  C31319260   2.818   0.225   7.972 -0.6832  0.4888  0.7910
  170SOPE  H13X19261   2.911   0.277   8.002  1.0253 -1.1945 -1.2658
  170SOPE  H13Y19262   2.832   0.119   7.940 -1.5869  1.2939 -2.7437
  170SOPE  C31419263   2.716   0.229   8.080 -0.2321  0.2567 -0.2519
  170SOPE  H14X19264   2.629   0.167   8.049 -1.0295  1.1168  0.1903
  170SOPE  H14Y19265   2.669   0.327   8.102 -0.1486  0.6679 -1.8000
  170SOPE  C31519266   2.763   0.172   8.216  0.4634  1.1038  0.1248
  170SOPE  H15X19267   2.860   0.217   8.247  0.5217  1.1854 -0.1747
  170SOPE  H15Y19268   2.791   0.068   8.188  0.3959  1.0629  0.2069
  170SOPE  C31619269   2.651   0.174   8.322  0.4388 -0.0091 -0.1165
  170SOPE  H16X19270   2.687   0.113   8.408  1.7319  1.8536  0.7477
  170SOPE  H16Y19271   2.550   0.130   8.310  0.1607  0.4207  0.5376
  170SOPE  C31719272   2.623   0.314   8.370  0.3277  0.0941  0.3104
  170SOPE  H17X19273   2.551   0.357   8.297  1.4288  1.6456  0.0630
  170SOPE  H17Y19274   2.720   0.368   8.364  0.9432 -1.0263 -0.0675
  170SOPE  C31819275   2.567   0.326   8.513 -0.2655  0.4352 -0.3460
  170SOPE  H18X19276   2.546   0.434   8.533 -2.4453 -0.1716  0.8729
  170SOPE  H18Y19277   2.636   0.292   8.592  1.5319  2.8023 -0.7524
  170SOPE  H18Z19278   2.471   0.272   8.517  0.0023 -0.0601 -0.5850
  171SOPE     N19279   1.117   4.439   6.096  0.4295 -0.2767 -0.3664
  171SOPE   HN119280   1.019   4.469   6.114 -0.0967 -1.2237 -1.5790
  171SOPE   HN219281   1.158   4.402   6.185  1.3233  0.0371 -0.6383
  171SOPE   HN319282   1.171   4.525   6.074  0.8821 -0.4594  0.0135
  171SOPE   C1219283   1.108   4.331   5.993 -0.2294  0.8775 -0.0662
  171SOPE  H12A19284   1.189   4.261   6.023  1.1375  1.7348 -1.6165
  171SOPE  H12B19285   1.127   4.376   5.893 -2.8046 -0.4128 -1.2383
  171SOPE   C1119286   0.971   4.260   5.992 -0.1204 -0.3169  0.0639
  171SOPE  H11A19287   0.899   4.330   5.945  0.2500 -0.1526 -0.2698
  171SOPE  H11B19288   0.941   4.256   6.099 -1.9226 -0.9211 -0.4312
  171SOPE     P19289   1.031   4.002   5.982  0.3738  0.3334 -0.0982
  171SOPE   O1319290   1.170   3.992   5.929  0.1539  0.4362 -0.0847
  171SOPE   O1419291   0.937   3.891   5.955 -0.4561  0.6389 -0.3754
  171SOPE   O1219292   0.977   4.142   5.922 -0.0032  0.4384  0.2373
  171SOPE   O1119293   1.039   4.025   6.141 -0.2703 -0.1080  0.2751
  171SOPE    C119294   0.970   3.933   6.232 -0.3204 -0.0900 -0.1288
  171SOPE    HA19295   1.025   3.836   6.227  1.6970  1.0761 -2.7408
  171SOPE    HB19296   0.864   3.916   6.205 -0.9737  0.5067  1.8706
  171SOPE    C219297   0.987   4.002   6.375  0.2519 -0.1225  0.5441
  171SOPE    HS19298   0.923   4.092   6.368  1.0555  0.5543  1.6544
  171SOPE   O2119299   1.123   4.035   6.407 -0.4301  0.1364 -0.1175
  171SOPE   C2119300   1.149   4.142   6.483  0.1402 -0.9228  0.0314
  171SOPE   O2219301   1.062   4.228   6.505  0.1418 -0.5998 -0.0269
  171SOPE   C2219302   1.294   4.149   6.541 -0.2198 -0.2672  0.1242
  171SOPE   H2R19303   1.362   4.135   6.454 -0.9788  0.0478 -0.5266
  171SOPE   H2S19304   1.303   4.062   6.610  0.8110 -0.3919 -0.1442
  171SOPE    C319305   0.917   3.910   6.484 -0.5099 -1.0252 -0.1579
  171SOPE    HX19306   0.976   3.817   6.497 -0.4247 -0.8616  0.6277
  171SOPE    HY19307   0.815   3.876   6.456 -0.5417 -0.3185 -0.9394
  171SOPE   O3119308   0.909   3.980   6.613  0.1189 -0.6402 -0.4040
  171SOPE   C3119309   0.825   4.075   6.631  0.1637 -0.8863 -0.1356
  171SOPE   O3219310   0.759   4.129   6.544 -0.1907 -0.3715  0.6102
  171SOPE   C3219311   0.815   4.096   6.785  0.2118  0.4505 -0.1604
  171SOPE   H2X19312   0.887   4.042   6.850  1.5260  4.2755  1.9072
  171SOPE   H2Y19313   0.710   4.069   6.811  0.0064 -0.2809 -1.6842
  171SOPE   C2319314   1.317   4.284   6.617  0.1898  0.5295  0.4053
  171SOPE   H3R19315   1.254   4.363   6.571 -0.6115 -1.3699 -1.9394
  171SOPE   H3S19316   1.425   4.310   6.611  0.3419  0.0807  1.0731
  171SOPE   C2419317   1.306   4.282   6.773  0.3268 -0.0629 -0.2788
  171SOPE   H4R19318   1.204   4.260   6.811  0.1726  1.4393  0.2471
  171SOPE   H4S19319   1.368   4.198   6.810 -2.7131 -2.2527  0.2317
  171SOPE   C2519320   1.367   4.409   6.843 -0.4815 -0.3574  0.4013
  171SOPE   H5R19321   1.464   4.420   6.791 -0.9975  1.3925 -0.2465
  171SOPE   H5S19322   1.305   4.499   6.824 -1.8016 -1.5123 -1.0903
  171SOPE   C2619323   1.382   4.378   6.994 -0.3955 -0.1658 -0.8334
  171SOPE   H6R19324   1.436   4.282   7.007  2.2784  1.4297  0.6399
  171SOPE   H6S19325   1.457   4.441   7.045  2.3134 -2.1714 -2.1270
  171SOPE   C2719326   1.242   4.380   7.054  0.1953 -0.4164 -0.2239
  171SOPE   H7R19327   1.204   4.485   7.045  0.7279  0.0721  2.4189
  171SOPE   H7S19328   1.172   4.314   6.999 -1.2513  2.4903 -2.1689
  171SOPE   C2819329   1.241   4.333   7.203 -0.4915 -0.1829 -0.3357
  171SOPE   H8R19330   1.276   4.229   7.188  0.4187  0.2341 -1.1582
  171SOPE   H8S19331   1.313   4.388   7.268 -1.0490 -0.5643  0.6335
  171SOPE   C2919332   1.100   4.339   7.268 -0.4227  0.7298 -0.0751
  171SOPE   H9119333   1.047   4.248   7.236  2.3701 -0.6075 -1.2832
  171SOPE  C21019334   1.036   4.443   7.323  0.5489  0.2013 -1.1294
  171SOPE  H10119335   0.930   4.441   7.354  1.3401 -2.3918  1.9177
  171SOPE  C21119336   1.115   4.567   7.349  0.1035  0.4586 -0.0651
  171SOPE  H11R19337   1.045   4.654   7.345 -1.5380 -0.8563 -0.9326
  171SOPE  H11S19338   1.190   4.582   7.269  1.1602  1.9335  1.1220
  171SOPE  C21219339   1.166   4.577   7.496 -0.0142  0.3551  0.3863
  171SOPE  H12R19340   1.213   4.482   7.529  1.0168  0.6069 -0.3089
  171SOPE  H12S19341   1.068   4.578   7.549 -0.7212  0.9243 -0.8791
  171SOPE  C21319342   1.271   4.685   7.522 -0.5919 -0.5223  0.3032
  171SOPE  H13R19343   1.234   4.789   7.508  0.2585 -0.3711 -0.9847
  171SOPE  H13S19344   1.352   4.677   7.447 -0.1243  0.3592  0.6976
  171SOPE  C21419345   1.335   4.674   7.660 -0.3336 -0.6383 -0.3435
  171SOPE  H14R19346   1.428   4.735   7.660  0.0688 -1.2233 -1.3758
  171SOPE  H14S19347   1.371   4.569   7.658  1.9418  0.0972 -0.4791
  171SOPE  C21519348   1.243   4.697   7.789  0.2040 -0.3015  0.8978
  171SOPE  H15R19349   1.161   4.623   7.800  1.6832 -2.6870 -2.3296
  171SOPE  H15S19350   1.212   4.804   7.786  0.3110 -0.2886 -1.0551
  171SOPE  C21619351   1.327   4.687   7.915  0.0712  0.1069 -0.5111
  171SOPE  H16R19352   1.269   4.711   8.006 -0.2308 -0.5536 -0.5265
  171SOPE  H16S19353   1.406   4.764   7.896 -0.6078  0.3195 -2.7656
  171SOPE  C21719354   1.382   4.551   7.951  0.2291  0.2901 -0.1532
  171SOPE  H17R19355   1.430   4.502   7.864  1.7658 -1.4418  1.5675
  171SOPE  H17S19356   1.291   4.494   7.982 -0.5384  0.7427 -1.5053
  171SOPE  C21819357   1.485   4.565   8.061  0.3258  0.3235 -0.7815
  171SOPE  H18R19358   1.438   4.609   8.151 -0.5892 -0.1781 -0.9992
  171SOPE  H18S19359   1.564   4.641   8.044  1.4105 -0.7449 -0.7050
  171SOPE  H18T19360   1.542   4.472   8.081 -1.7166 -0.9948 -0.8034
  171SOPE   C3319361   0.836   4.247   6.820 -0.2098 -0.7503 -0.5822
  171SOPE   H3X19362   0.766   4.317   6.770 -0.7732 -0.1549  0.9585
  171SOPE   H3Y19363   0.936   4.273   6.780 -0.4274  0.1313 -0.5927
  171SOPE   C3419364   0.837   4.268   6.977 -0.6750  0.0796  0.2193
  171SOPE   H4X19365   0.865   4.374   6.997 -0.7485  0.1640 -0.1154
  171SOPE   H4Y19366   0.916   4.208   7.027  0.1472  0.7470 -0.2417
  171SOPE   C3519367   0.704   4.235   7.044 -0.2719 -0.7354 -0.5023
  171SOPE   H5X19368   0.679   4.131   7.014  0.5077 -1.5428  1.5084
  171SOPE   H5Y19369   0.619   4.296   7.008  2.5348  2.5589 -2.0703
  171SOPE   C3619370   0.708   4.245   7.202  1.1036 -0.1347 -0.0533
  171SOPE   H6X19371   0.772   4.328   7.241  2.8341 -0.8393 -1.2927
  171SOPE   H6Y19372   0.755   4.148   7.227  0.4993 -0.1712  1.0161
  171SOPE   C3719373   0.559   4.249   7.256  0.0387 -0.5476  0.2165
  171SOPE   H7X19374   0.517   4.150   7.229 -0.9147 -0.5505  1.5883
  171SOPE   H7Y19375   0.504   4.335   7.212 -0.0646  0.0882  1.5131
  171SOPE   C3819376   0.547   4.262   7.407 -0.4409  0.7295 -0.4159
  171SOPE   H8X19377   0.577   4.364   7.440  0.4214  0.1577  0.6624
  171SOPE   H8Y19378   0.619   4.191   7.453 -2.0294 -0.4537  0.3528
  171SOPE   C3919379   0.406   4.227   7.449  0.6386  0.0286  0.0107
  171SOPE   H9X19380   0.359   4.163   7.370 -1.0143 -2.6423  2.8984
  171SOPE   H9Y19381   0.359   4.328   7.447  0.3515 -0.0865  0.6283
  171SOPE  C31019382   0.405   4.165   7.587  0.1871 -0.0760  0.1368
  171SOPE  H10X19383   0.483   4.087   7.604  0.4982  0.5867  1.9533
  171SOPE  H10Y19384   0.309   4.112   7.606 -1.1908  1.9476 -0.8468
  171SOPE  C31119385   0.448   4.260   7.704 -0.6614  0.2536 -0.3547
  171SOPE  H11X19386   0.376   4.343   7.712 -0.9469 -0.1542  3.9547
  171SOPE  H11Y19387   0.546   4.304   7.673  0.3769 -2.0613 -0.5876
  171SOPE  C31219388   0.453   4.190   7.841  0.0564  0.0148 -0.3304
  171SOPE  H12X19389   0.381   4.105   7.844  1.0921 -0.8661  0.2388
  171SOPE  H12Y19390   0.429   4.265   7.918 -0.8328  0.1441 -0.7158
  171SOPE  C31319391   0.587   4.122   7.867 -0.0121  0.6472 -0.1418
  171SOPE  H13X19392   0.667   4.198   7.877  1.0792 -0.4953  0.0208
  171SOPE  H13Y19393   0.604   4.061   7.776  1.2499  3.8250 -2.2240
  171SOPE  C31419394   0.595   4.047   8.001 -0.1998 -1.1313  0.2735
  171SOPE  H14X19395   0.507   3.983   8.027 -2.0796  1.7616  1.5581
  171SOPE  H14Y19396   0.590   4.124   8.081 -0.1876 -1.2635  0.4021
  171SOPE  C31519397   0.727   3.970   8.021  0.1445 -0.1806  0.1933
  171SOPE  H15X19398   0.810   3.990   7.950  0.5818  0.9517  0.9775
  171SOPE  H15Y19399   0.714   3.861   8.005  1.4029 -0.7582  2.5733
  171SOPE  C31619400   0.791   3.969   8.155 -0.3385  0.4614 -0.3876
  171SOPE  H16X19401   0.729   3.904   8.221 -1.3967  0.4382 -1.3656
  171SOPE  H16Y19402   0.796   4.070   8.201  1.3780 -0.0683  0.6726
  171SOPE  C31719403   0.937   3.910   8.158 -0.4099  0.8787  0.1299
  171SOPE  H17X19404   0.989   3.981   8.090 -0.6950  0.9124 -0.0538
  171SOPE  H17Y19405   0.925   3.813   8.105 -0.0742  0.6882  0.3932
  171SOPE  C31819406   0.998   3.889   8.304  0.5584 -0.2548 -0.5064
  171SOPE  H18X19407   1.109   3.878   8.307  0.8271  1.9144  2.4353
  171SOPE  H18Y19408   0.955   3.799   8.353 -0.7400  0.6981  0.1724
  171SOPE  H18Z19409   0.985   3.979   8.368 -1.3212 -0.0520 -1.0983
  172SOPE     N19410   2.923   5.002   6.268  0.1335  0.6345 -0.2339
  172SOPE   HN119411   2.915   4.981   6.369 -1.8310 -0.2980 -0.5303
  172SOPE   HN219412   2.968   5.095   6.254  1.7345 -0.1592 -0.5842
  172SOPE   HN319413   2.833   5.006   6.216  0.0515  0.1656 -0.1336
  172SOPE   C1219414   3.023   4.905   6.207 -0.3374  0.5506  0.6492
  172SOPE  H12A19415   3.057   4.945   6.109 -0.4405 -1.6083 -0.3205
  172SOPE  H12B19416   2.967   4.812   6.185 -0.5675  1.2869 -2.3356
  172SOPE   C1119417   3.152   4.897   6.294  0.7048  0.3198  0.8042
  172SOPE  H11A19418   3.224   4.820   6.259 -1.2524 -0.3448 -2.1756
  172SOPE  H11B19419   3.120   4.886   6.400  1.0301 -1.3975  0.7533
  172SOPE     P19420   3.370   5.044   6.284  0.2605 -0.5342  0.0644
  172SOPE   O1319421   3.386   5.187   6.238 -0.5962  0.3108 -0.0037
  172SOPE   O1419422   3.431   4.941   6.199 -0.1863  0.2117  0.0719
  172SOPE   O1219423   3.215   5.023   6.288  0.5967  0.0986  0.2145
  172SOPE   O1119424   3.418   5.038   6.433 -0.0589 -0.7581 -0.1904
  172SOPE    C119425   3.374   5.131   6.534 -0.2024 -0.1164  0.3951
  172SOPE    HA19426   3.283   5.188   6.504  1.0717  1.1712 -1.1490
  172SOPE    HB19427   3.453   5.208   6.547 -0.5123  0.3845 -0.5674
  172SOPE    C219428   3.361   5.065   6.671 -0.1276 -0.3239 -0.3525
  172SOPE    HS19429   3.332   5.145   6.741 -0.5510 -2.2693  1.7976
  172SOPE   O2119430   3.481   4.997   6.711 -0.4073  0.0482  0.5134
  172SOPE   C2119431   3.573   5.064   6.775  0.0772 -0.0416 -0.0455
  172SOPE   O2219432   3.574   5.185   6.799 -0.3069  0.7254  0.0110
  172SOPE   C2219433   3.689   4.971   6.816 -0.1236  0.6679 -0.0379
  172SOPE   H2R19434   3.782   5.014   6.773 -0.2849 -0.5696 -1.7246
  172SOPE   H2S19435   3.661   4.869   6.782 -2.1204  1.3893 -0.6727
  172SOPE    C319436   3.245   4.968   6.675  0.3128  0.1756 -0.6086
  172SOPE    HX19437   3.267   4.885   6.605  2.5331 -1.4266  1.7973
  172SOPE    HY19438   3.152   5.017   6.641  0.8102  0.6911 -1.2511
  172SOPE   O3119439   3.230   4.919   6.810  0.5158  0.1612 -0.0986
  172SOPE   C3119440   3.169   4.999   6.897 -0.0568 -0.2679 -0.3270
  172SOPE   O3219441   3.117   5.105   6.858 -0.5083 -0.5960 -0.2436
  172SOPE   C3219442   3.147   4.924   7.032 -0.6191  0.2753  0.6417
  172SOPE   H2X19443   3.230   4.850   7.040 -0.2648  0.2546 -2.1925
  172SOPE   H2Y19444   3.059   4.856   7.028 -1.3717  1.1882  1.1666
  172SOPE   C2319445   3.705   4.970   6.978 -0.0859  0.3793  0.7468
  172SOPE   H3R19446   3.714   5.068   7.028  1.8494  0.3496  0.5249
  172SOPE   H3S19447   3.798   4.910   6.991 -0.8283 -0.8569  0.5605
  172SOPE   C2419448   3.612   4.871   7.048  0.0440 -0.2180  0.3526
  172SOPE   H4R19449   3.505   4.892   7.027 -0.5488 -2.4067  0.9285
  172SOPE   H4S19450   3.631   4.776   6.994 -1.9078 -2.0326  2.6032
  172SOPE   C2519451   3.641   4.851   7.195  0.5739  0.9360  0.3158
  172SOPE   H5R19452   3.740   4.802   7.206 -0.4311 -1.4749 -0.4918
  172SOPE   H5S19453   3.644   4.950   7.245  0.3005  0.8528  0.4984
  172SOPE   C2619454   3.536   4.774   7.277 -0.3024  0.0976  0.4692
  172SOPE   H6R19455   3.431   4.789   7.244 -0.1598 -0.7533 -0.4463
  172SOPE   H6S19456   3.545   4.666   7.250 -0.2561 -0.0039  0.8947
  172SOPE   C2719457   3.544   4.780   7.431 -0.3893 -0.3834 -0.7859
  172SOPE   H7R19458   3.552   4.887   7.456  0.8506 -1.0508  1.9704
  172SOPE   H7S19459   3.452   4.731   7.471  1.1045 -3.3089 -0.6350
  172SOPE   C2819460   3.677   4.728   7.492  0.1822  0.3984 -0.5052
  172SOPE   H8R19461   3.758   4.788   7.445  0.4513  0.9466  0.6110
  172SOPE   H8S19462   3.683   4.765   7.597 -0.7256  2.8536 -1.2692
  172SOPE   C2919463   3.705   4.575   7.482  0.5149 -0.6191  0.1023
  172SOPE   H9119464   3.633   4.517   7.423 -0.9319  0.7406  0.4645
  172SOPE  C21019465   3.815   4.517   7.525  1.1235 -0.1686 -0.5303
  172SOPE  H10119466   3.815   4.407   7.536  2.4364 -0.0960  0.4122
  172SOPE  C21119467   3.931   4.570   7.596 -0.6168 -0.6467  0.5878
  172SOPE  H11R19468   3.926   4.680   7.585  1.7004 -0.7229 -2.7809
  172SOPE  H11S19469   4.033   4.555   7.554 -1.0452 -1.1109 -0.3063
  172SOPE  C21219470   3.943   4.530   7.753  0.6420 -0.2998  0.2339
  172SOPE  H12R19471   4.038   4.576   7.788  0.1842  0.3903  0.5847
  172SOPE  H12S19472   3.950   4.420   7.765 -0.7230 -0.3412  0.7366
  172SOPE  C21319473   3.838   4.593   7.834 -0.2305 -0.4321 -0.2540
  172SOPE  H13R19474   3.736   4.568   7.798 -0.3793  1.3701 -1.2008
  172SOPE  H13S19475   3.839   4.704   7.827 -1.0016 -0.2691  1.6340
  172SOPE  C21419476   3.852   4.544   7.975 -0.1683 -0.2634 -0.1977
  172SOPE  H14R19477   3.881   4.437   7.979 -1.3245 -0.5962  3.5925
  172SOPE  H14S19478   3.749   4.555   8.015 -1.8297 -0.6402 -3.9464
  172SOPE  C21519479   3.957   4.622   8.063  0.6442 -0.3422 -0.0228
  172SOPE  H15R19480   3.943   4.731   8.044 -0.5269 -0.4334  0.2383
  172SOPE  H15S19481   4.052   4.585   8.020 -0.4267 -0.5820 -2.3338
  172SOPE  C21619482   3.932   4.596   8.213  0.5365  0.1717 -0.1624
  172SOPE  H16R19483   4.018   4.632   8.273 -0.6360  2.8333  0.0580
  172SOPE  H16S19484   3.915   4.488   8.236 -0.4755  0.9081  3.0177
  172SOPE  C21719485   3.822   4.688   8.265 -0.4445  0.1778 -0.3870
  172SOPE  H17R19486   3.727   4.673   8.209 -0.8436 -0.8971  0.5269
  172SOPE  H17S19487   3.848   4.796   8.258  1.4128 -0.2599 -0.7596
  172SOPE  C21819488   3.792   4.635   8.410  0.6203  0.3793 -0.4799
  172SOPE  H18R19489   3.703   4.690   8.447  0.2942  0.2237 -1.0206
  172SOPE  H18S19490   3.881   4.644   8.476  1.5088  0.5918 -1.6720
  172SOPE  H18T19491   3.765   4.527   8.399 -1.5130  1.0560 -2.7527
  172SOPE   C3319492   3.142   5.016   7.151 -0.0132 -0.1568 -0.3370
  172SOPE   H3X19493   3.108   4.966   7.244  0.4784  1.1760  0.5857
  172SOPE   H3Y19494   3.066   5.096   7.137 -0.4346 -0.3168  0.8997
  172SOPE   C3419495   3.278   5.087   7.176  0.1415 -0.2814 -0.7058
  172SOPE   H4X19496   3.303   5.155   7.092 -0.6389  2.9487  1.5099
  172SOPE   H4Y19497   3.358   5.010   7.178 -1.1633 -1.7387  2.4728
  172SOPE   C3519498   3.282   5.169   7.306 -0.5250 -0.3068 -0.8908
  172SOPE   H5X19499   3.262   5.107   7.396  0.3890 -0.3686 -0.7264
  172SOPE   H5Y19500   3.195   5.237   7.316 -0.8028 -0.7800  0.0072
  172SOPE   C3619501   3.416   5.238   7.310 -0.1459 -0.1869  0.1590
  172SOPE   H6X19502   3.427   5.297   7.216  2.9045  1.4051  1.3754
  172SOPE   H6Y19503   3.490   5.156   7.317 -1.2001 -1.1695  0.1445
  172SOPE   C3719504   3.426   5.334   7.428 -0.1031  0.3110  0.5474
  172SOPE   H7X19505   3.341   5.403   7.449 -0.3812 -0.0553  0.6521
  172SOPE   H7Y19506   3.520   5.390   7.413  1.8886 -2.9478  0.0240
  172SOPE   C3819507   3.451   5.264   7.565  0.2154  0.0719 -0.2630
  172SOPE   H8X19508   3.544   5.204   7.548 -0.4306 -0.8764 -0.5144
  172SOPE   H8Y19509   3.363   5.198   7.582  1.5525 -1.9591 -0.7727
  172SOPE   C3919510   3.471   5.365   7.680 -0.3021 -0.3495  0.4169
  172SOPE   H9X19511   3.378   5.425   7.673  1.1353  1.8158 -1.4035
  172SOPE   H9Y19512   3.554   5.434   7.653 -0.4832 -0.0191  0.7133
  172SOPE  C31019513   3.509   5.310   7.817 -0.3541 -0.1425  0.1047
  172SOPE  H10X19514   3.593   5.238   7.803  0.2255  0.8083 -1.5559
  172SOPE  H10Y19515   3.432   5.254   7.875 -1.3848  0.9216 -0.2050
  172SOPE  C31119516   3.536   5.426   7.918 -0.1347 -0.0080 -0.0238
  172SOPE  H11X19517   3.618   5.491   7.880 -0.1264 -1.2645 -2.3323
  172SOPE  H11Y19518   3.571   5.372   8.009  2.3633 -3.3883 -2.7244
  172SOPE  C31219519   3.411   5.511   7.952  0.3162 -0.3651 -0.0753
  172SOPE  H12X19520   3.329   5.438   7.969  1.0805 -1.2715 -0.1893
  172SOPE  H12Y19521   3.379   5.563   7.860 -1.4230  0.1907  0.7938
  172SOPE  C31319522   3.439   5.602   8.076  0.0532  0.0989 -0.3045
  172SOPE  H13X19523   3.354   5.672   8.090 -0.0496 -0.4580  2.2921
  172SOPE  H13Y19524   3.531   5.656   8.046  0.3511 -1.1784 -1.7842
  172SOPE  C31419525   3.460   5.524   8.209  0.5928 -0.2833  0.4187
  172SOPE  H14X19526   3.503   5.593   8.285  3.8583 -0.3299 -1.2001
  172SOPE  H14Y19527   3.540   5.446   8.206 -0.9272 -2.1680  3.3603
  172SOPE  C31519528   3.326   5.465   8.265  0.3602 -0.0443 -0.2681
  172SOPE  H15X19529   3.303   5.372   8.209 -1.2528 -0.6159  1.2483
  172SOPE  H15Y19530   3.247   5.544   8.263  2.0803  1.7765 -2.4632
  172SOPE  C31619531   3.347   5.420   8.407 -0.5684 -0.1062  0.4927
  172SOPE  H16X19532   3.348   5.501   8.483 -1.5179  0.0060  0.4027
  172SOPE  H16Y19533   3.444   5.368   8.423 -1.5836 -1.5811  2.3872
  172SOPE  C31719534   3.257   5.298   8.447 -0.3352  0.1615  0.1939
  172SOPE  H17X19535   3.286   5.220   8.373 -1.1852 -0.5148  0.5514
  172SOPE  H17Y19536   3.148   5.314   8.430  0.0545  1.8506 -0.9250
  172SOPE  C31819537   3.280   5.254   8.591 -0.2923  0.1950  0.3572
  172SOPE  H18X19538   3.211   5.168   8.603  0.9434 -1.3303 -2.5322
  172SOPE  H18Y19539   3.252   5.338   8.658  0.6930  0.5272  0.3565
  172SOPE  H18Z19540   3.379   5.211   8.615  0.5755  2.8127  1.8602
  173SAPI   C1219541   4.200   2.139  11.077 -0.3843  0.2602 -0.3464
  173SAPI    H219542   4.254   2.125  10.981 -1.6646 -0.2867 -1.0011
  173SAPI    O219543   4.154   2.019  11.132 -0.0592 -0.0929  0.4296
  173SAPI   HO219544   4.102   1.981  11.061  0.1327  2.2751 -1.1007
  173SAPI   C1319545   4.294   2.211  11.172 -0.5196 -0.0810  0.1624
  173SAPI    H319546   4.316   2.310  11.127 -1.1920  0.1203  0.2705
  173SAPI    O319547   4.428   2.151  11.174 -0.0452 -0.0563 -0.3377
  173SAPI   HO319548   4.472   2.205  11.240 -2.3209  0.3887  0.9069
  173SAPI   C1419549   4.232   2.229  11.307  0.1924 -0.3365 -0.6548
  173SAPI    H419550   4.216   2.125  11.343 -2.9665 -0.6783 -2.6787
  173SAPI    O419551   4.320   2.300  11.387 -0.2202 -0.5704  0.1595
  173SAPI   HO419552   4.315   2.258  11.473  1.0605 -1.2563 -0.0693
  173SAPI   C1519553   4.097   2.295  11.312  0.3725  0.0483 -0.3525
  173SAPI    H519554   4.117   2.403  11.297  0.2659 -0.1788 -2.4815
  173SAPI    O519555   4.027   2.274  11.432  0.1817 -0.1414  0.4116
  173SAPI   HO519556   3.987   2.357  11.460 -0.8081 -0.1098 -1.0447
  173SAPI   C1619557   4.008   2.262  11.192  0.1701 -0.0016 -0.1897
  173SAPI    H619558   3.962   2.163  11.211 -1.2232  0.3317 -1.6154
  173SAPI    O619559   3.902   2.356  11.176 -0.4009 -0.1073  0.1208
  173SAPI   HO619560   3.818   2.309  11.171 -1.4603  1.1821  3.4597
  173SAPI   C1119561   4.085   2.242  11.059 -0.4428  0.6462  0.0733
  173SAPI    H119562   4.139   2.328  11.015 -0.8252 -0.5636 -3.0385
  173SAPI     P19563   3.932   2.281  10.851 -0.1827  0.1268  0.5526
  173SAPI   O1319564   3.884   2.411  10.906 -0.7249  0.0671 -0.2750
  173SAPI   O1419565   3.834   2.203  10.771 -0.5352 -0.0091 -0.7365
  173SAPI   O1219566   4.004   2.179  10.964 -0.4907  0.8077  0.1014
  173SAPI   O1119567   4.064   2.300  10.765  0.3231 -0.1633 -0.1987
  173SAPI    C119568   4.125   2.187  10.704  0.2957  0.3294  0.6757
  173SAPI    HA19569   4.235   2.198  10.709  0.7451 -2.7941 -0.2536
  173SAPI    HB19570   4.107   2.087  10.749 -1.8720  0.2844 -0.1371
  173SAPI    C219571   4.081   2.181  10.550  0.6075  0.0177 -0.0668
  173SAPI    HS19572   3.993   2.113  10.547  0.5219  0.0469  1.3992
  173SAPI   O2119573   4.183   2.121  10.475 -0.2761 -0.8119 -0.7531
  173SAPI   C2119574   4.210   1.999  10.496  0.5126  0.5960  1.0819
  173SAPI   O2219575   4.160   1.930  10.584  0.2998  0.4071  0.1315
  173SAPI   C2219576   4.312   1.952  10.394  0.5501 -0.2480 -0.2477
  173SAPI   H2R19577   4.389   2.032  10.395  0.5748 -0.2781  0.5373
  173SAPI   H2S19578   4.362   1.861  10.435  0.3038 -0.0541  0.4970
  173SAPI    C319579   4.026   2.312  10.484 -0.2218 -0.6058 -0.0608
  173SAPI    HX19580   4.099   2.394  10.504  0.9819 -1.9233  1.2129
  173SAPI    HY19581   3.928   2.342  10.528  0.2911  1.5700 -0.2775
  173SAPI   O3119582   4.024   2.288  10.349 -0.5122 -0.4171 -0.3564
  173SAPI   C3119583   3.910   2.240  10.288 -0.3110 -0.6726 -0.3918
  173SAPI   O3219584   3.824   2.180  10.346 -0.4061 -0.0715  0.4925
  173SAPI   C3219585   3.906   2.291  10.137  0.2545 -0.0724 -0.5568
  173SAPI   H2X19586   3.946   2.395  10.140  0.4640 -0.1286  3.2169
  173SAPI   H2Y19587   3.797   2.288  10.114  0.3501 -0.2716 -0.9892
  173SAPI   C2319588   4.240   1.937  10.253 -1.1314  0.4471 -0.1921
  173SAPI   H3R19589   4.189   2.035  10.240 -1.3838  0.1551 -1.5356
  173SAPI   H3S19590   4.154   1.868  10.250 -1.5036  0.9392 -1.3144
  173SAPI   C2419591   4.345   1.911  10.148  0.2077  0.5964  0.2112
  173SAPI   H4R19592   4.375   1.804  10.149  0.6310  0.5922 -2.6750
  173SAPI   H4S19593   4.440   1.966  10.160  0.5355  0.0524  0.1578
  173SAPI   C2519594   4.288   1.954  10.014  1.0183  0.2417  0.8209
  173SAPI   H5R19595   4.319   2.054   9.978 -1.0066  2.1057  3.8370
  173SAPI   C2619596   4.199   1.885   9.935 -0.3015 -0.3815 -0.4230
  173SAPI   H6R19597   4.167   1.916   9.834 -3.3962 -3.5598 -0.6335
  173SAPI   C2719598   4.163   1.740   9.956  0.0430  0.6009  1.1385
  173SAPI   H7R19599   4.220   1.697  10.042 -0.3838 -1.2641  0.5268
  173SAPI   H7S19600   4.206   1.689   9.868  3.7700  2.2749  1.8133
  173SAPI   C2819601   4.023   1.701   9.993 -0.1390 -0.6078 -0.4774
  173SAPI   H8R19602   4.020   1.667  10.098  0.5471  1.3046  0.2166
  173SAPI   C2919603   3.921   1.669   9.909  0.2611  0.6158 -0.4452
  173SAPI   H9R19604   3.829   1.627   9.952  1.6590 -1.4443  0.7452
  173SAPI  C21019605   3.926   1.681   9.758 -0.1970 -0.0064  0.2264
  173SAPI  H10R19606   3.842   1.626   9.709  2.1915 -1.8060 -2.1283
  173SAPI  H10S19607   4.008   1.617   9.720  0.2312  0.9635 -0.5411
  173SAPI  C21119608   3.924   1.821   9.694  0.1847  0.4205 -0.2595
  173SAPI  H11R19609   3.914   1.903   9.766 -4.1121 -0.8184  0.8597
  173SAPI  C21219610   3.950   1.850   9.561 -0.4534  0.2346  1.0160
  173SAPI  H12R19611   3.942   1.954   9.526  1.8649 -0.4481 -1.9411
  173SAPI  C21319612   3.995   1.755   9.453 -0.3371 -0.6661 -0.1660
  173SAPI  H13R19613   3.991   1.649   9.487 -0.1096 -0.8149 -0.5980
  173SAPI  H13S19614   4.104   1.771   9.441 -0.5776  3.2021  1.3945
  173SAPI  C21419615   3.917   1.780   9.327  0.5454  0.3417  0.4875
  173SAPI  H14R19616   3.853   1.870   9.330 -0.6085 -0.4823  1.5982
  173SAPI  C21519617   3.937   1.716   9.206 -0.4978 -0.2809 -0.4782
  173SAPI  H15R19618   3.866   1.742   9.126 -0.6812 -0.5382 -0.4017
  173SAPI  C21619619   4.033   1.602   9.176 -0.2181 -0.7116 -0.3079
  173SAPI  H16R19620   3.981   1.508   9.147 -2.3139  0.3775 -0.2476
  173SAPI  H16S19621   4.087   1.576   9.269 -1.3274  0.2735  0.6523
  173SAPI  C21719622   4.135   1.636   9.069 -0.8536  0.2009  0.6018
  173SAPI  H17R19623   4.202   1.548   9.086 -1.1734 -0.1735 -0.0597
  173SAPI  H17S19624   4.196   1.726   9.095  1.2921 -0.6876 -1.0310
  173SAPI  C21819625   4.078   1.658   8.929 -0.4404 -0.8830  0.9381
  173SAPI  H18R19626   4.001   1.738   8.929  2.2398  1.8793 -0.0970
  173SAPI  H18S19627   4.014   1.573   8.898  0.3263 -0.9224 -0.6563
  173SAPI  C21919628   4.180   1.691   8.824  0.4754 -0.1615  0.2251
  173SAPI  H19R19629   4.239   1.597   8.812 -1.4008 -1.7358  2.4823
  173SAPI  H19S19630   4.241   1.768   8.876 -1.0449  2.0217 -1.0465
  173SAPI  C22019631   4.114   1.747   8.694  0.0264  0.4666 -0.4927
  173SAPI  H20R19632   4.066   1.659   8.647 -0.8875  0.2389  0.8033
  173SAPI  H20S19633   4.200   1.781   8.632 -0.1151  1.9274  0.0623
  173SAPI  H20T19634   4.036   1.821   8.721 -0.0161 -0.0157  0.8095
  173SAPI   C3319635   3.965   2.204  10.032 -0.2477  0.9140 -0.0605
  173SAPI   H3X19636   3.897   2.116  10.029  0.9169 -0.0575  0.6416
  173SAPI   H3Y19637   4.063   2.163  10.066 -0.5887 -0.3021 -0.4822
  173SAPI   C3419638   3.977   2.280   9.904  0.2176 -0.4038 -0.1289
  173SAPI   H4X19639   4.038   2.369   9.931  0.4390 -0.3084 -0.9218
  173SAPI   H4Y19640   3.875   2.319   9.885  0.8957  0.5443 -2.0586
  173SAPI   C3519641   4.035   2.204   9.785  0.5229  0.4810  0.1902
  173SAPI   H5X19642   3.973   2.116   9.759 -0.4674  1.2702 -0.1982
  173SAPI   H5Y19643   4.130   2.163   9.826  1.4300  0.9487 -1.3426
  173SAPI   C3619644   4.063   2.282   9.655  0.2647 -0.6615 -0.4041
  173SAPI   H6X19645   4.129   2.367   9.685 -0.3814  0.4291 -1.9290
  173SAPI   H6Y19646   3.975   2.323   9.601  0.7788  1.0371 -0.0115
  173SAPI   C3719647   4.146   2.194   9.565 -0.8124  0.1843 -0.2505
  173SAPI   H7X19648   4.130   2.085   9.576  0.4949  0.1944  2.3858
  173SAPI   H7Y19649   4.251   2.209   9.598 -0.9375  0.3029  0.0977
  173SAPI   C3819650   4.155   2.232   9.419  0.7073 -0.2251  0.7539
  173SAPI   H8X19651   4.239   2.173   9.377 -0.2361 -2.1544  1.4389
  173SAPI   H8Y19652   4.171   2.338   9.391 -4.1378  0.6284  0.4090
  173SAPI   C3919653   4.020   2.179   9.350 -0.7185  0.6202  0.1678
  173SAPI   H9X19654   3.935   2.214   9.411  1.2372  1.8381  2.3543
  173SAPI   H9Y19655   4.013   2.068   9.344 -2.1022  0.7200 -0.5392
  173SAPI  C31019656   4.000   2.232   9.205  0.1538 -0.3399 -0.5890
  173SAPI  H10X19657   4.063   2.318   9.176 -1.3954  1.1580  0.2895
  173SAPI  H10Y19658   3.896   2.270   9.206  1.0417  2.2974 -1.4731
  173SAPI  C31119659   4.018   2.130   9.086  0.7449 -0.4844 -0.0370
  173SAPI  H11X19660   3.954   2.041   9.106  0.5291 -0.5622 -1.0595
  173SAPI  H11Y19661   4.126   2.104   9.078  0.6100 -0.8352 -0.7637
  173SAPI  C31219662   3.996   2.186   8.947  0.1302 -0.1958 -0.5400
  173SAPI  H12X19663   4.054   2.279   8.925 -2.3297  0.8018 -3.4899
  173SAPI  H12Y19664   3.890   2.217   8.939 -0.5383 -2.6793 -2.4534
  173SAPI  C31319665   4.029   2.078   8.846 -0.1977 -0.3092  0.8494
  173SAPI  H13X19666   3.970   1.986   8.866 -1.0901 -0.3166 -1.4861
  173SAPI  H13Y19667   4.138   2.054   8.847 -0.2577 -1.1266 -2.0075
  173SAPI  C31419668   3.981   2.107   8.705  0.6842  0.2958  0.4193
  173SAPI  H14X19669   3.891   2.171   8.715  1.1986  1.1984 -0.5220
  173SAPI  H14Y19670   3.953   2.015   8.649  1.1081  0.2063  0.3483
  173SAPI  C31519671   4.087   2.184   8.617  0.4693 -0.3932  0.5553
  173SAPI  H15X19672   4.159   2.231   8.687 -0.6184 -2.3916  3.1403
  173SAPI  H15Y19673   4.032   2.269   8.570 -0.2025 -0.5919  0.9654
  173SAPI  C31619674   4.150   2.097   8.510  0.5194  1.0532 -0.2250
  173SAPI  H16X19675   4.167   2.000   8.559  4.8425  0.4035 -2.4563
  173SAPI  H16Y19676   4.257   2.116   8.486  0.5408  1.7457  0.3625
  173SAPI  C31719677   4.070   2.098   8.381  0.2066 -0.4653  0.2048
  173SAPI  H17X19678   4.078   2.200   8.338 -1.2282 -0.2919  0.2844
  173SAPI  H17Y19679   3.963   2.072   8.399  0.4705 -2.9612 -1.3416
  173SAPI  C31819680   4.127   1.996   8.277 -0.0774 -0.4126 -0.4523
  173SAPI  H18X19681   4.230   2.032   8.259  0.5517 -1.7059  0.4216
  173SAPI  H18Y19682   4.062   2.001   8.187  0.1811  1.6838 -0.5840
  173SAPI  H18Z19683   4.127   1.891   8.313  0.1494 -0.2023  0.1689
  174SAPI   C1219684   0.783   2.146  10.498 -0.0838 -0.5561 -0.5848
  174SAPI    H219685   0.768   2.037  10.484  1.7459 -0.8790 -0.3235
  174SAPI    O219686   0.729   2.213  10.388  0.1892  0.5673  0.4399
  174SAPI   HO219687   0.746   2.170  10.303  0.2277  3.5996 -1.2333
  174SAPI   C1319688   0.711   2.190  10.629  0.2928  0.7517  0.1636
  174SAPI    H319689   0.722   2.100  10.693  0.3353 -0.2073 -1.1619
  174SAPI    O319690   0.565   2.200  10.611 -0.1871  0.3590 -0.1488
  174SAPI   HO319691   0.544   2.260  10.538 -1.3541 -0.1614 -0.2663
  174SAPI   C1419692   0.769   2.320  10.693  0.1702  0.0279  0.0568
  174SAPI    H419693   0.704   2.402  10.655  1.3582  2.4120  2.8191
  174SAPI    O419694   0.749   2.314  10.833 -0.5296  0.9493  0.1269
  174SAPI   HO419695   0.671   2.365  10.858  1.1700  3.8842 -0.1240
  174SAPI   C1519696   0.905   2.367  10.655  1.1977  0.4410 -0.8177
  174SAPI    H519697   0.966   2.324  10.738 -0.1486  1.0783  0.5551
  174SAPI    O519698   0.918   2.505  10.659 -0.4861 -0.7396  0.2520
  174SAPI   HO519699   0.952   2.539  10.576 -1.0632 -0.2749  0.1921
  174SAPI   C1619700   0.968   2.303  10.534 -0.1555  0.2277  0.1868
  174SAPI    H619701   0.942   2.368  10.448  1.5498  0.5974 -0.0888
  174SAPI    O619702   1.108   2.307  10.548 -0.7095  0.1765 -0.3885
  174SAPI   HO619703   1.151   2.352  10.474 -1.4721  0.5428 -0.6134
  174SAPI   C1119704   0.930   2.155  10.509 -0.4104 -0.5337 -0.4559
  174SAPI    H119705   0.962   2.094  10.596 -1.6421 -1.3414 -0.5412
  174SAPI     P19706   1.077   1.956  10.395  0.5069  0.0927 -0.2918
  174SAPI   O1319707   1.095   1.914  10.535  0.1131  0.4825 -0.0968
  174SAPI   O1419708   1.197   1.970  10.323  0.2556  0.3104 -0.0638
  174SAPI   O1219709   0.995   2.101  10.389  0.4878 -0.0126 -0.1993
  174SAPI   O1119710   0.978   1.862  10.322 -0.0714 -0.5063  0.5093
  174SAPI    C119711   1.040   1.764  10.237 -0.3584 -0.0670 -0.3549
  174SAPI    HA19712   1.069   1.817  10.143 -1.4207 -0.4775 -0.9325
  174SAPI    HB19713   1.127   1.717  10.288 -0.7033 -0.3887 -0.0573
  174SAPI    C219714   0.937   1.657  10.196  0.0120  0.0599  0.0635
  174SAPI    HS19715   0.903   1.592  10.280  0.5299 -1.3024 -0.7516
  174SAPI   O2119716   0.992   1.569  10.103 -0.0831  0.7701  0.1047
  174SAPI   C2119717   1.097   1.491  10.131 -0.0901  0.7706 -0.4609
  174SAPI   O2219718   1.136   1.469  10.250  0.1943 -0.1156 -0.4883
  174SAPI   C2219719   1.146   1.429   9.996  0.3128 -0.1002 -0.5419
  174SAPI   H2R19720   1.214   1.348  10.032  0.3880  0.5771  0.9252
  174SAPI   H2S19721   1.063   1.384   9.938  1.4411 -1.0142 -1.4965
  174SAPI    C319722   0.817   1.715  10.110  0.3699 -0.2553 -0.0080
  174SAPI    HX19723   0.752   1.758  10.189 -0.5722 -0.0797 -0.8578
  174SAPI    HY19724   0.761   1.639  10.051  0.8014  0.0749 -0.8510
  174SAPI   O3119725   0.870   1.816  10.014 -0.1627  0.0548 -0.5555
  174SAPI   C3119726   0.797   1.921   9.990  0.2304 -0.0523 -0.0258
  174SAPI   O3219727   0.694   1.951  10.048  0.1348  0.0148 -0.0370
  174SAPI   C3219728   0.858   1.997   9.869 -0.3851 -0.8776 -0.9071
  174SAPI   H2X19729   0.937   1.939   9.816  0.5189 -0.4747 -0.0268
  174SAPI   H2Y19730   0.900   2.091   9.910  0.0534 -1.3389 -0.2618
  174SAPI   C2319731   1.225   1.524   9.896 -0.2435 -0.4650 -0.0858
  174SAPI   H3R19732   1.268   1.475   9.807  0.4242  0.8136 -0.4981
  174SAPI   H3S19733   1.314   1.570   9.945  1.4273 -0.9844 -2.4700
  174SAPI   C2419734   1.136   1.639   9.848 -0.0285  0.0235  0.5430
  174SAPI   H4R19735   1.113   1.703   9.936 -0.0109  0.7678  0.0160
  174SAPI   H4S19736   1.038   1.592   9.829 -0.3954 -0.1483  2.6558
  174SAPI   C2519737   1.172   1.718   9.721  0.2388  0.0067  0.5332
  174SAPI   H5R19738   1.206   1.820   9.744 -0.3235  0.3928 -0.3148
  174SAPI   C2619739   1.162   1.695   9.589 -0.1292  0.1637 -0.1404
  174SAPI   H6R19740   1.190   1.771   9.516  1.5543 -0.9138 -0.6774
  174SAPI   C2719741   1.125   1.560   9.535  0.1437  0.2487  0.1521
  174SAPI   H7R19742   1.121   1.479   9.611  1.7044 -2.4760 -2.4571
  174SAPI   H7S19743   1.201   1.518   9.465 -1.1362  0.1698 -1.2304
  174SAPI   C2819744   0.991   1.579   9.459 -1.0561 -0.5003  0.0403
  174SAPI   H8R19745   0.902   1.595   9.523  0.1420  1.6792  1.2798
  174SAPI   C2919746   0.975   1.597   9.322  0.1275 -0.1573  0.2685
  174SAPI   H9R19747   0.875   1.603   9.277  0.8053  0.3134 -1.2234
  174SAPI  C21019748   1.091   1.588   9.224  0.6911  0.2307 -0.1579
  174SAPI  H10R19749   1.049   1.549   9.129 -1.7790  2.3332 -0.0454
  174SAPI  H10S19750   1.162   1.508   9.252  2.2650  1.6274  0.0399
  174SAPI  C21119751   1.152   1.728   9.194  0.9048 -0.3791  0.6164
  174SAPI  H11R19752   1.207   1.771   9.278 -0.6498  2.4994  0.2993
  174SAPI  C21219753   1.158   1.789   9.073  0.8284 -0.8274 -0.0860
  174SAPI  H12R19754   1.206   1.887   9.065 -0.9146  0.0411 -0.3756
  174SAPI  C21319755   1.098   1.746   8.940 -0.4023  0.3200  0.1745
  174SAPI  H13R19756   0.992   1.719   8.961 -0.2646  0.3944  1.0236
  174SAPI  H13S19757   1.147   1.650   8.910  0.5304  0.8035  0.1029
  174SAPI  C21419758   1.091   1.855   8.828  0.2257  0.3606  0.0145
  174SAPI  H14R19759   1.100   1.962   8.853 -0.2177 -0.0947  2.3714
  174SAPI  C21519760   1.057   1.831   8.698  0.2197 -0.0836 -0.2902
  174SAPI  H15R19761   1.046   1.911   8.624  1.4244 -1.8844 -2.5548
  174SAPI  C21619762   1.031   1.695   8.645 -0.3900  0.1824 -0.1134
  174SAPI  H16R19763   0.934   1.698   8.591 -0.4006  2.3630 -0.0567
  174SAPI  H16S19764   1.030   1.619   8.726  1.9403 -0.5438 -0.6872
  174SAPI  C21719765   1.141   1.633   8.551 -0.0515  0.3754  0.3425
  174SAPI  H17R19766   1.243   1.634   8.595  0.3602  0.2839 -0.5882
  174SAPI  H17S19767   1.155   1.697   8.461  2.0146 -0.3522  0.0788
  174SAPI  C21819768   1.114   1.488   8.511  0.3664  0.2971  0.1523
  174SAPI  H18R19769   1.029   1.490   8.441 -0.6651  1.3442  1.3868
  174SAPI  H18S19770   1.103   1.427   8.604  3.3653  1.3504  1.3144
  174SAPI  C21919771   1.243   1.433   8.445 -0.2614  0.0448 -0.6101
  174SAPI  H19R19772   1.240   1.326   8.417  1.0373 -0.3512  0.6116
  174SAPI  H19S19773   1.322   1.442   8.522 -0.0961 -2.8205 -0.3580
  174SAPI  C22019774   1.288   1.504   8.318  0.6569 -0.5728 -0.2670
  174SAPI  H20R19775   1.221   1.493   8.230  0.9218 -2.1212 -0.3046
  174SAPI  H20S19776   1.378   1.457   8.273  0.0177 -1.4726 -0.6474
  174SAPI  H20T19777   1.309   1.611   8.335  1.2632 -0.6502 -0.5248
  174SAPI   C3319778   0.760   2.024   9.755  0.8965 -0.7791  0.1600
  174SAPI   H3X19779   0.678   2.088   9.794  0.3804 -0.1066 -1.8836
  174SAPI   H3Y19780   0.718   1.935   9.704 -2.5118 -0.0064  1.3112
  174SAPI   C3419781   0.820   2.108   9.649 -0.5603  0.1509  0.4727
  174SAPI   H4X19782   0.866   2.199   9.693 -1.1746  0.9179 -0.4134
  174SAPI   H4Y19783   0.733   2.144   9.589 -1.1933  4.2358  3.4202
  174SAPI   C3519784   0.927   2.041   9.562 -0.8826  0.3799 -0.1817
  174SAPI   H5X19785   0.888   1.953   9.506  0.9994 -1.4728  1.2218
  174SAPI   H5Y19786   1.021   2.025   9.620 -1.5101  1.2265  1.1257
  174SAPI   C3619787   0.973   2.139   9.458 -0.1273  0.0611 -0.0121
  174SAPI   H6X19788   0.990   2.237   9.509 -0.4557  0.1760 -0.1234
  174SAPI   H6Y19789   0.896   2.153   9.379 -0.7328 -1.2272  0.3322
  174SAPI   C3719790   1.107   2.114   9.390 -0.1646 -0.1112 -0.1773
  174SAPI   H7X19791   1.102   2.016   9.337  2.2379  0.5509 -1.8321
  174SAPI   H7Y19792   1.187   2.109   9.467  0.3620  3.3125 -0.3654
  174SAPI   C3819793   1.129   2.231   9.293 -0.8003  0.2856 -0.7036
  174SAPI   H8X19794   1.091   2.318   9.350  2.2426  0.1811  1.7488
  174SAPI   H8Y19795   1.062   2.220   9.205  0.4066  0.0626 -1.6204
  174SAPI   C3919796   1.280   2.267   9.266 -0.4513 -0.2008  0.6818
  174SAPI   H9X19797   1.328   2.170   9.241  0.0979  0.1270  0.4571
  174SAPI   H9Y19798   1.320   2.305   9.363  0.3322  0.2724  0.1761
  174SAPI  C31019799   1.296   2.377   9.160  0.1487  0.2911 -0.4795
  174SAPI  H10X19800   1.242   2.470   9.188  0.5911  0.1204  1.0384
  174SAPI  H10Y19801   1.256   2.347   9.061  0.9877  3.1665 -1.8025
  174SAPI  C31119802   1.450   2.399   9.131  0.2104  0.4647  0.9429
  174SAPI  H11X19803   1.509   2.308   9.107 -3.0024 -1.1041 -1.8924
  174SAPI  H11Y19804   1.491   2.447   9.223  0.5284  0.0028  1.0491
  174SAPI  C31219805   1.468   2.499   9.014 -0.7830 -0.2488  0.0077
  174SAPI  H12X19806   1.570   2.544   9.022 -1.9082  2.2265  4.4905
  174SAPI  H12Y19807   1.392   2.581   9.012  1.1994  1.7073  0.4508
  174SAPI  C31319808   1.451   2.432   8.870  0.7957  0.2081 -0.1166
  174SAPI  H13X19809   1.478   2.501   8.787  0.0383 -1.2277 -1.5838
  174SAPI  H13Y19810   1.341   2.429   8.857  0.6086 -0.1025  1.3292
  174SAPI  C31419811   1.518   2.291   8.858 -0.0192  0.0134  0.7676
  174SAPI  H14X19812   1.467   2.222   8.929 -0.8367  0.4421  0.6064
  174SAPI  H14Y19813   1.625   2.288   8.889 -0.1527  1.5722  1.4871
  174SAPI  C31519814   1.502   2.230   8.711 -0.4531 -0.4628 -0.1711
  174SAPI  H15X19815   1.579   2.150   8.708 -0.4230 -0.4234 -0.4131
  174SAPI  H15Y19816   1.517   2.304   8.630  0.3221 -1.9165 -1.4310
  174SAPI  C31619817   1.367   2.162   8.679  0.2656 -0.3401  0.0530
  174SAPI  H16X19818   1.302   2.252   8.680 -0.2442 -0.6965 -0.4930
  174SAPI  H16Y19819   1.350   2.097   8.768  1.0567 -1.4557 -0.5791
  174SAPI  C31719820   1.365   2.077   8.552 -1.1016  0.1917  0.3587
  174SAPI  H17X19821   1.361   2.153   8.472 -2.9382  0.2222  0.4288
  174SAPI  H17Y19822   1.270   2.021   8.538 -0.8239 -0.1236 -0.3045
  174SAPI  C31819823   1.489   1.991   8.540 -0.3498 -0.2281 -0.2422
  174SAPI  H18X19824   1.571   2.059   8.506  1.9184 -2.5001  0.3998
  174SAPI  H18Y19825   1.475   1.913   8.463  0.5437 -0.6511  0.0113
  174SAPI  H18Z19826   1.511   1.949   8.641 -0.5931  1.7249  0.6792
  175SAPI   C1219827   0.625   2.118   6.301 -0.0211  0.8089 -0.0121
  175SAPI    H219828   0.716   2.099   6.362 -0.0397 -2.9355 -0.9704
  175SAPI    O219829   0.564   1.990   6.270 -0.3603 -0.0410 -0.4855
  175SAPI   HO219830   0.630   1.936   6.227  1.0540  3.0428 -2.5388
  175SAPI   C1319831   0.527   2.190   6.391  0.2902  0.5234 -0.1393
  175SAPI    H319832   0.570   2.285   6.429 -0.0876  1.4723 -1.9777
  175SAPI    O319833   0.502   2.111   6.510  0.0706  0.0860  0.5190
  175SAPI   HO319834   0.488   2.019   6.487  1.4852 -0.8382  2.9468
  175SAPI   C1419835   0.407   2.241   6.316 -0.1511 -0.2910 -0.3551
  175SAPI    H419836   0.336   2.156   6.303 -1.1471  0.6062 -0.9387
  175SAPI    O419837   0.350   2.345   6.397  0.5444  0.1229 -0.3329
  175SAPI   HO419838   0.269   2.307   6.432  0.9035 -0.0469  0.3241
  175SAPI   C1519839   0.433   2.289   6.173  0.6269  0.2167  0.0167
  175SAPI    H519840   0.458   2.397   6.174  0.8586  0.1901  1.9963
  175SAPI    O519841   0.312   2.273   6.088 -0.4880 -0.3137 -0.3647
  175SAPI   HO519842   0.245   2.332   6.123  1.2023  1.9682 -0.7007
  175SAPI   C1619843   0.543   2.229   6.093 -0.4914 -0.1423  0.2921
  175SAPI    H619844   0.511   2.133   6.047 -1.4740 -0.1383  0.9445
  175SAPI    O619845   0.575   2.314   5.979 -0.1289 -0.0825 -0.0350
  175SAPI   HO619846   0.539   2.401   6.000 -1.6171 -0.7749  0.4738
  175SAPI   C1119847   0.669   2.191   6.174 -0.2968 -0.5280  0.4499
  175SAPI    H119848   0.711   2.292   6.193  0.5445 -0.5150 -1.2374
  175SAPI     P19849   0.925   2.150   6.126 -0.0319 -0.0750  0.2435
  175SAPI   O1319850   0.943   2.281   6.196 -0.1869 -0.0667 -0.2105
  175SAPI   O1419851   1.002   2.118   5.999  0.0959 -0.1277 -0.0905
  175SAPI   O1219852   0.764   2.106   6.105 -0.2939  0.2596  0.0129
  175SAPI   O1119853   0.976   2.039   6.227 -0.4519  0.0106 -0.0073
  175SAPI    C119854   0.946   1.901   6.213 -0.1920 -0.1441 -0.1690
  175SAPI    HA19855   0.838   1.881   6.233 -0.4353  0.2174 -1.0910
  175SAPI    HB19856   0.984   1.870   6.113  3.7069  2.5256  0.2782
  175SAPI    C219857   1.027   1.809   6.314 -0.0793 -0.1790 -0.2318
  175SAPI    HS19858   0.976   1.711   6.320 -0.5400  0.0580 -0.2374
  175SAPI   O2119859   1.033   1.878   6.445  0.3607 -0.5461 -0.1876
  175SAPI   C2119860   0.913   1.877   6.500  0.3090 -0.3663  0.1691
  175SAPI   O2219861   0.814   1.818   6.458  0.3292 -0.8584  0.7890
  175SAPI   C2219862   0.912   1.952   6.633  0.0091 -0.4257  0.9397
  175SAPI   H2R19863   0.917   1.882   6.719 -0.1309 -0.1814  1.1512
  175SAPI   H2S19864   1.002   2.017   6.628 -1.4585  1.6534 -3.0297
  175SAPI    C319865   1.163   1.784   6.256 -0.5093 -0.3267 -0.4257
  175SAPI    HX19866   1.212   1.878   6.223  0.3466 -0.0693  1.4826
  175SAPI    HY19867   1.155   1.732   6.158 -0.3869 -2.0767  0.4538
  175SAPI   O3119868   1.245   1.707   6.346 -0.3087 -0.0352  0.2717
  175SAPI   C3119869   1.328   1.782   6.422  0.0161 -0.0127 -0.6706
  175SAPI   O3219870   1.335   1.904   6.429 -0.0634 -0.2393  0.0874
  175SAPI   C3219871   1.408   1.688   6.513 -0.1161 -0.1648 -0.2326
  175SAPI   H2X19872   1.518   1.693   6.498  0.0707 -1.4061  0.6003
  175SAPI   H2Y19873   1.389   1.586   6.473 -1.1484 -0.3322  0.6315
  175SAPI   C2319874   0.783   2.032   6.656  0.4354 -0.2333  0.0870
  175SAPI   H3R19875   0.688   1.976   6.640  0.4137 -0.0224 -0.5655
  175SAPI   H3S19876   0.775   2.120   6.588  0.4759  1.5841  2.3008
  175SAPI   C2419877   0.778   2.084   6.799  0.1779  0.7394  0.6740
  175SAPI   H4R19878   0.773   1.989   6.857  1.1010 -1.2955 -2.3379
  175SAPI   H4S19879   0.679   2.135   6.806  1.2407  2.9697  0.0731
  175SAPI   C2519880   0.899   2.173   6.836 -0.0677 -0.5016  0.4944
  175SAPI   H5R19881   0.873   2.279   6.818  0.4067 -0.1079  1.9699
  175SAPI   C2619882   1.004   2.143   6.913 -0.3710 -0.0471  0.1136
  175SAPI   H6R19883   1.089   2.211   6.931 -0.7127  0.2059  0.7936
  175SAPI   C2719884   1.041   2.014   6.971 -1.0701 -0.4135 -0.1589
  175SAPI   H7R19885   0.977   1.929   6.938 -3.2775  1.3176 -0.5700
  175SAPI   H7S19886   1.031   2.023   7.082 -0.9502  1.6679 -0.2861
  175SAPI   C2819887   1.189   1.974   6.957 -0.2707 -0.3285  0.2564
  175SAPI   H8R19888   1.222   1.970   6.852  1.4880  0.3026  0.7472
  175SAPI   C2919889   1.288   1.957   7.042 -0.0468  0.1192 -0.1673
  175SAPI   H9R19890   1.381   1.914   7.004 -2.2973 -3.6822 -1.9886
  175SAPI  C21019891   1.276   1.965   7.194 -0.1578  0.3019 -0.4960
  175SAPI  H10R19892   1.308   1.867   7.234 -1.6003 -0.0453 -0.1396
  175SAPI  H10S19893   1.171   1.965   7.228 -0.6898 -3.0361 -1.8509
  175SAPI  C21119894   1.352   2.075   7.252  0.2266 -0.1723 -0.5213
  175SAPI  H11R19895   1.362   2.172   7.200 -0.3476  0.4740  0.5342
  175SAPI  C21219896   1.427   2.060   7.361 -0.2416 -0.0943 -0.0176
  175SAPI  H12R19897   1.488   2.149   7.385  0.4553 -0.7660  0.7538
  175SAPI  C21319898   1.440   1.939   7.452  0.4084 -0.8249 -0.3409
  175SAPI  H13R19899   1.522   1.974   7.519 -1.1454  1.3302  0.5634
  175SAPI  H13S19900   1.487   1.857   7.394  1.6051 -1.2735  1.1949
  175SAPI  C21419901   1.318   1.890   7.525  0.2507 -0.0161 -0.4956
  175SAPI  H14R19902   1.226   1.896   7.465 -0.5661 -3.4596  0.2119
  175SAPI  C21519903   1.310   1.840   7.650 -0.2855  0.5753  0.9284
  175SAPI  H15R19904   1.216   1.811   7.699 -0.4293  2.4369  1.8519
  175SAPI  C21619905   1.422   1.828   7.749  0.5727  0.0187 -0.5984
  175SAPI  H16R19906   1.384   1.856   7.850 -1.1120  0.8773 -1.4455
  175SAPI  H16S19907   1.503   1.905   7.746  1.1701 -0.6171 -1.2603
  175SAPI  C21719908   1.473   1.678   7.765 -0.0225 -0.1544 -0.3573
  175SAPI  H17R19909   1.523   1.653   7.669  0.3053  1.1946 -0.5608
  175SAPI  H17S19910   1.384   1.611   7.774  1.5171 -2.3356 -0.5892
  175SAPI  C21819911   1.562   1.653   7.885  0.0121 -0.2775 -0.7496
  175SAPI  H18R19912   1.657   1.708   7.892 -1.1033  1.7448 -0.8798
  175SAPI  H18S19913   1.595   1.547   7.882  2.2611  0.3695 -0.3985
  175SAPI  C21919914   1.494   1.677   8.022 -0.6352 -0.3797 -0.1456
  175SAPI  H19R19915   1.397   1.623   8.021 -1.1229  0.4532 -2.4350
  175SAPI  H19S19916   1.471   1.785   8.035  0.2140  0.0768 -2.1535
  175SAPI  C22019917   1.575   1.620   8.139  0.2883  0.0468 -0.0885
  175SAPI  H20R19918   1.673   1.672   8.147 -0.9100  2.3000  0.7840
  175SAPI  H20S19919   1.589   1.510   8.137  1.4519  0.1363  1.6616
  175SAPI  H20T19920   1.520   1.648   8.231 -2.3389 -1.6635 -1.0264
  175SAPI   C3319921   1.382   1.682   6.666  0.1778 -0.6686 -0.2360
  175SAPI   H3X19922   1.276   1.658   6.689 -0.3386  1.4583 -0.2345
  175SAPI   H3Y19923   1.400   1.788   6.694 -0.0497 -0.4652 -0.8349
  175SAPI   C3419924   1.481   1.581   6.720  0.9816  0.2680 -0.3920
  175SAPI   H4X19925   1.587   1.613   6.716  0.6116  1.4119 -1.3898
  175SAPI   H4Y19926   1.479   1.485   6.663  1.8493  1.6446 -2.8799
  175SAPI   C3519927   1.451   1.549   6.871  0.8397 -0.0735  0.1378
  175SAPI   H5X19928   1.344   1.523   6.886  0.8735 -0.8929 -0.9315
  175SAPI   H5Y19929   1.477   1.644   6.923 -1.6069  1.1380 -0.6761
  175SAPI   C3619930   1.544   1.434   6.918  0.2581  0.2330  0.2684
  175SAPI   H6X19931   1.647   1.475   6.920  1.0763 -1.3894  4.8026
  175SAPI   H6Y19932   1.537   1.343   6.854 -1.9464 -1.6173  2.9282
  175SAPI   C3719933   1.519   1.396   7.067 -0.0874 -0.2049  0.2633
  175SAPI   H7X19934   1.436   1.324   7.080 -0.7252  0.7303  1.4979
  175SAPI   H7Y19935   1.500   1.491   7.121  1.8371 -0.2538  1.1092
  175SAPI   C3819936   1.641   1.327   7.123 -1.0080  0.6399 -0.0507
  175SAPI   H8X19937   1.732   1.387   7.104 -1.0782  0.1212 -2.3254
  175SAPI   H8Y19938   1.651   1.226   7.077 -0.8805  0.2617  0.7896
  175SAPI   C3919939   1.640   1.313   7.280 -0.2439 -0.1254 -0.0183
  175SAPI   H9X19940   1.543   1.261   7.295 -0.6392  0.7558  0.5610
  175SAPI   H9Y19941   1.626   1.413   7.328 -1.6256  0.7848 -2.1526
  175SAPI  C31019942   1.748   1.223   7.337 -0.3660  0.1953  0.1890
  175SAPI  H10X19943   1.836   1.283   7.305 -0.4580  0.1865 -0.0888
  175SAPI  H10Y19944   1.765   1.134   7.272  1.6321  0.4795  0.2578
  175SAPI  C31119945   1.756   1.196   7.486 -0.0759  0.0286 -0.7779
  175SAPI  H11X19946   1.688   1.115   7.518 -2.6500  2.0246 -0.8820
  175SAPI  H11Y19947   1.726   1.281   7.551 -2.5618 -1.1565 -0.2844
  175SAPI  C31219948   1.903   1.150   7.529 -0.2121  0.0084 -0.2213
  175SAPI  H12X19949   1.970   1.237   7.513 -2.2553  1.3964 -1.7251
  175SAPI  H12Y19950   1.935   1.056   7.478 -0.4296 -0.0937 -0.1695
  175SAPI  C31319951   1.892   1.115   7.679 -0.4676  0.2198 -0.0823
  175SAPI  H13X19952   1.829   1.027   7.706 -2.4259  0.5833 -2.9950
  175SAPI  H13Y19953   1.830   1.192   7.729 -2.4439 -0.7817 -0.8525
  175SAPI  C31419954   2.030   1.106   7.748 -0.1601 -0.8022 -0.1502
  175SAPI  H14X19955   2.006   1.081   7.854 -2.0459  1.8198  0.1307
  175SAPI  H14Y19956   2.087   1.201   7.749  1.0962 -1.5221 -0.8509
  175SAPI  C31519957   2.116   0.994   7.689  0.6493  0.9031 -0.0047
  175SAPI  H15X19958   2.138   1.024   7.585 -0.2896 -0.4253 -0.6196
  175SAPI  H15Y19959   2.053   0.903   7.684 -0.3312  1.5524  0.2817
  175SAPI  C31619960   2.238   0.973   7.776 -0.9759  0.1311 -0.1139
  175SAPI  H16X19961   2.318   1.050   7.769 -1.4768  0.8002  1.0828
  175SAPI  H16Y19962   2.273   0.875   7.738  0.8382  1.2150 -1.3809
  175SAPI  C31719963   2.204   0.961   7.925 -0.3466  1.1494 -0.7130
  175SAPI  H17X19964   2.121   0.886   7.919 -0.1664  1.0163 -1.6799
  175SAPI  H17Y19965   2.176   1.055   7.977  1.0674  0.8400  0.6951
  175SAPI  C31819966   2.313   0.892   8.003  0.4353  0.1058  0.2089
  175SAPI  H18X19967   2.308   0.911   8.112  1.2697  2.9633 -0.1708
  175SAPI  H18Y19968   2.412   0.932   7.971  1.0433 -0.0319  1.8433
  175SAPI  H18Z19969   2.317   0.785   7.971 -2.1891 -0.2787  0.9705
  176SAPI   C1219970   2.401   0.796   5.810 -0.1488 -0.1388 -0.6729
  176SAPI    H219971   2.491   0.836   5.759 -0.8574  2.2516 -0.2043
  176SAPI    O219972   2.290   0.875   5.778 -0.2247 -0.2870 -0.0906
  176SAPI   HO219973   2.317   0.966   5.792  0.1650 -0.3113 -0.6654
  176SAPI   C1319974   2.384   0.652   5.768 -0.2387  0.1178 -0.1421
  176SAPI    H319975   2.476   0.600   5.802  0.2879 -0.3509 -2.1416
  176SAPI    O319976   2.376   0.633   5.629 -0.8561 -0.0023 -0.1648
  176SAPI   HO319977   2.322   0.703   5.592  0.2407  1.4794  0.9416
  176SAPI   C1419978   2.271   0.595   5.845  0.5042  0.5661  0.5398
  176SAPI    H419979   2.176   0.639   5.808 -0.7795 -1.0833  1.6996
  176SAPI    O419980   2.267   0.457   5.827 -0.0094  0.4923 -0.3617
  176SAPI   HO419981   2.175   0.428   5.820 -0.6310  1.6085  2.1678
  176SAPI   C1519982   2.266   0.618   5.998 -0.8222 -0.3864 -0.5665
  176SAPI    H519983   2.344   0.550   6.038 -1.1903 -0.8673 -0.6538
  176SAPI    O519984   2.140   0.583   6.059  0.2408  0.0854 -0.9233
  176SAPI   HO519985   2.158   0.529   6.136  1.0743 -0.5339 -1.5340
  176SAPI   C1619986   2.319   0.757   6.042 -0.9428 -0.4417 -0.1341
  176SAPI    H619987   2.226   0.818   6.030 -0.0790  0.9040 -0.2307
  176SAPI    O619988   2.354   0.756   6.180 -0.6694 -0.6267  0.2573
  176SAPI   HO619989   2.292   0.808   6.231  1.4503  1.0131  1.3535
  176SAPI   C1119990   2.430   0.814   5.954  0.7366  0.6311 -0.2891
  176SAPI    H119991   2.518   0.753   5.986 -1.4414 -2.3073  0.4684
  176SAPI     P19992   2.594   1.019   6.027 -0.5866  0.1189 -0.1870
  176SAPI   O1319993   2.591   1.168   6.001  0.1442  0.2712  0.3707
  176SAPI   O1419994   2.700   0.942   5.956 -0.1909  0.0080  0.1009
  176SAPI   O1219995   2.450   0.953   5.988 -0.0625  0.1508 -0.7346
  176SAPI   O1119996   2.613   1.005   6.183  0.4890 -0.3428 -0.0853
  176SAPI    C119997   2.503   1.047   6.264 -0.1397 -0.0351 -0.0441
  176SAPI    HA19998   2.470   1.148   6.232 -0.0408  0.2531  0.7325
  176SAPI    HB19999   2.413   0.990   6.232 -0.7149  0.4659  0.6425
  176SAPI    C220000   2.529   1.057   6.420 -0.4405  0.4665 -0.2049
  176SAPI    HS20001   2.525   1.162   6.456 -1.6329  1.0262 -1.8675
  176SAPI   O2120002   2.658   0.998   6.446 -0.1155  0.3046  0.5046
  176SAPI   C2120003   2.757   1.086   6.431  0.2364  0.5489  0.2208
  176SAPI   O2220004   2.750   1.190   6.366  0.1061 -0.1412 -0.2348
  176SAPI   C2220005   2.865   1.049   6.531 -0.3946  0.3886 -0.0295
  176SAPI   H2R20006   2.815   0.998   6.616 -0.1988 -0.9549 -0.6828
  176SAPI   H2S20007   2.930   0.971   6.484  0.1085  1.5830 -1.3972
  176SAPI    C320008   2.415   0.988   6.509 -0.1061  0.0962  0.0051
  176SAPI    HX20009   2.407   0.885   6.470 -0.5881  0.1487 -0.0319
  176SAPI    HY20010   2.327   1.048   6.477 -1.1128 -0.5773  1.4142
  176SAPI   O3120011   2.442   1.009   6.649  0.6708 -0.3212 -0.2680
  176SAPI   C3120012   2.494   0.912   6.715  0.3583  0.5437  0.4778
  176SAPI   O3220013   2.512   0.802   6.665  0.3040 -0.0820  0.0469
  176SAPI   C3220014   2.505   0.955   6.862  0.2599  0.0634  0.0028
  176SAPI   H2X20015   2.507   0.865   6.927 -0.1322  0.7947  1.0510
  176SAPI   H2Y20016   2.409   1.005   6.887  0.3555  0.1091  0.2818
  176SAPI   C2320017   2.962   1.165   6.576  0.5824  0.0598 -0.7974
  176SAPI   H3R20018   2.914   1.244   6.638  0.3156  0.1024 -1.0575
  176SAPI   H3S20019   3.010   1.211   6.487  2.0861 -1.2216 -0.7013
  176SAPI   C2420020   3.087   1.114   6.642 -0.3203 -0.2559 -1.0524
  176SAPI   H4R20021   3.157   1.200   6.652 -0.6458 -0.1370  0.6271
  176SAPI   H4S20022   3.136   1.037   6.579 -0.1869 -1.5867  0.6071
  176SAPI   C2520023   3.058   1.049   6.773  0.0901  0.3480  0.3913
  176SAPI   H5R20024   3.003   0.955   6.760  0.4820  0.3237 -1.3836
  176SAPI   C2620025   3.097   1.090   6.897 -0.4094  0.2345  0.1893
  176SAPI   H6R20026   3.063   1.031   6.983 -0.6099 -0.0744 -0.1019
  176SAPI   C2720027   3.182   1.214   6.909 -0.4813 -0.1245 -0.2241
  176SAPI   H7R20028   3.261   1.203   6.832  0.0789  0.6681  0.2216
  176SAPI   H7S20029   3.243   1.210   7.002  1.8796  0.6095 -1.6715
  176SAPI   C2820030   3.121   1.353   6.909  0.0535  1.2038  0.2489
  176SAPI   H8R20031   3.033   1.367   6.973 -0.0303  1.2873  0.1161
  176SAPI   C2920032   3.164   1.462   6.840  0.2098 -0.1198  0.2549
  176SAPI   H9R20033   3.107   1.556   6.843 -1.6797 -1.1907 -0.5549
  176SAPI  C21020034   3.286   1.462   6.747  0.3573 -0.2146  0.0667
  176SAPI  H10R20035   3.319   1.358   6.724  2.8036  0.5621 -0.2927
  176SAPI  H10S20036   3.379   1.506   6.789 -0.3293  0.7730  0.5706
  176SAPI  C21120037   3.249   1.516   6.612  0.0319  0.1100 -1.3132
  176SAPI  H11R20038   3.193   1.441   6.555 -1.4558  1.0116 -1.0914
  176SAPI  C21220039   3.290   1.628   6.552 -0.5928  0.3626  0.2141
  176SAPI  H12R20040   3.238   1.662   6.461  1.1513 -1.0462 -1.3670
  176SAPI  C21320041   3.381   1.737   6.604  0.2688 -0.7501 -0.6285
  176SAPI  H13R20042   3.487   1.726   6.572  0.6319 -0.5539  0.4696
  176SAPI  H13S20043   3.382   1.713   6.713 -1.1616  0.1106 -0.3999
  176SAPI  C21420044   3.329   1.874   6.588  0.0984 -0.1413  0.2618
  176SAPI  H14R20045   3.351   1.931   6.497 -1.5289 -1.9117 -1.3082
  176SAPI  C21520046   3.240   1.931   6.676 -0.0895 -0.8323 -0.1840
  176SAPI  H15R20047   3.208   2.035   6.659  1.7747  0.3024  2.4211
  176SAPI  C21620048   3.183   1.860   6.801 -0.4641 -0.0148 -0.9548
  176SAPI  H16R20049   3.194   1.750   6.799 -1.1733 -0.0818 -1.6592
  176SAPI  H16S20050   3.076   1.888   6.806 -0.0984  1.6706 -1.6618
  176SAPI  C21720051   3.262   1.924   6.922  0.3893 -0.1928  0.2924
  176SAPI  H17R20052   3.200   2.005   6.967  0.6060 -0.2759  0.7491
  176SAPI  H17S20053   3.367   1.951   6.898  0.8095 -0.4724  1.7027
  176SAPI  C21820054   3.273   1.829   7.041  0.1692 -0.2425  0.2773
  176SAPI  H18R20055   3.350   1.757   7.008  0.3109 -0.2952  0.7154
  176SAPI  H18S20056   3.182   1.768   7.053  0.6795 -0.5383  3.8550
  176SAPI  C21920057   3.333   1.886   7.176  0.3987  0.2093  0.0868
  176SAPI  H19R20058   3.359   1.809   7.252 -1.5712 -2.0646 -1.4136
  176SAPI  H19S20059   3.243   1.940   7.212  1.6121  2.4293 -0.0327
  176SAPI  C22020060   3.454   1.973   7.164 -0.2777 -0.2133  0.4794
  176SAPI  H20R20061   3.532   1.934   7.094 -0.7511  0.8865 -0.6928
  176SAPI  H20S20062   3.493   1.999   7.264 -0.4811 -3.1263  1.4116
  176SAPI  H20T20063   3.415   2.072   7.134  1.5840  0.5973  0.5853
  176SAPI   C3320064   2.621   1.055   6.886  0.3244 -0.1356  0.2044
  176SAPI   H3X20065   2.613   1.142   6.817  0.5287  0.7005  1.2075
  176SAPI   H3Y20066   2.720   1.011   6.860  0.4193  0.6864 -0.9559
  176SAPI   C3420067   2.623   1.105   7.028  0.4040 -0.1162  0.0326
  176SAPI   H4X20068   2.611   1.018   7.096 -2.1197 -0.1566 -0.3688
  176SAPI   H4Y20069   2.541   1.178   7.045 -0.7918 -1.7956  2.0800
  176SAPI   C3520070   2.760   1.166   7.054  0.7724  0.4294 -0.1225
  176SAPI   H5X20071   2.767   1.262   6.998  0.8402  0.4429 -0.0919
  176SAPI   H5Y20072   2.848   1.105   7.024  0.4062  0.2362 -0.8253
  176SAPI   C3620073   2.771   1.215   7.199  0.0543  0.0748 -0.4100
  176SAPI   H6X20074   2.810   1.138   7.269 -0.8522 -1.4566 -1.5255
  176SAPI   H6Y20075   2.666   1.240   7.226  1.0997  4.3494  0.4464
  176SAPI   C3720076   2.844   1.345   7.216  0.2700 -0.3218  0.0231
  176SAPI   H7X20077   2.781   1.424   7.170 -0.4524 -1.4574 -0.9872
  176SAPI   H7Y20078   2.945   1.339   7.170 -0.4694 -1.1209 -1.5748
  176SAPI   C3820079   2.864   1.398   7.363 -0.4807 -0.1364 -0.5032
  176SAPI   H8X20080   2.766   1.396   7.416  0.7191 -1.4178  1.8536
  176SAPI   H8Y20081   2.911   1.498   7.367  0.5242 -0.6319  2.3839
  176SAPI   C3920082   2.955   1.299   7.451  0.1314 -0.3894 -0.2610
  176SAPI   H9X20083   3.048   1.278   7.395 -0.0448 -2.0026 -0.0151
  176SAPI   H9Y20084   2.897   1.206   7.470  0.2000  0.0431  2.4094
  176SAPI  C31020085   2.984   1.372   7.582  1.4165 -0.0447 -0.3490
  176SAPI  H10X20086   2.888   1.416   7.618  1.1916 -1.9784  1.6119
  176SAPI  H10Y20087   3.051   1.457   7.560  1.0815 -0.1801 -2.0796
  176SAPI  C31120088   3.047   1.287   7.687 -0.6213 -0.2454  0.6340
  176SAPI  H11X20089   3.157   1.278   7.673 -0.6277 -1.5650  1.2860
  176SAPI  H11Y20090   3.016   1.181   7.679  1.4357 -0.8026 -0.4418
  176SAPI  C31220091   3.019   1.327   7.831 -0.0493 -0.1177 -0.6618
  176SAPI  H12X20092   3.030   1.248   7.909 -1.1034  1.0820  0.7840
  176SAPI  H12Y20093   2.912   1.356   7.837 -0.0314  0.0816 -1.2616
  176SAPI  C31320094   3.111   1.448   7.884  0.1648 -0.3565  0.0910
  176SAPI  H13X20095   3.108   1.528   7.808  0.3104 -0.0485  0.4066
  176SAPI  H13Y20096   3.211   1.399   7.877 -0.1110 -1.6415  3.3385
  176SAPI  C31420097   3.094   1.489   8.035 -0.3893  0.6352  0.0801
  176SAPI  H14X20098   3.181   1.552   8.061 -0.1905 -0.4704  2.3099
  176SAPI  H14Y20099   3.100   1.402   8.104  1.1683  1.3492  0.8859
  176SAPI  C31520100   2.971   1.578   8.060 -0.0837 -0.3171 -0.5745
  176SAPI  H15X20101   2.885   1.507   8.053  0.9978 -1.7012 -0.3186
  176SAPI  H15Y20102   2.971   1.663   7.989  0.3503 -0.3080 -0.5642
  176SAPI  C31620103   2.977   1.635   8.208 -0.0871  0.2091  0.0241
  176SAPI  H16X20104   3.062   1.705   8.218  0.4523 -0.0719 -2.1501
  176SAPI  H16Y20105   2.999   1.557   8.283  1.6349  0.0362 -0.6288
  176SAPI  C31720106   2.850   1.715   8.258  0.0111  0.0822 -0.2285
  176SAPI  H17X20107   2.758   1.654   8.245  0.4885 -0.4560 -1.3019
  176SAPI  H17Y20108   2.832   1.802   8.192 -1.6477 -0.5148 -0.6029
  176SAPI  C31820109   2.873   1.749   8.405  0.4700  0.5198  0.1208
  176SAPI  H18X20110   2.805   1.824   8.448  0.0848 -1.1169  2.5825
  176SAPI  H18Y20111   2.975   1.788   8.425  0.3331  2.0041 -1.7875
  176SAPI  H18Z20112   2.864   1.660   8.471  2.6982  0.2528  0.1694
  177SLPC     N20113   3.363   3.550  11.577 -0.5101  0.3792  0.3837
  177SLPC   C1320114   3.388   3.451  11.685  0.2897  0.3869  0.2270
  177SLPC  H13A20115   3.342   3.356  11.662 -0.9224  0.4474  2.1400
  177SLPC  H13B20116   3.494   3.431  11.697 -0.1709 -2.4033  0.3334
  177SLPC  H13C20117   3.350   3.485  11.780  1.9012  0.3569  0.9306
  177SLPC   C1420118   3.415   3.491  11.458 -0.4275 -0.2744  0.3878
  177SLPC  H14A20119   3.351   3.426  11.399  0.0109 -0.3819  0.0281
  177SLPC  H14B20120   3.428   3.575  11.392  0.4941 -2.2745 -2.1689
  177SLPC  H14C20121   3.513   3.447  11.470 -0.9086 -1.1671  1.2278
  177SLPC   C1520122   3.444   3.671  11.616  0.2641 -0.1220  0.1980
  177SLPC  H15A20123   3.422   3.694  11.719  0.6622  0.2774  0.2009
  177SLPC  H15B20124   3.550   3.658  11.603  0.1120  0.4708 -2.1073
  177SLPC  H15C20125   3.422   3.767  11.570 -1.0382  0.3533  1.7154
  177SLPC   C1220126   3.215   3.572  11.577 -0.1717 -0.2365  0.5983
  177SLPC  H12A20127   3.189   3.627  11.667 -2.0677 -0.0828  0.0031
  177SLPC  H12B20128   3.164   3.477  11.584 -1.7663  0.3281 -1.8323
  177SLPC   C1120129   3.151   3.648  11.456 -0.3813  0.1162 -0.7016
  177SLPC  H11A20130   3.207   3.739  11.428  1.8347  0.3893  3.7665
  177SLPC  H11B20131   3.051   3.676  11.497 -1.3979 -0.4895 -2.6377
  177SLPC     P20132   3.023   3.455  11.337 -0.6428  0.1234  0.0224
  177SLPC   O1320133   3.087   3.322  11.305  0.1975 -0.0353 -0.0929
  177SLPC   O1420134   2.924   3.456  11.444  0.1269 -0.0252 -0.5255
  177SLPC   O1220135   3.142   3.563  11.341  0.2160  0.0745 -0.1049
  177SLPC   O1120136   2.956   3.500  11.202  0.3046  0.1643 -0.0421
  177SLPC    C120137   2.854   3.419  11.139 -0.2795 -0.1740 -0.4093
  177SLPC    HA20138   2.862   3.311  11.162 -0.6152 -0.1331 -0.0945
  177SLPC    HB20139   2.751   3.460  11.150 -0.5685 -0.6395 -1.2614
  177SLPC    C220140   2.868   3.425  10.981  0.1979 -0.2414  1.1309
  177SLPC    HS20141   2.835   3.521  10.935  0.4668 -0.5934  0.1954
  177SLPC   O2120142   2.788   3.322  10.923  0.1816  0.1225 -0.1031
  177SLPC   C2120143   2.664   3.356  10.903  0.8412 -0.0818  0.2840
  177SLPC   O2220144   2.608   3.459  10.937  0.3181 -0.3113  0.3029
  177SLPC   C2220145   2.601   3.262  10.790 -1.0521  0.0599  0.5901
  177SLPC   H2R20146   2.634   3.294  10.689 -0.7120 -0.4330  0.5388
  177SLPC   H2S20147   2.652   3.163  10.797  0.1294  0.6312  0.4189
  177SLPC    C320148   3.014   3.413  10.939 -0.3082 -0.6912  0.3102
  177SLPC    HX20149   3.043   3.319  10.990  0.7064  0.5494  2.1511
  177SLPC    HY20150   3.086   3.487  10.979 -0.0056 -0.2817 -0.9587
  177SLPC   O3120151   3.031   3.404  10.798  0.4496 -0.4527 -0.1926
  177SLPC   C3120152   3.035   3.521  10.729  0.4275  0.0562 -1.0458
  177SLPC   O3220153   3.022   3.632  10.780  0.1917  0.6029  0.3709
  177SLPC   C3220154   3.073   3.484  10.592  0.9048  0.1806 -0.3126
  177SLPC   H2X20155   2.990   3.426  10.548  0.5649  0.1819  0.3106
  177SLPC   H2Y20156   3.164   3.420  10.601 -0.2773 -1.4589  0.4283
  177SLPC   C2320157   2.446   3.264  10.799  0.5798 -0.1407 -0.3236
  177SLPC   H3R20158   2.417   3.371  10.786  0.2833 -0.1251  0.3796
  177SLPC   H3S20159   2.415   3.233  10.901  0.1676 -3.3401 -1.3164
  177SLPC   C2420160   2.383   3.166  10.702 -0.6773  0.0877 -0.1058
  177SLPC   H4R20161   2.275   3.142  10.718 -0.5642 -0.3416  0.0191
  177SLPC   H4S20162   2.436   3.069  10.717  0.5259  1.0680  2.5870
  177SLPC   C2520163   2.392   3.213  10.560 -0.4852  0.5748 -0.4186
  177SLPC   H5R20164   2.495   3.230  10.524 -1.4291 -0.3069 -3.9586
  177SLPC   H5S20165   2.344   3.313  10.563 -1.5986  0.1278 -1.8646
  177SLPC   C2620166   2.334   3.115  10.453  0.3705 -0.0686 -0.3019
  177SLPC   H6R20167   2.227   3.099  10.475  0.6015  0.0997  1.0633
  177SLPC   H6S20168   2.386   3.020  10.474 -1.2293 -1.1421 -1.0459
  177SLPC   C2720169   2.363   3.175  10.316  0.0464  0.0605 -0.7536
  177SLPC   H7R20170   2.474   3.174  10.309  0.0032  0.5245 -1.6081
  177SLPC   H7S20171   2.326   3.278  10.298  0.5443  0.0681 -1.7662
  177SLPC   C2820172   2.307   3.090  10.203  0.5089  0.0313 -0.6939
  177SLPC   H8R20173   2.308   3.149  10.108 -0.0936  1.9485  0.4354
  177SLPC   H8S20174   2.202   3.055  10.211  0.2067  0.2587 -2.8836
  177SLPC   C2920175   2.387   2.969  10.186  0.3944 -0.5425 -0.3110
  177SLPC   H9R20176   2.380   2.897  10.269  1.8749  1.2428  1.4528
  177SLPC  C21020177   2.455   2.942  10.069  0.2831 -0.4903 -0.8168
  177SLPC  H10R20178   2.515   2.850  10.071 -1.5207 -1.7832 -2.3869
  177SLPC  C21120179   2.479   3.027   9.945 -0.2883  0.2100 -0.8317
  177SLPC  H11R20180   2.506   3.130   9.978  3.6873 -0.5645 -1.2108
  177SLPC  H11S20181   2.563   2.984   9.887  1.6261  1.7704  0.6470
  177SLPC  C21220182   2.358   3.041   9.861  0.1061  0.0475 -0.5271
  177SLPC  H12R20183   2.272   3.086   9.914 -0.7926 -0.3132 -1.6425
  177SLPC  C21320184   2.337   3.023   9.732 -0.2349 -0.3859  0.3934
  177SLPC  H13R20185   2.236   3.026   9.688  0.1860 -2.5233 -0.8363
  177SLPC  C21420186   2.443   2.981   9.630  0.4343  0.1267  0.4497
  177SLPC  H14R20187   2.474   2.878   9.657 -0.4939 -0.6037 -1.1167
  177SLPC  H14S20188   2.530   3.050   9.635  1.6414 -1.2931 -0.0631
  177SLPC  C21520189   2.388   2.991   9.484 -0.5053  0.7079 -0.2499
  177SLPC  H15R20190   2.279   2.973   9.498 -0.3440  1.2961  2.2868
  177SLPC  H15S20191   2.436   2.913   9.421  0.2425 -0.5634  1.8130
  177SLPC  C21620192   2.425   3.130   9.436  0.1124 -0.4381  1.2647
  177SLPC  H16R20193   2.533   3.145   9.452 -0.1122  1.7801  1.0002
  177SLPC  H16S20194   2.371   3.209   9.493 -0.6314 -0.7379  0.9843
  177SLPC  C21720195   2.389   3.144   9.294  1.0619 -0.2009 -0.1617
  177SLPC  H17R20196   2.294   3.089   9.272  0.5134 -0.2663  2.1705
  177SLPC  H17S20197   2.472   3.100   9.234  1.7432 -1.7351  1.8017
  177SLPC  C21820198   2.361   3.293   9.254 -0.4915 -0.0180 -0.3991
  177SLPC  H18R20199   2.335   3.309   9.147 -2.1873  3.6607  0.4127
  177SLPC  H18S20200   2.458   3.345   9.267 -0.9796  1.0951 -1.0655
  177SLPC  H18T20201   2.292   3.346   9.323 -0.9278 -2.0936  0.8525
  177SLPC   C3320202   3.111   3.603  10.499  0.0495  0.0602 -0.2417
  177SLPC   H3X20203   3.191   3.671  10.535 -1.7993  2.5685 -0.6373
  177SLPC   H3Y20204   3.019   3.663  10.482 -0.3169 -0.1034  1.0431
  177SLPC   C3420205   3.167   3.545  10.361  0.4656  0.5833  0.5088
  177SLPC   H4X20206   3.101   3.470  10.312  1.8344 -1.0492  1.0860
  177SLPC   H4Y20207   3.257   3.484  10.382  0.4443  0.8108  1.2693
  177SLPC   C3520208   3.217   3.650  10.268  0.0413 -0.9337  0.2721
  177SLPC   H5X20209   3.278   3.725  10.324  2.2919 -2.2513 -0.2995
  177SLPC   H5Y20210   3.129   3.709  10.233  1.2682  1.3667  0.8012
  177SLPC   C3620211   3.300   3.596  10.144 -0.7215  0.0505 -0.7248
  177SLPC   H6X20212   3.379   3.540  10.198 -0.7717  1.9053  1.4277
  177SLPC   H6Y20213   3.342   3.682  10.088 -0.8487  0.2699 -0.4872
  177SLPC   C3720214   3.225   3.494  10.050  0.6049 -0.1997 -0.4942
  177SLPC   H7X20215   3.144   3.548   9.998  1.8416  2.9544  0.6336
  177SLPC   H7Y20216   3.189   3.412  10.116  2.7344 -1.5851 -0.9417
  177SLPC   C3820217   3.322   3.430   9.946 -1.3343  0.3732  0.2785
  177SLPC   H8X20218   3.267   3.358   9.883 -0.1152  0.1809 -0.6018
  177SLPC   H8Y20219   3.400   3.375  10.004 -1.0258  0.2460 -0.2568
  177SLPC   C3920220   3.388   3.536   9.862 -0.6982  0.1396  0.1289
  177SLPC   H9X20221   3.495   3.545   9.889 -1.8718  1.4374  5.3638
  177SLPC   H9Y20222   3.343   3.637   9.868 -0.0842  0.6183 -2.1678
  177SLPC  C31020223   3.386   3.492   9.713  0.2271 -0.1781  0.8376
  177SLPC  H10X20224   3.281   3.468   9.685 -0.2569  1.5736  1.0264
  177SLPC  H10Y20225   3.453   3.405   9.697  0.7175  0.2896  0.3063
  177SLPC  C31120226   3.443   3.596   9.621 -0.4453  1.1406 -0.1765
  177SLPC  H11X20227   3.545   3.622   9.655  0.0292 -0.8470  0.0912
  177SLPC  H11Y20228   3.371   3.681   9.624 -1.1492  0.6444 -1.6842
  177SLPC  C31220229   3.454   3.550   9.474 -0.0713 -0.1143 -0.2727
  177SLPC  H12X20230   3.360   3.505   9.435 -0.4307  0.2035  0.2268
  177SLPC  H12Y20231   3.544   3.484   9.468  1.8882  2.4662 -1.0793
  177SLPC  C31320232   3.500   3.663   9.384  0.8463  0.0924  0.3399
  177SLPC  H13X20233   3.582   3.716   9.436  0.0640  0.0190  1.7007
  177SLPC  H13Y20234   3.416   3.733   9.365  1.7622  1.1550  0.1374
  177SLPC  C31420235   3.550   3.610   9.247 -0.0524 -0.3748 -0.1724
  177SLPC  H14X20236   3.638   3.548   9.277 -1.6319 -2.0892  1.1570
  177SLPC  H14Y20237   3.576   3.696   9.183 -1.3441  0.0336 -0.1671
  177SLPC  C31520238   3.461   3.507   9.168  0.0912  0.0600 -1.2788
  177SLPC  H15X20239   3.359   3.548   9.153 -0.2498 -0.9054 -1.6947
  177SLPC  H15Y20240   3.457   3.418   9.236 -0.3831  1.5523  0.7353
  177SLPC  C31620241   3.527   3.458   9.041 -0.8838  1.0009  0.4003
  177SLPC  H16X20242   3.632   3.433   9.067 -1.0741  1.1025  1.2978
  177SLPC  H16Y20243   3.529   3.550   8.978 -0.8727  1.6330  1.3001
  177SLPC  C31720244   3.462   3.336   8.967  0.5404 -0.2966  0.3320
  177SLPC  H17X20245   3.452   3.244   9.030 -1.8539  0.5313  1.2667
  177SLPC  H17Y20246   3.529   3.316   8.880 -1.1545  2.2662 -1.7017
  177SLPC  C31820247   3.323   3.375   8.917 -0.0068 -0.2078 -0.5744
  177SLPC  H18X20248   3.328   3.472   8.864  0.5129  0.9680  1.5080
  177SLPC  H18Y20249   3.260   3.393   9.007 -0.4025  0.5176 -0.9836
  177SLPC  H18Z20250   3.279   3.295   8.853  1.9381 -0.3011 -1.8491
  178SLPC     N20251   5.718   4.989  10.605 -0.0904 -0.0446 -0.2732
  178SLPC   C1320252   5.735   4.890  10.496  0.0203 -0.8528 -0.1377
  178SLPC  H13A20253   5.774   4.795  10.531  1.6941  0.1539  0.8856
  178SLPC  H13B20254   5.649   4.887  10.431  0.6104 -0.7319 -0.9362
  178SLPC  H13C20255   5.829   4.914  10.448 -0.4097 -1.0306 -1.0865
  178SLPC   C1420256   5.848   5.006  10.665  0.0146  0.1423 -0.0252
  178SLPC  H14A20257   5.852   5.087  10.736  0.9615  0.5663 -0.5450
  178SLPC  H14B20258   5.883   4.913  10.708 -2.0320 -1.5585 -1.8227
  178SLPC  H14C20259   5.923   5.039  10.595 -0.8702 -0.3501 -1.2353
  178SLPC   C1520260   5.619   4.938  10.707 -0.2303 -0.4449 -1.2799
  178SLPC  H15A20261   5.523   4.983  10.686  0.6737  2.4656  0.2317
  178SLPC  H15B20262   5.628   4.831  10.720 -0.2565 -0.2214  1.0134
  178SLPC  H15C20263   5.635   4.979  10.805  0.2933  0.6763 -1.8179
  178SLPC   C1220264   5.669   5.119  10.546  0.9059 -0.6605  0.3896
  178SLPC  H12A20265   5.755   5.166  10.500  0.9664 -1.8913 -0.8387
  178SLPC  H12B20266   5.650   5.193  10.622 -3.1872 -1.6131  0.5067
  178SLPC   C1120267   5.545   5.121  10.452 -0.2236 -0.2871  0.0454
  178SLPC  H11A20268   5.555   5.061  10.359  2.1518 -2.0658  1.3549
  178SLPC  H11B20269   5.541   5.225  10.413 -0.5187 -0.7698 -1.2974
  178SLPC     P20270   5.326   5.194  10.580  0.2449  0.1677  0.0847
  178SLPC   O1320271   5.230   5.120  10.670 -0.1700  0.2224 -0.2818
  178SLPC   O1420272   5.413   5.287  10.659 -0.1828  0.8026  0.3147
  178SLPC   O1220273   5.422   5.087  10.514  0.0756 -0.3534 -0.0143
  178SLPC   O1120274   5.245   5.266  10.458 -0.6115  0.7046 -0.3184
  178SLPC    C120275   5.192   5.198  10.349 -0.3655  0.6116  0.2367
  178SLPC    HA20276   5.230   5.094  10.343 -0.6143  0.2003  3.7461
  178SLPC    HB20277   5.082   5.191  10.366 -0.3909  2.8183  1.3559
  178SLPC    C220278   5.218   5.282  10.218  0.2394  0.1056  0.6852
  178SLPC    HS20279   5.230   5.389  10.246  1.7557 -0.5604  2.7956
  178SLPC   O2120280   5.104   5.251  10.126 -0.1009 -0.5290  0.1781
  178SLPC   C2120281   4.993   5.319  10.149 -0.1147  0.2633  0.1103
  178SLPC   O2220282   4.978   5.393  10.247 -0.0547 -0.3827  0.3064
  178SLPC   C2220283   4.892   5.280  10.044  0.7503  0.5655  0.2634
  178SLPC   H2R20284   4.927   5.185   9.999  1.0275  0.4302  0.7547
  178SLPC   H2S20285   4.801   5.238  10.092  0.3672 -0.1840 -1.0725
  178SLPC    C320286   5.352   5.251  10.142  0.6859  0.4037  0.7022
  178SLPC    HX20287   5.348   5.141  10.126 -1.0054  0.4381  0.7691
  178SLPC    HY20288   5.442   5.280  10.201  2.4508 -0.6599 -1.3184
  178SLPC   O3120289   5.363   5.309  10.013  0.2664  1.0158  0.4997
  178SLPC   C3120290   5.413   5.436  10.011  0.8393 -0.7268 -0.1334
  178SLPC   O3220291   5.443   5.498  10.110 -0.0301 -0.1719 -0.3631
  178SLPC   C3220292   5.423   5.486   9.870  0.6301 -0.1063  0.0878
  178SLPC   H2X20293   5.519   5.464   9.818  0.0695 -0.4186 -0.8512
  178SLPC   H2Y20294   5.405   5.595   9.861  2.4459  0.0773 -3.1033
  178SLPC   C2320295   4.851   5.385   9.938 -0.2567 -0.6176  0.4000
  178SLPC   H3R20296   4.927   5.426   9.868 -0.1158  1.0576  1.4716
  178SLPC   H3S20297   4.832   5.476   9.998  3.2412  0.4241  0.1589
  178SLPC   C2420298   4.725   5.350   9.857 -0.5155  0.1360 -0.5820
  178SLPC   H4R20299   4.640   5.342   9.928 -0.7671 -0.0370 -0.9060
  178SLPC   H4S20300   4.725   5.242   9.833 -2.4472 -0.1983  0.6813
  178SLPC   C2520301   4.705   5.431   9.725  0.0918  0.5073 -0.4854
  178SLPC   H5R20302   4.797   5.428   9.663  1.5854  0.0642  1.6156
  178SLPC   H5S20303   4.675   5.538   9.731  0.4170  0.7328 -2.3964
  178SLPC   C2620304   4.590   5.367   9.639 -0.6457  0.2265  0.1575
  178SLPC   H6R20305   4.603   5.257   9.625  1.6189  0.4726 -0.1342
  178SLPC   H6S20306   4.605   5.418   9.542 -0.1298  0.4412  0.3455
  178SLPC   C2720307   4.447   5.378   9.693  0.0694 -0.0153  0.2373
  178SLPC   H7R20308   4.456   5.334   9.795  2.7418  0.0106  0.0737
  178SLPC   H7S20309   4.382   5.312   9.632  1.0131 -2.9985  2.2506
  178SLPC   C2820310   4.392   5.522   9.703  0.4861  0.2392  0.7689
  178SLPC   H8R20311   4.447   5.567   9.788  1.8473 -1.7842  1.0341
  178SLPC   H8S20312   4.283   5.519   9.725 -0.1893 -1.4243 -2.2827
  178SLPC   C2920313   4.413   5.603   9.579 -0.4228 -0.4040  0.4954
  178SLPC   H9R20314   4.473   5.694   9.598 -0.2767  0.0182 -1.7320
  178SLPC  C21020315   4.384   5.582   9.449 -0.5490  0.9294  0.1134
  178SLPC  H10R20316   4.417   5.655   9.373  2.3197 -2.2458 -1.9418
  178SLPC  C21120317   4.320   5.456   9.388  0.5922 -0.4336  0.1169
  178SLPC  H11R20318   4.210   5.450   9.388  0.6363 -1.8208  1.5524
  178SLPC  H11S20319   4.352   5.362   9.438 -2.3801 -0.7077  1.7297
  178SLPC  C21220320   4.359   5.456   9.243  0.2807 -0.0997  0.4666
  178SLPC  H12R20321   4.459   5.424   9.211 -0.0198 -0.6518  0.0699
  178SLPC  C21320322   4.278   5.487   9.139  0.4475  0.4207  0.8822
  178SLPC  H13R20323   4.316   5.481   9.036 -3.3974 -0.3558 -0.6542
  178SLPC  C21420324   4.136   5.544   9.147 -0.4527 -0.0076  0.4477
  178SLPC  H14R20325   4.119   5.575   9.252 -0.0442 -0.5651  0.6826
  178SLPC  H14S20326   4.057   5.470   9.121  0.7488 -0.3670 -2.7398
  178SLPC  C21520327   4.085   5.660   9.050 -0.4142  0.1427  0.0601
  178SLPC  H15R20328   3.975   5.673   9.059 -0.6995  1.1708 -3.4708
  178SLPC  H15S20329   4.115   5.618   8.952 -1.0658 -3.0916  1.1140
  178SLPC  C21620330   4.172   5.785   9.085  0.1273  0.4471 -0.1619
  178SLPC  H16R20331   4.282   5.772   9.079  0.3380  1.2596  1.5778
  178SLPC  H16S20332   4.146   5.820   9.187  0.8609  1.5550 -0.3443
  178SLPC  C21720333   4.134   5.910   8.993 -0.4794 -0.0815 -0.7939
  178SLPC  H17R20334   4.173   5.886   8.892 -2.1865 -0.1986 -1.4619
  178SLPC  H17S20335   4.191   6.000   9.024 -2.0453  0.8427 -0.4684
  178SLPC  C21820336   3.986   5.951   8.980  0.0167 -0.1001 -0.4570
  178SLPC  H18R20337   3.941   5.984   9.075  0.8484 -1.1061  0.3137
  178SLPC  H18S20338   3.918   5.877   8.932 -2.2925  0.7232  1.4063
  178SLPC  H18T20339   3.990   6.038   8.911  1.3389 -1.7665 -2.6545
  178SLPC   C3320340   5.318   5.415   9.774 -0.6105  0.0646  0.3399
  178SLPC   H3X20341   5.215   5.431   9.811  0.0196  1.0673  1.7668
  178SLPC   H3Y20342   5.327   5.305   9.763 -2.5605 -0.0086 -0.9417
  178SLPC   C3420343   5.343   5.470   9.637 -0.3240 -0.6421 -0.1038
  178SLPC   H4X20344   5.450   5.449   9.616  0.0806 -0.8226  1.9354
  178SLPC   H4Y20345   5.334   5.581   9.631 -0.5832 -0.6717 -0.2912
  178SLPC   C3520346   5.264   5.397   9.527 -0.3780 -0.3753  0.1055
  178SLPC   H5X20347   5.154   5.398   9.540 -0.4677 -0.5981 -0.5738
  178SLPC   H5Y20348   5.284   5.288   9.538 -0.6919 -0.4530 -0.0935
  178SLPC   C3620349   5.321   5.442   9.386 -0.4170 -0.3931  0.0991
  178SLPC   H6X20350   5.428   5.412   9.384 -0.2856  0.0439  0.5346
  178SLPC   H6Y20351   5.306   5.551   9.376 -2.1385 -0.7717 -2.2565
  178SLPC   C3720352   5.260   5.368   9.267  0.1214  0.4282 -0.2575
  178SLPC   H7X20353   5.150   5.383   9.266 -0.0016 -0.1595 -3.3605
  178SLPC   H7Y20354   5.285   5.260   9.263 -0.5830  0.2563 -0.1879
  178SLPC   C3820355   5.308   5.420   9.132 -0.8821 -0.3305  0.2322
  178SLPC   H8X20356   5.417   5.401   9.121 -0.9128 -0.9257  0.9187
  178SLPC   H8Y20357   5.296   5.530   9.127  1.4886 -0.0122  0.6166
  178SLPC   C3920358   5.232   5.344   9.025 -0.5021 -0.5231 -0.3476
  178SLPC   H9X20359   5.124   5.369   9.034 -0.1792  1.3799 -1.2103
  178SLPC   H9Y20360   5.242   5.234   9.041 -0.2808 -0.2927  1.2569
  178SLPC  C31020361   5.280   5.362   8.880  0.5501 -0.3101 -0.3444
  178SLPC  H10X20362   5.204   5.319   8.811 -0.8639  3.1220 -1.1247
  178SLPC  H10Y20363   5.373   5.304   8.860  1.3401 -0.0370  2.1726
  178SLPC  C31120364   5.287   5.515   8.833 -0.0383  0.6752 -0.0356
  178SLPC  H11X20365   5.318   5.583   8.916 -0.4507  0.0078  0.6707
  178SLPC  H11Y20366   5.184   5.553   8.817  0.1922  2.4607  2.2134
  178SLPC  C31220367   5.376   5.532   8.706 -0.1092 -0.0876  1.0612
  178SLPC  H12X20368   5.348   5.630   8.660 -1.7089 -1.4206 -0.9842
  178SLPC  H12Y20369   5.354   5.449   8.636 -1.2833  0.1790  1.1045
  178SLPC  C31320370   5.526   5.506   8.740 -0.0219  0.5243 -0.1177
  178SLPC  H13X20371   5.534   5.410   8.795  2.1244  0.3083 -0.7137
  178SLPC  H13Y20372   5.557   5.588   8.808 -0.1312  1.4656 -1.1856
  178SLPC  C31420373   5.613   5.502   8.619 -0.3781  0.0394 -0.1004
  178SLPC  H14X20374   5.716   5.519   8.657 -1.0178  0.1622  1.6630
  178SLPC  H14Y20375   5.576   5.581   8.550 -1.5900 -0.7988 -0.4467
  178SLPC  C31520376   5.620   5.365   8.543  0.3950 -0.5382  0.3813
  178SLPC  H15X20377   5.639   5.285   8.618 -0.0423  1.1135  2.3338
  178SLPC  H15Y20378   5.514   5.357   8.510  0.2249  0.6863  0.5805
  178SLPC  C31620379   5.729   5.373   8.429  0.2816  0.8039  0.4912
  178SLPC  H16X20380   5.828   5.396   8.473  0.5582  1.1679 -0.3057
  178SLPC  H16Y20381   5.696   5.448   8.354 -1.6272 -0.6327 -0.1918
  178SLPC  C31720382   5.739   5.239   8.350  0.7409 -0.0431  0.6553
  178SLPC  H17X20383   5.640   5.232   8.301  0.7298  3.3607 -0.0702
  178SLPC  H17Y20384   5.753   5.161   8.428  1.5441 -0.2515  0.3126
  178SLPC  C31820385   5.862   5.244   8.249  0.6736 -0.6795  0.0808
  178SLPC  H18X20386   5.848   5.323   8.172 -0.7880 -1.4581 -0.4839
  178SLPC  H18Y20387   5.884   5.150   8.193  2.1859 -0.2136 -0.1677
  178SLPC  H18Z20388   5.952   5.264   8.311  0.4413  1.1592 -0.1224
  179SLPC     N20389   0.059   1.646  11.003  0.1991 -0.9024 -0.3239
  179SLPC   C1320390  -0.067   1.728  11.004 -0.4499  0.1921 -0.4273
  179SLPC  H13A20391  -0.091   1.763  11.104  1.2726  1.5674 -0.4470
  179SLPC  H13B20392  -0.063   1.808  10.932 -2.9730 -1.2465 -2.3372
  179SLPC  H13C20393  -0.154   1.673  10.972 -0.0068 -0.2450 -0.8880
  179SLPC   C1420394   0.167   1.746  11.029 -0.0453  0.7432 -0.3005
  179SLPC  H14A20395   0.156   1.794  11.125 -0.5643 -0.1099  0.0760
  179SLPC  H14B20396   0.262   1.695  11.043 -0.3973 -0.1347 -0.9998
  179SLPC  H14C20397   0.173   1.827  10.959  1.1034  2.0805  1.2620
  179SLPC   C1520398   0.074   1.590  10.864 -0.3284 -0.2059 -0.3556
  179SLPC  H15A20399   0.161   1.526  10.864  0.6536  1.1015 -0.7016
  179SLPC  H15B20400  -0.019   1.546  10.829 -0.4152 -0.6718  0.4362
  179SLPC  H15C20401   0.093   1.669  10.793  0.7057  0.8791  1.0760
  179SLPC   C1220402   0.057   1.537  11.112 -0.0970  0.6846 -0.0261
  179SLPC  H12A20403   0.031   1.582  11.207  0.2827 -0.2528  0.5435
  179SLPC  H12B20404   0.156   1.497  11.128 -0.4553  0.0357  0.6072
  179SLPC   C1120405  -0.026   1.410  11.092 -0.9379  0.2765  0.3142
  179SLPC  H11A20406  -0.131   1.434  11.063 -1.5732 -1.9449  0.6157
  179SLPC  H11B20407  -0.031   1.356  11.188 -0.1640 -0.7576 -0.2166
  179SLPC     P20408  -0.053   1.209  10.941 -0.1374 -0.0697 -0.2522
  179SLPC   O1320409  -0.110   1.135  11.057  0.3485  0.3402  0.4822
  179SLPC   O1420410  -0.153   1.273  10.850 -0.0502 -0.1728  0.9452
  179SLPC   O1220411   0.039   1.322  10.998 -0.1282 -0.8157 -0.1242
  179SLPC   O1120412   0.042   1.111  10.864 -0.2525 -0.5688 -0.8334
  179SLPC    C120413   0.132   1.149  10.764 -0.4302  0.1625  0.3547
  179SLPC    HA20414   0.191   1.236  10.800 -0.3038  0.8074 -1.3482
  179SLPC    HB20415   0.196   1.061  10.743 -0.8553 -0.1135  0.2032
  179SLPC    C220416   0.065   1.174  10.629 -0.0384  0.5549 -0.4943
  179SLPC    HS20417  -0.017   1.248  10.641  0.7650  1.8236 -2.4071
  179SLPC   O2120418   0.021   1.050  10.573  0.5666  0.0578  0.3538
  179SLPC   C2120419  -0.085   1.065  10.494  0.2051 -0.3430  0.0814
  179SLPC   O2220420  -0.159   1.166  10.492 -0.3294  0.3786  0.2841
  179SLPC   C2220421  -0.109   0.937  10.413 -0.7558 -0.0884 -0.3556
  179SLPC   H2R20422  -0.010   0.905  10.374  0.6353  1.0777  2.0239
  179SLPC   H2S20423  -0.155   0.856  10.473 -0.0622 -0.3375 -0.1545
  179SLPC    C320424   0.174   1.245  10.537 -0.1622 -0.1363  0.1677
  179SLPC    HX20425   0.255   1.173  10.515 -0.6486 -0.4287 -0.6958
  179SLPC    HY20426   0.221   1.328  10.593  0.4985 -0.7105  0.4771
  179SLPC   O3120427   0.116   1.283  10.411  0.0985 -0.0861  0.0345
  179SLPC   C3120428   0.093   1.412  10.407 -0.1577 -0.0564 -0.1649
  179SLPC   O3220429   0.106   1.492  10.498  0.0691 -0.1360 -0.1685
  179SLPC   C3220430   0.059   1.452  10.264 -0.4527  0.8777 -0.8163
  179SLPC   H2X20431   0.048   1.359  10.205 -2.3903 -0.5682  1.6316
  179SLPC   H2Y20432   0.148   1.510  10.231  1.5301 -1.2243  0.6180
  179SLPC   C2320433  -0.193   0.975  10.285  1.0759  0.1340 -0.1416
  179SLPC   H3R20434  -0.295   1.013  10.307 -0.1025 -1.3071 -2.5643
  179SLPC   H3S20435  -0.221   0.883  10.229 -1.5032  1.3237 -0.9949
  179SLPC   C2420436  -0.110   1.043  10.175  0.5751  0.5797  0.4804
  179SLPC   H4R20437  -0.012   0.990  10.176 -0.5864 -1.8438 -1.4840
  179SLPC   H4S20438  -0.088   1.147  10.207  0.2275  0.7297  0.2299
  179SLPC   C2520439  -0.184   1.036  10.043 -0.1773  0.3534 -0.2784
  179SLPC   H5R20440  -0.266   1.111  10.038 -1.7059 -1.2834 -1.3970
  179SLPC   H5S20441  -0.225   0.933  10.042  0.1137  0.2317  0.3176
  179SLPC   C2620442  -0.085   1.056   9.928 -1.0884 -0.3398  0.4971
  179SLPC   H6R20443  -0.133   1.058   9.828 -1.4537  2.2580  0.6411
  179SLPC   H6S20444  -0.017   0.969   9.937 -2.8490 -2.0510 -1.5922
  179SLPC   C2720445  -0.000   1.187   9.950 -0.2352  0.3403  0.0322
  179SLPC   H7R20446   0.091   1.165  10.009  0.5964  3.0106 -0.1310
  179SLPC   H7S20447  -0.056   1.272   9.995 -1.5532 -0.0750 -0.7460
  179SLPC   C2820448   0.047   1.239   9.808 -0.2393 -0.3622  0.2705
  179SLPC   H8R20449   0.099   1.336   9.822 -1.7834  0.4791  0.3768
  179SLPC   H8S20450  -0.043   1.266   9.748 -0.0846  0.1670  0.2687
  179SLPC   C2920451   0.137   1.143   9.732 -0.1512 -0.0263  0.1223
  179SLPC   H9R20452   0.211   1.103   9.802 -0.7192  0.4414  1.0065
  179SLPC  C21020453   0.120   1.080   9.615  0.1576  0.7356 -0.0027
  179SLPC  H10R20454   0.202   1.021   9.569 -0.9918 -1.0311  0.1182
  179SLPC  C21120455   0.008   1.092   9.517  0.2754 -0.0725 -0.0121
  179SLPC  H11R20456   0.019   1.194   9.476  0.4699  0.6133  1.6785
  179SLPC  H11S20457  -0.081   1.095   9.584 -0.0718 -0.1554 -0.4652
  179SLPC  C21220458   0.008   0.985   9.405 -0.0028 -0.9280 -0.7203
  179SLPC  H12R20459  -0.014   0.880   9.431 -0.3716 -0.4169  1.1531
  179SLPC  C21320460   0.013   1.017   9.273  0.3995 -0.0227 -0.0911
  179SLPC  H13R20461   0.010   0.932   9.204  4.0537  0.7402 -1.3944
  179SLPC  C21420462   0.023   1.154   9.208  1.1242 -0.4014  0.1237
  179SLPC  H14R20463   0.122   1.163   9.157 -0.0908  0.2908 -2.2837
  179SLPC  H14S20464   0.026   1.243   9.275  0.5774  0.8279 -1.4059
  179SLPC  C21520465  -0.099   1.172   9.112  0.1221  0.3771  0.7000
  179SLPC  H15R20466  -0.091   1.275   9.072  0.8338  0.2707  0.5517
  179SLPC  H15S20467  -0.199   1.166   9.160 -1.0388 -0.3621 -1.6589
  179SLPC  C21620468  -0.103   1.067   8.994  0.3023 -0.0053 -0.1664
  179SLPC  H16R20469  -0.135   0.970   9.038  2.0232 -0.1429  0.8689
  179SLPC  H16S20470  -0.004   1.046   8.948  0.8740  0.7233  0.6964
  179SLPC  C21720471  -0.211   1.096   8.888  0.0780  0.2981 -0.5201
  179SLPC  H17R20472  -0.312   1.097   8.934 -0.1409 -0.4526 -0.9673
  179SLPC  H17S20473  -0.220   1.014   8.814 -0.6181 -1.5983  1.5225
  179SLPC  C21820474  -0.201   1.235   8.817  0.1601 -0.4006  0.0729
  179SLPC  H18R20475  -0.285   1.249   8.747 -1.1158 -4.0024  0.6783
  179SLPC  H18S20476  -0.102   1.237   8.766 -0.9833  0.8472 -2.2511
  179SLPC  H18T20477  -0.210   1.316   8.893  0.9344  0.3311 -0.6003
  179SLPC   C3320478  -0.051   1.562  10.252  0.1647  0.0129 -0.7301
  179SLPC   H3X20479  -0.034   1.655  10.310 -3.7292  0.2308  0.3456
  179SLPC   H3Y20480  -0.137   1.503  10.288  0.4076  0.5444  0.7824
  179SLPC   C3420481  -0.052   1.596  10.097 -0.0562 -0.1231 -0.1453
  179SLPC   H4X20482  -0.144   1.655  10.075  0.5963  1.4471  1.1227
  179SLPC   H4Y20483  -0.053   1.507  10.031 -1.9597 -0.8859  0.8159
  179SLPC   C3520484   0.056   1.700  10.048  0.3535 -0.2754 -0.6178
  179SLPC   H5X20485   0.151   1.643  10.043  0.9500  0.6507 -0.0392
  179SLPC   H5Y20486   0.063   1.775  10.130 -2.5596 -1.8157  1.2406
  179SLPC   C3620487   0.038   1.758   9.907 -0.6213  0.5847  0.3879
  179SLPC   H6X20488   0.124   1.825   9.886  1.8766 -2.9547 -1.7414
  179SLPC   H6Y20489  -0.064   1.802   9.904 -1.1836 -0.5852  1.4610
  179SLPC   C3720490   0.032   1.643   9.802 -0.2615  0.4010  0.0482
  179SLPC   H7X20491  -0.055   1.578   9.828  1.1732 -1.4024  0.5219
  179SLPC   H7Y20492   0.119   1.575   9.809 -0.4134  0.2207  0.2112
  179SLPC   C3820493   0.032   1.689   9.660  0.1222 -0.4157 -0.7686
  179SLPC   H8X20494   0.120   1.755   9.647  0.5107 -0.9614 -0.9446
  179SLPC   H8Y20495  -0.059   1.749   9.639  0.0555 -0.0005  0.6128
  179SLPC   C3920496   0.043   1.574   9.559 -0.2528  0.1547  0.1987
  179SLPC   H9X20497  -0.042   1.504   9.560 -0.2341  0.1224 -0.2849
  179SLPC   H9Y20498   0.120   1.505   9.600 -1.2353 -1.4661 -0.6013
  179SLPC  C31020499   0.076   1.631   9.416 -0.6856  0.2227 -0.6765
  179SLPC  H10X20500   0.160   1.704   9.416 -1.4253  1.1555 -2.3921
  179SLPC  H10Y20501  -0.013   1.689   9.384 -1.7506  0.6550  2.7183
  179SLPC  C31120502   0.111   1.530   9.306  0.1704  0.0896  0.3875
  179SLPC  H11X20503   0.023   1.468   9.278  0.1839  0.1718  0.1654
  179SLPC  H11Y20504   0.185   1.460   9.351  1.6462  1.2701 -0.1286
  179SLPC  C31220505   0.170   1.588   9.173  0.5645 -0.2425 -0.6177
  179SLPC  H12X20506   0.198   1.504   9.106  0.4764 -1.2017  0.5115
  179SLPC  H12Y20507   0.260   1.654   9.183  0.9324 -0.9172  0.8017
  179SLPC  C31320508   0.058   1.669   9.104  0.2354  0.2205  0.4918
  179SLPC  H13X20509   0.005   1.734   9.176 -1.0436 -1.1670  0.8568
  179SLPC  H13Y20510  -0.025   1.603   9.069  0.1050  0.9557 -0.6810
  179SLPC  C31420511   0.096   1.734   8.972  0.0506  0.1206 -0.3828
  179SLPC  H14X20512   0.157   1.826   8.987  0.6458 -0.2111 -0.7584
  179SLPC  H14Y20513  -0.007   1.764   8.942 -0.2993 -0.3584  0.3107
  179SLPC  C31520514   0.151   1.634   8.865 -0.2844  0.4670 -0.3949
  179SLPC  H15X20515   0.077   1.554   8.844  0.9915 -0.6337 -0.8052
  179SLPC  H15Y20516   0.244   1.585   8.901 -1.8844 -1.2774  1.5992
  179SLPC  C31620517   0.192   1.704   8.731 -0.0983  0.6693 -0.3117
  179SLPC  H16X20518   0.107   1.753   8.679 -0.6446  0.8022  0.6768
  179SLPC  H16Y20519   0.237   1.637   8.654 -1.9557  0.7574 -1.5338
  179SLPC  C31720520   0.291   1.823   8.762  0.7448  0.7577  0.5652
  179SLPC  H17X20521   0.348   1.815   8.857 -0.4901  0.7874  1.3360
  179SLPC  H17Y20522   0.217   1.904   8.779  3.0564  3.5751 -1.7096
  179SLPC  C31820523   0.389   1.865   8.648 -0.1184 -0.0386  0.0074
  179SLPC  H18X20524   0.428   1.969   8.650 -1.4534  0.4688  0.3129
  179SLPC  H18Y20525   0.333   1.855   8.553  1.2993 -1.6540 -0.7231
  179SLPC  H18Z20526   0.475   1.796   8.632 -0.7935 -1.7512  3.0292
  180SLPC     N20527   0.496   5.413  10.584  0.9018 -0.4650 -0.4891
  180SLPC   C1320528   0.349   5.389  10.566 -0.3916 -0.6692  1.0677
  180SLPC  H13A20529   0.327   5.283  10.567  0.0595 -0.8675 -1.7674
  180SLPC  H13B20530   0.284   5.456  10.620 -0.3645  0.0417  0.2483
  180SLPC  H13C20531   0.323   5.401  10.462  1.6994  0.0274  0.5806
  180SLPC   C1420532   0.522   5.562  10.566  0.1397 -0.0925 -0.0939
  180SLPC  H14A20533   0.627   5.589  10.568  0.3911 -0.7106 -2.4443
  180SLPC  H14B20534   0.495   5.600  10.468  0.6407  1.5838  0.3862
  180SLPC  H14C20535   0.465   5.620  10.637 -0.9168 -0.7086 -0.4219
  180SLPC   C1520536   0.564   5.341  10.470 -0.4011 -0.3706 -0.3901
  180SLPC  H15A20537   0.554   5.384  10.372  1.9721 -1.9602 -1.4112
  180SLPC  H15B20538   0.671   5.331  10.480  0.2064  2.4633 -2.6294
  180SLPC  H15C20539   0.520   5.243  10.468 -1.1410 -0.0652  0.3534
  180SLPC   C1220540   0.546   5.365  10.722  0.1981  0.4795  0.1262
  180SLPC  H12A20541   0.509   5.265  10.741 -0.6442  0.7737  0.0978
  180SLPC  H12B20542   0.483   5.413  10.796 -1.7980 -2.7884  0.7780
  180SLPC   C1120543   0.693   5.377  10.761  0.2228  0.7529  0.6271
  180SLPC  H11A20544   0.691   5.326  10.860  2.5268  0.5993  0.6338
  180SLPC  H11B20545   0.718   5.485  10.764  0.5245  0.7914 -1.6860
  180SLPC     P20546   0.926   5.287  10.712  0.1123 -0.1283  0.0416
  180SLPC   O1320547   0.995   5.419  10.717  0.0091  0.0917  0.6336
  180SLPC   O1420548   0.939   5.203  10.837  0.6625  0.8106  0.3039
  180SLPC   O1220549   0.776   5.301  10.672  0.1393  0.0599  0.2085
  180SLPC   O1120550   0.988   5.204  10.596 -0.5512  0.1608 -0.1663
  180SLPC    C120551   0.926   5.161  10.478  0.4705  0.0426  0.3138
  180SLPC    HA20552   0.974   5.070  10.436  0.6601 -0.0545  0.7311
  180SLPC    HB20553   0.820   5.132  10.494  1.4667 -2.7355  2.9406
  180SLPC    C220554   0.945   5.268  10.372  0.3436  0.3727  0.7995
  180SLPC    HS20555   0.900   5.363  10.409 -0.1153  0.9327 -1.0863
  180SLPC   O2120556   0.875   5.219  10.249 -0.2964 -0.5287 -0.1460
  180SLPC   C2120557   0.835   5.322  10.177 -0.2493 -0.9917  0.2472
  180SLPC   O2220558   0.847   5.440  10.201  0.3072 -0.0146  0.2243
  180SLPC   C2220559   0.773   5.262  10.059  0.4834  0.2260 -0.3040
  180SLPC   H2R20560   0.717   5.174  10.098  1.7518  0.0988  1.3360
  180SLPC   H2S20561   0.699   5.338  10.024 -0.7604 -0.8314 -0.0651
  180SLPC    C320562   1.093   5.299  10.334 -0.2372  0.3542 -0.4923
  180SLPC    HX20563   1.148   5.330  10.426  0.0780  0.8861 -0.8504
  180SLPC    HY20564   1.079   5.389  10.270 -3.8885  0.5688  0.3631
  180SLPC   O3120565   1.154   5.187  10.271 -0.0896  0.1197  0.2114
  180SLPC   C3120566   1.271   5.207  10.217 -0.4824 -0.3567  0.6830
  180SLPC   O3220567   1.325   5.311  10.191 -0.1218  0.0676  0.0582
  180SLPC   C3220568   1.329   5.069  10.181 -0.0881  0.1886 -0.2405
  180SLPC   H2X20569   1.348   5.014  10.276  1.3546 -0.7823 -1.0371
  180SLPC   H2Y20570   1.430   5.089  10.138  0.0762  1.8027  0.8102
  180SLPC   C2320571   0.872   5.239   9.943  1.0268  0.0923 -0.0078
  180SLPC   H3R20572   0.910   5.135   9.934  0.5886 -0.0396 -0.3816
  180SLPC   H3S20573   0.956   5.309   9.923  2.7330 -1.5746  1.0502
  180SLPC   C2420574   0.789   5.263   9.817 -0.6730 -0.5544 -0.3651
  180SLPC   H4R20575   0.750   5.367   9.810  1.9644  0.4112 -2.6578
  180SLPC   H4S20576   0.702   5.194   9.811 -1.6160  0.5516  0.1144
  180SLPC   C2520577   0.872   5.256   9.689 -0.6056  0.4137 -0.1599
  180SLPC   H5R20578   0.904   5.150   9.684  1.2005  0.8813  0.3829
  180SLPC   H5S20579   0.961   5.319   9.711 -0.5151 -0.7832  3.6141
  180SLPC   C2620580   0.803   5.291   9.554 -0.9482  0.4228 -0.4185
  180SLPC   H6R20581   0.738   5.379   9.574  0.6262  1.6788 -0.5988
  180SLPC   H6S20582   0.739   5.203   9.534 -0.2923 -0.2491  0.3744
  180SLPC   C2720583   0.893   5.319   9.430  0.2431  0.5403  0.0730
  180SLPC   H7R20584   0.954   5.227   9.417 -0.1369  0.2400  0.3938
  180SLPC   H7S20585   0.950   5.412   9.453 -0.8866  1.7217 -1.6125
  180SLPC   C2820586   0.806   5.341   9.305 -0.4045 -0.1589 -0.5482
  180SLPC   H8R20587   0.736   5.420   9.339 -1.1586 -1.1400  0.2422
  180SLPC   H8S20588   0.762   5.242   9.279 -0.6668 -0.1171 -0.2578
  180SLPC   C2920589   0.894   5.381   9.184  0.0971  0.1533 -0.2524
  180SLPC   H9R20590   1.001   5.395   9.204 -0.4902  1.3425  2.4751
  180SLPC  C21020591   0.848   5.399   9.059 -0.4827 -0.2058 -0.7669
  180SLPC  H10R20592   0.915   5.436   8.980 -2.6190  1.9917 -1.6568
  180SLPC  C21120593   0.703   5.397   9.023 -0.5485  0.1318 -0.4668
  180SLPC  H11R20594   0.687   5.491   8.967 -0.7618  1.1495  1.2132
  180SLPC  H11S20595   0.640   5.412   9.113  1.2815 -0.6102  1.0141
  180SLPC  C21220596   0.664   5.276   8.941 -0.5955 -1.0704 -0.0545
  180SLPC  H12R20597   0.703   5.280   8.839 -2.4512  1.8167 -0.7668
  180SLPC  C21320598   0.584   5.175   8.982  0.3200 -0.6644  0.2396
  180SLPC  H13R20599   0.560   5.092   8.914  0.4238 -1.4481  1.1388
  180SLPC  C21420600   0.506   5.170   9.115  0.0646  0.1674  0.2532
  180SLPC  H14R20601   0.400   5.202   9.104 -0.9378 -1.6672  3.1464
  180SLPC  H14S20602   0.540   5.247   9.187  1.1730 -0.7473  0.7421
  180SLPC  C21520603   0.523   5.035   9.192  1.1931 -0.2726  0.1708
  180SLPC  H15R20604   0.630   5.013   9.212  1.2189  0.8993  1.4224
  180SLPC  H15S20605   0.494   4.948   9.129  2.2366 -1.5869  1.4195
  180SLPC  C21620606   0.431   5.022   9.314  0.5074 -1.2308 -0.8524
  180SLPC  H16R20607   0.416   4.917   9.347  1.5073 -0.6123  1.7934
  180SLPC  H16S20608   0.329   5.051   9.280 -0.6938 -1.8046  1.9963
  180SLPC  C21720609   0.467   5.118   9.426  0.1657  0.6980 -0.7354
  180SLPC  H17R20610   0.442   5.224   9.401 -0.6530  0.5482 -0.5788
  180SLPC  H17S20611   0.576   5.108   9.441  0.0858  0.6509 -0.1854
  180SLPC  C21820612   0.388   5.094   9.554  0.1238 -0.5364 -0.5323
  180SLPC  H18R20613   0.410   4.993   9.595  0.0642 -0.7324 -0.9797
  180SLPC  H18S20614   0.280   5.102   9.528 -0.0007 -0.4850 -0.0116
  180SLPC  H18T20615   0.398   5.177   9.628  0.9572 -0.2709 -0.9370
  180SLPC   C3320616   1.229   4.977  10.096  0.0706 -0.2174  0.4303
  180SLPC   H3X20617   1.135   4.960  10.153  0.9510 -0.4980  1.8750
  180SLPC   H3Y20618   1.266   4.875  10.073 -2.8267 -1.4112  0.7049
  180SLPC   C3420619   1.200   5.037   9.955 -0.4638 -0.1986  0.3242
  180SLPC   H4X20620   1.151   5.135   9.977 -0.3180 -0.4214  1.7706
  180SLPC   H4Y20621   1.120   4.981   9.903 -1.5662  1.5961 -0.0005
  180SLPC   C3520622   1.329   5.052   9.871 -1.0257  0.0542  0.3416
  180SLPC   H5X20623   1.400   4.968   9.886 -2.5178 -0.9419  2.1786
  180SLPC   H5Y20624   1.384   5.139   9.912 -1.8656  0.4385  0.6573
  180SLPC   C3620625   1.300   5.070   9.728 -0.4053  0.0496 -0.3428
  180SLPC   H6X20626   1.255   5.171   9.722 -1.5167 -0.3585  0.5700
  180SLPC   H6Y20627   1.228   4.993   9.692 -2.0770  0.9564  0.8827
  180SLPC   C3720628   1.426   5.063   9.633  0.2713  0.2002  0.0170
  180SLPC   H7X20629   1.472   4.962   9.645  0.0275  0.2747  1.9827
  180SLPC   H7Y20630   1.498   5.143   9.659 -2.3902  2.1709  1.9884
  180SLPC   C3820631   1.369   5.071   9.485 -0.5285  0.5569 -0.2415
  180SLPC   H8X20632   1.336   5.175   9.466 -1.5897  0.0739 -1.1459
  180SLPC   H8Y20633   1.281   5.004   9.479  0.0491 -0.1142 -2.9294
  180SLPC   C3920634   1.470   5.024   9.381 -0.2288 -0.1132 -0.2811
  180SLPC   H9X20635   1.504   4.922   9.411 -0.0242  0.2628  0.8017
  180SLPC   H9Y20636   1.561   5.087   9.372  1.0337 -1.9937 -1.4077
  180SLPC  C31020637   1.416   4.998   9.240 -0.0014  0.4244 -0.4354
  180SLPC  H10X20638   1.368   5.088   9.197 -1.8802 -0.5623 -0.5189
  180SLPC  H10Y20639   1.333   4.927   9.258 -0.3073  1.5513  3.5694
  180SLPC  C31120640   1.514   4.922   9.141 -0.2316 -0.4973 -0.2065
  180SLPC  H11X20641   1.549   4.824   9.181 -1.1446 -1.1318 -0.9409
  180SLPC  H11Y20642   1.599   4.993   9.128 -1.2817  0.4463 -2.3720
  180SLPC  C31220643   1.449   4.885   9.016  0.0480 -0.7691 -0.9164
  180SLPC  H12X20644   1.375   4.960   8.982 -0.8623 -1.3148 -0.1950
  180SLPC  H12Y20645   1.378   4.801   9.034 -1.6289  0.9224  0.9261
  180SLPC  C31320646   1.550   4.844   8.909 -0.3134  0.1381  0.8234
  180SLPC  H13X20647   1.507   4.764   8.844  3.3480  0.0441 -1.7844
  180SLPC  H13Y20648   1.634   4.805   8.970  1.2162  1.2488 -0.4922
  180SLPC  C31420649   1.591   4.960   8.820 -0.6804  0.0498 -0.4236
  180SLPC  H14X20650   1.677   5.006   8.874 -0.7621  0.5540 -0.7257
  180SLPC  H14Y20651   1.505   5.029   8.811 -2.9348 -2.5634 -0.2074
  180SLPC  C31520652   1.636   4.913   8.683 -0.5329 -0.7400  0.4765
  180SLPC  H15X20653   1.557   4.846   8.642  1.4354 -2.1808 -1.1887
  180SLPC  H15Y20654   1.724   4.846   8.693 -0.2527 -0.2529  1.2935
  180SLPC  C31620655   1.680   5.024   8.577 -0.1944 -0.2838 -0.4050
  180SLPC  H16X20656   1.592   5.090   8.562 -0.8415 -1.2350 -0.9149
  180SLPC  H16Y20657   1.709   4.978   8.480  0.9017  1.0019 -0.7072
  180SLPC  C31720658   1.803   5.101   8.624 -0.5829 -0.9059  0.4397
  180SLPC  H17X20659   1.875   5.025   8.663  0.8961 -1.0860 -2.3756
  180SLPC  H17Y20660   1.764   5.165   8.706  0.1600 -1.7417  1.4841
  180SLPC  C31820661   1.883   5.175   8.512 -0.1335 -0.6831  0.3888
  180SLPC  H18X20662   1.991   5.149   8.512 -0.8974 -4.3122  1.1217
  180SLPC  H18Y20663   1.854   5.282   8.525 -1.1165 -0.9418  0.3601
  180SLPC  H18Z20664   1.859   5.143   8.409  0.2751  0.6496 -0.1417
  181SLPC     N20665   2.790   3.864  11.253  0.4995 -0.7678  0.3120
  181SLPC   C1320666   2.756   4.005  11.233  0.7448 -0.3108 -0.1813
  181SLPC  H13A20667   2.835   4.061  11.281 -2.0231 -0.1790  4.9513
  181SLPC  H13B20668   2.747   4.036  11.130  1.0988  1.4271  0.2787
  181SLPC  H13C20669   2.666   4.042  11.279  1.1083  0.5074 -0.1179
  181SLPC   C1420670   2.670   3.781  11.216  0.3506  0.0332  0.8661
  181SLPC  H14A20671   2.702   3.679  11.207  2.0003  0.0838  4.4858
  181SLPC  H14B20672   2.598   3.770  11.296  1.2218 -1.3339  1.4832
  181SLPC  H14C20673   2.635   3.811  11.118 -0.6041  0.0860  1.2132
  181SLPC   C1520674   2.836   3.849  11.401  0.0443 -0.1447  0.1344
  181SLPC  H15A20675   2.755   3.878  11.467  0.8936 -0.0071  1.1440
  181SLPC  H15B20676   2.851   3.743  11.419 -0.1326 -0.3035 -0.6195
  181SLPC  H15C20677   2.925   3.899  11.434  0.7932 -1.0152 -0.5008
  181SLPC   C1220678   2.908   3.829  11.164 -0.9497 -0.6874  0.2161
  181SLPC  H12A20679   2.937   3.726  11.182 -1.8774 -1.0119 -0.1423
  181SLPC  H12B20680   2.993   3.884  11.203 -1.0158 -2.1269  2.6494
  181SLPC   C1120681   2.885   3.849  11.017  0.4220 -0.6169  0.1593
  181SLPC  H11A20682   2.797   3.794  10.978 -0.8899  1.1689  0.4807
  181SLPC  H11B20683   2.974   3.807  10.965  1.2724 -0.2324  1.2550
  181SLPC     P20684   3.015   4.071  10.957 -0.1660  0.2960 -0.0875
  181SLPC   O1320685   2.982   4.216  10.949 -0.1839  0.0224  0.4404
  181SLPC   O1420686   3.113   4.040  11.064  0.4931  0.1634 -0.9529
  181SLPC   O1220687   2.880   3.989  10.980  0.2082 -0.2961  0.2302
  181SLPC   O1120688   3.063   4.039  10.806 -0.1578  0.1297 -0.3672
  181SLPC    C120689   2.977   3.982  10.708 -0.1458  0.0662 -0.1839
  181SLPC    HA20690   2.959   3.875  10.735 -1.1169  0.3176  0.1843
  181SLPC    HB20691   2.874   4.022  10.713 -1.3349 -2.6315 -1.3278
  181SLPC    C220692   3.035   3.997  10.571 -0.1659 -0.5094 -0.2590
  181SLPC    HS20693   3.031   4.107  10.551  1.6316 -0.3454  0.0895
  181SLPC   O2120694   2.961   3.911  10.484  0.2803  0.1877 -0.3446
  181SLPC   C2120695   2.858   3.965  10.420  0.5109 -0.3919  0.3982
  181SLPC   O2220696   2.822   4.080  10.425  0.3615  0.4718 -0.6430
  181SLPC   C2220697   2.782   3.864  10.338 -0.2321 -0.0181 -0.0367
  181SLPC   H2R20698   2.839   3.769  10.329 -1.5933 -1.3239  3.3917
  181SLPC   H2S20699   2.701   3.840  10.410  1.7275  3.2932  3.7001
  181SLPC    C320700   3.189   3.977  10.550 -0.7076  0.0911 -0.3344
  181SLPC    HX20701   3.203   3.872  10.582  0.7544  0.5794  0.7538
  181SLPC    HY20702   3.243   4.044  10.620 -1.7050 -0.2334  0.7722
  181SLPC   O3120703   3.224   4.000  10.416 -0.2017 -0.2876  0.9262
  181SLPC   C3120704   3.350   4.040  10.389  0.0902  0.5660 -0.3105
  181SLPC   O3220705   3.435   4.061  10.474 -0.1892 -0.1168  0.4615
  181SLPC   C3220706   3.373   4.056  10.241  0.1628  0.3335 -0.6435
  181SLPC   H2X20707   3.309   4.130  10.189  0.5370  0.5574 -0.7928
  181SLPC   H2Y20708   3.352   3.960  10.191  0.3363 -1.2580  2.1152
  181SLPC   C2320709   2.720   3.918  10.204  0.0512 -0.2679  0.2840
  181SLPC   H3R20710   2.725   4.028  10.191 -2.0417 -0.2751 -1.3360
  181SLPC   H3S20711   2.614   3.886  10.216 -0.2838  0.7073  0.0151
  181SLPC   C2420712   2.776   3.841  10.080  0.1040  0.1291 -0.1235
  181SLPC   H4R20713   2.706   3.857   9.995  0.1681  1.2036  0.0121
  181SLPC   H4S20714   2.774   3.734  10.106  2.6859 -0.5956 -2.4038
  181SLPC   C2520715   2.918   3.880  10.050 -0.6625 -0.0513 -0.0875
  181SLPC   H5R20716   2.960   3.796   9.991 -1.6409 -1.4458  1.1173
  181SLPC   H5S20717   2.987   3.901  10.135 -1.7538  0.0387  0.8013
  181SLPC   C2620718   2.944   3.999   9.952  0.1535  0.2552 -0.9219
  181SLPC   H6R20719   2.892   4.080  10.007  1.5213 -0.7692  2.1389
  181SLPC   H6S20720   2.895   3.979   9.855 -0.3749  1.4798 -0.9144
  181SLPC   C2720721   3.088   4.021   9.923  0.1016 -0.0893 -0.2046
  181SLPC   H7R20722   3.136   4.040  10.021  1.0918 -1.3488 -0.4119
  181SLPC   H7S20723   3.100   4.113   9.863 -2.8496  0.0558 -0.7094
  181SLPC   C2820724   3.160   3.907   9.847  0.1001 -0.4137 -0.9981
  181SLPC   H8R20725   3.118   3.907   9.744 -1.5640 -0.2533 -0.3538
  181SLPC   H8S20726   3.131   3.808   9.888  2.2344 -0.3980  0.7359
  181SLPC   C2920727   3.311   3.930   9.866  0.8015 -0.5855  0.3186
  181SLPC   H9R20728   3.356   3.929   9.966 -1.3535 -0.1047  1.3693
  181SLPC  C21020729   3.404   3.960   9.771 -0.5263  0.4186 -0.3496
  181SLPC  H10R20730   3.508   3.976   9.803 -0.5041  1.1027 -0.7396
  181SLPC  C21120731   3.373   3.969   9.625  0.1020  0.5218 -0.2886
  181SLPC  H11R20732   3.266   3.980   9.599 -0.0600  0.6033  0.4008
  181SLPC  H11S20733   3.398   3.874   9.571 -0.9038  1.1474 -1.9303
  181SLPC  C21220734   3.448   4.085   9.558 -0.5232 -0.2431 -0.3790
  181SLPC  H12R20735   3.396   4.182   9.556 -0.2032 -0.0792 -1.3354
  181SLPC  C21320736   3.572   4.088   9.500  0.8953 -0.2778 -0.0551
  181SLPC  H13R20737   3.599   4.182   9.449  0.0429 -0.4238 -0.8036
  181SLPC  C21420738   3.676   3.982   9.483 -0.2103 -0.3949  0.1083
  181SLPC  H14R20739   3.640   3.884   9.521  0.6492 -0.9193 -0.4067
  181SLPC  H14S20740   3.771   4.002   9.538  0.2276  0.1315 -0.8301
  181SLPC  C21520741   3.696   3.955   9.329 -0.1799  0.3007 -0.5560
  181SLPC  H15R20742   3.600   3.930   9.279  1.3996 -1.4039 -2.9653
  181SLPC  H15S20743   3.755   3.861   9.332  0.3992  0.6718  2.0532
  181SLPC  C21620744   3.764   4.063   9.250 -0.6391 -0.9070 -0.0523
  181SLPC  H16R20745   3.863   4.063   9.299  0.1724  0.4130 -1.5814
  181SLPC  H16S20746   3.716   4.161   9.271  1.9201  0.6504 -0.9773
  181SLPC  C21720747   3.781   4.035   9.103 -0.2622  0.1783  0.2625
  181SLPC  H17R20748   3.867   3.966   9.088 -1.2673 -1.0058 -0.2509
  181SLPC  H17S20749   3.826   4.125   9.057  0.2422 -0.4411 -0.4915
  181SLPC  C21820750   3.661   4.012   9.010  0.4161 -1.0990 -0.0317
  181SLPC  H18R20751   3.599   4.103   9.005  0.7449 -0.9239 -1.4196
  181SLPC  H18S20752   3.587   3.943   9.055 -1.1575  0.6603  0.1776
  181SLPC  H18T20753   3.679   3.984   8.904  3.6077  2.0161 -0.4873
  181SLPC   C3320754   3.526   4.099  10.218  0.8209  0.8748 -0.2124
  181SLPC   H3X20755   3.582   4.022  10.275 -0.1288  0.1642 -0.2207
  181SLPC   H3Y20756   3.541   4.204  10.252 -1.3020  2.0674 -2.6128
  181SLPC   C3420757   3.567   4.103  10.073 -0.4877 -0.0061  1.0684
  181SLPC   H4X20758   3.478   4.136  10.015 -0.0653 -0.4093  0.1748
  181SLPC   H4Y20759   3.591   4.004  10.030  1.7303  1.5116 -1.4987
  181SLPC   C3520760   3.681   4.208  10.031 -0.3713 -0.0101  1.0709
  181SLPC   H5X20761   3.778   4.173  10.072 -0.1294  0.9190  1.3125
  181SLPC   H5Y20762   3.640   4.301  10.077  0.1442  0.2522  1.0026
  181SLPC   C3620763   3.681   4.231   9.872 -0.0506  0.8126 -0.3010
  181SLPC   H6X20764   3.583   4.250   9.825 -0.2839 -0.1438 -0.2270
  181SLPC   H6Y20765   3.713   4.138   9.820 -0.1594  1.3573 -1.3663
  181SLPC   C3720766   3.780   4.338   9.837 -0.3804 -0.2863  0.6094
  181SLPC   H7X20767   3.876   4.312   9.886 -1.5230 -2.1632  2.0284
  181SLPC   H7Y20768   3.756   4.442   9.868 -4.0917 -0.6121 -0.6784
  181SLPC   C3820769   3.792   4.353   9.684 -0.2331  0.3473  0.6118
  181SLPC   H8X20770   3.698   4.399   9.649 -0.5450 -2.0861 -2.1316
  181SLPC   H8Y20771   3.791   4.254   9.634  0.0724  0.5951  0.1043
  181SLPC   C3920772   3.906   4.443   9.639 -0.7090 -0.7074  0.6854
  181SLPC   H9X20773   4.000   4.417   9.693 -1.3894 -1.2734  1.6084
  181SLPC   H9Y20774   3.866   4.539   9.677 -2.1646 -1.6526  1.6275
  181SLPC  C31020775   3.940   4.434   9.494 -0.5980  0.1974 -0.3576
  181SLPC  H10X20776   3.992   4.343   9.458  0.3507  1.0104 -1.1244
  181SLPC  H10Y20777   4.000   4.519   9.456 -2.2582  1.4747 -0.2435
  181SLPC  C31120778   3.822   4.442   9.402 -1.1863  0.0436  0.9630
  181SLPC  H11X20779   3.785   4.546   9.416  0.5828  0.4625  3.1262
  181SLPC  H11Y20780   3.754   4.356   9.422  0.6103 -1.5652  0.4773
  181SLPC  C31220781   3.864   4.432   9.255 -0.0311 -0.4886  0.5600
  181SLPC  H12X20782   3.915   4.334   9.249 -0.1512 -0.7803  2.9997
  181SLPC  H12Y20783   3.947   4.495   9.216 -1.1274 -0.3449 -1.6679
  181SLPC  C31320784   3.744   4.459   9.161 -0.1999  0.0528  0.2451
  181SLPC  H13X20785   3.707   4.561   9.186 -0.4878 -0.3762  1.6539
  181SLPC  H13Y20786   3.663   4.387   9.184 -0.1852 -1.3905 -3.5042
  181SLPC  C31420787   3.788   4.451   9.010 -0.4580  1.3221 -0.6299
  181SLPC  H14X20788   3.857   4.364   9.000 -0.0001  1.5582  0.3217
  181SLPC  H14Y20789   3.852   4.541   8.995 -0.1909  0.9842 -1.5713
  181SLPC  C31520790   3.670   4.461   8.911 -0.2266  0.6967  0.3970
  181SLPC  H15X20791   3.594   4.536   8.940  0.0344  2.6177 -3.3167
  181SLPC  H15Y20792   3.611   4.368   8.903 -0.3616  0.8294 -0.1601
  181SLPC  C31620793   3.726   4.494   8.766  0.2062 -0.3239 -0.4928
  181SLPC  H16X20794   3.798   4.577   8.783  2.6568 -2.6045  0.9655
  181SLPC  H16Y20795   3.640   4.528   8.704 -0.0358 -2.1045 -1.1801
  181SLPC  C31720796   3.785   4.373   8.693 -0.4377  0.0345  0.3099
  181SLPC  H17X20797   3.735   4.363   8.594 -0.0845 -2.5949  0.3190
  181SLPC  H17Y20798   3.760   4.277   8.744  1.2374  0.0364  1.1879
  181SLPC  C31820799   3.935   4.393   8.673  0.3946  0.9344 -0.2282
  181SLPC  H18X20800   3.983   4.298   8.642 -0.8147  0.4205 -0.5910
  181SLPC  H18Y20801   3.977   4.415   8.773  0.1545  0.2971  0.0141
  181SLPC  H18Z20802   3.965   4.476   8.605  1.4974 -1.1307 -2.4017
  182SLPC     N20803   1.372   5.602  10.787  0.2718  0.1594  0.0456
  182SLPC   C1320804   1.381   5.510  10.906  0.3275  0.0164 -0.1623
  182SLPC  H13A20805   1.429   5.416  10.884  1.2172  0.7755 -1.6480
  182SLPC  H13B20806   1.436   5.565  10.982 -1.0298  1.2228 -0.0145
  182SLPC  H13C20807   1.289   5.493  10.959  1.0502  0.5383  1.3136
  182SLPC   C1420808   1.303   5.728  10.833  0.1251  0.9755  0.5510
  182SLPC  H14A20809   1.350   5.777  10.917 -1.4659  2.1354  0.8130
  182SLPC  H14B20810   1.288   5.797  10.752 -1.1645  0.4839  0.3454
  182SLPC  H14C20811   1.205   5.693  10.862  0.5436 -0.7284 -0.0037
  182SLPC   C1520812   1.276   5.539  10.679  0.2738  0.3219 -0.4508
  182SLPC  H15A20813   1.242   5.603  10.598  1.1731  0.9175 -0.3697
  182SLPC  H15B20814   1.319   5.447  10.640 -1.1455  0.3357 -2.1891
  182SLPC  H15C20815   1.183   5.514  10.727 -0.5002  0.5747 -1.7786
  182SLPC   C1220816   1.510   5.627  10.732 -0.4890  0.1912 -0.0001
  182SLPC  H12A20817   1.568   5.676  10.808  1.5759  0.2178 -1.5259
  182SLPC  H12B20818   1.509   5.702  10.655  0.6728  1.4121  1.1270
  182SLPC   C1120819   1.578   5.504  10.671  0.4447  0.9750 -0.5695
  182SLPC  H11A20820   1.679   5.531  10.632  0.9293 -0.8876 -0.6607
  182SLPC  H11B20821   1.524   5.469  10.580  1.9569 -0.9696 -0.7758
  182SLPC     P20822   1.716   5.354  10.836 -0.2299 -0.0285 -0.3238
  182SLPC   O1320823   1.790   5.478  10.855  0.1101 -0.1119  0.4190
  182SLPC   O1420824   1.679   5.281  10.959 -0.1854  0.2618  0.2180
  182SLPC   O1220825   1.584   5.388  10.760 -0.3154  0.4898  0.0613
  182SLPC   O1120826   1.784   5.270  10.730 -0.2307  0.2010  0.3028
  182SLPC    C120827   1.734   5.140  10.690 -0.2868  0.5517  0.7157
  182SLPC    HA20828   1.768   5.060  10.759  1.3224 -0.6589 -1.3928
  182SLPC    HB20829   1.623   5.144  10.698 -0.4405  0.4850 -1.0270
  182SLPC    C220830   1.785   5.098  10.545  0.3929 -0.0881 -0.4137
  182SLPC    HS20831   1.894   5.078  10.555  0.2522 -0.8461 -0.3625
  182SLPC   O2120832   1.772   5.201  10.448  0.6247  0.2616 -0.2377
  182SLPC   C2120833   1.659   5.250  10.406  0.8365  0.2425 -0.0432
  182SLPC   O2220834   1.548   5.197  10.422 -0.1999 -0.2132 -0.2959
  182SLPC   C2220835   1.680   5.379  10.320 -0.3136 -0.0051 -0.4930
  182SLPC   H2R20836   1.586   5.420  10.277  0.8520  1.5718 -1.6385
  182SLPC   H2S20837   1.725   5.448  10.394  1.3014 -2.5539  1.0852
  182SLPC    C320838   1.728   4.962  10.500  0.0129  0.4804 -0.3541
  182SLPC    HX20839   1.621   4.981  10.482 -0.1948  1.8427  1.9624
  182SLPC    HY20840   1.739   4.886  10.581 -0.8183 -0.0372 -0.7150
  182SLPC   O3120841   1.790   4.914  10.376  0.2401 -0.3180  0.7592
  182SLPC   C3120842   1.902   4.831  10.392  0.0476 -0.4244  0.0506
  182SLPC   O3220843   1.929   4.779  10.498  0.4523 -0.3063  0.3095
  182SLPC   C3220844   1.972   4.815  10.256 -0.8815  0.8759  0.2612
  182SLPC   H2X20845   2.049   4.895  10.256  0.9637 -0.8010 -1.1878
  182SLPC   H2Y20846   1.895   4.836  10.179 -2.1756 -0.8390  1.0267
  182SLPC   C2320847   1.764   5.365  10.188 -0.1711  0.4967 -0.5519
  182SLPC   H3R20848   1.859   5.312  10.211 -0.2836 -0.0171 -1.2157
  182SLPC   H3S20849   1.792   5.463  10.145 -0.0039  1.1508  0.9989
  182SLPC   C2420850   1.686   5.271  10.089  1.0786  0.2114  0.1217
  182SLPC   H4R20851   1.625   5.325  10.013  1.0294  0.0155  0.0199
  182SLPC   H4S20852   1.621   5.206  10.150  0.5961 -0.1025 -0.7079
  182SLPC   C2520853   1.780   5.162  10.021 -0.5874 -0.2318 -0.5565
  182SLPC   H5R20854   1.834   5.098  10.093 -1.5083 -0.6285 -0.1982
  182SLPC   H5S20855   1.855   5.224   9.969 -1.1550  1.2737  0.3290
  182SLPC   C2620856   1.707   5.075   9.913 -0.3101 -0.2083 -0.2065
  182SLPC   H6R20857   1.670   5.143   9.833  0.7996  1.1894  0.4314
  182SLPC   H6S20858   1.625   5.027   9.970  0.4590 -0.6618  0.5398
  182SLPC   C2720859   1.794   4.967   9.851  0.1943  0.4215 -0.4366
  182SLPC   H7R20860   1.728   4.893   9.802 -1.5183  1.7534 -0.2158
  182SLPC   H7S20861   1.840   4.906   9.932  1.4955 -1.3604 -2.3988
  182SLPC   C2820862   1.912   5.028   9.769  0.0600  0.5574  0.3416
  182SLPC   H8R20863   1.982   5.098   9.819  3.8470 -2.4384 -0.2940
  182SLPC   H8S20864   1.873   5.091   9.687 -0.7490 -1.8320 -1.2052
  182SLPC   C2920865   2.005   4.922   9.713  0.4883  0.3102  0.3747
  182SLPC   H9R20866   2.109   4.947   9.735  0.4913 -1.0509  2.1142
  182SLPC  C21020867   1.972   4.842   9.607 -0.8559  0.8559 -0.5438
  182SLPC  H10R20868   2.051   4.775   9.571 -1.3880  0.1958 -0.4965
  182SLPC  C21120869   1.852   4.828   9.532  0.6660 -0.5323  0.3406
  182SLPC  H11R20870   1.760   4.815   9.594  0.2109  0.4999 -0.1028
  182SLPC  H11S20871   1.856   4.732   9.478 -0.0279 -0.8873  0.8954
  182SLPC  C21220872   1.839   4.950   9.442 -0.2970 -0.2944  0.4173
  182SLPC  H12R20873   1.772   5.031   9.475  0.0493 -0.3280  1.2081
  182SLPC  C21320874   1.854   4.944   9.309 -0.1787 -0.4036  0.1508
  182SLPC  H13R20875   1.862   5.040   9.257  0.1242 -0.9478 -0.8310
  182SLPC  C21420876   1.919   4.827   9.233  0.5321 -0.2714 -0.3313
  182SLPC  H14R20877   1.865   4.785   9.146 -1.5620  2.5168 -0.5400
  182SLPC  H14S20878   1.943   4.743   9.302 -0.1353  0.6779  1.1261
  182SLPC  C21520879   2.050   4.875   9.177  0.3251 -1.1675 -0.2884
  182SLPC  H15R20880   2.124   4.894   9.257  1.4113 -1.2465 -1.2440
  182SLPC  H15S20881   2.052   4.964   9.110 -0.0638  0.0100  1.2066
  182SLPC  C21620882   2.117   4.766   9.098 -0.7761  0.2848 -0.2502
  182SLPC  H16R20883   2.044   4.751   9.016 -0.9061  1.4339 -0.3627
  182SLPC  H16S20884   2.118   4.674   9.159 -0.7385  0.9612  0.7968
  182SLPC  C21720885   2.259   4.816   9.047  0.0333  0.3704  0.2943
  182SLPC  H17R20886   2.273   4.919   9.086  1.5506  0.5760 -0.6689
  182SLPC  H17S20887   2.249   4.828   8.937 -1.3845  1.9184  0.5492
  182SLPC  C21820888   2.378   4.724   9.086  0.2376  0.2674 -0.0582
  182SLPC  H18R20889   2.401   4.707   9.194  1.8024 -2.3383 -0.7064
  182SLPC  H18S20890   2.474   4.763   9.044 -0.6877  1.7965 -0.8452
  182SLPC  H18T20891   2.365   4.623   9.043  0.9527 -0.6812  1.8176
  182SLPC   C3320892   2.028   4.672  10.236 -0.3391  0.4208 -0.1377
  182SLPC   H3X20893   1.946   4.605  10.270 -0.0395 -0.1865 -0.5923
  182SLPC   H3Y20894   2.127   4.666  10.288  1.4183  1.1660 -3.1398
  182SLPC   C3420895   2.069   4.643  10.089 -0.1130  0.6393 -0.4475
  182SLPC   H4X20896   2.155   4.709  10.068  2.1679 -1.8911  0.3792
  182SLPC   H4Y20897   1.980   4.665  10.026 -0.2510 -2.1823 -1.3768
  182SLPC   C3520898   2.110   4.498  10.064 -0.6686  0.2707  0.7505
  182SLPC   H5X20899   2.039   4.427  10.113 -0.0101  0.2191  1.6716
  182SLPC   H5Y20900   2.216   4.497  10.098 -0.9274  0.0971  1.5846
  182SLPC   C3620901   2.117   4.455   9.906 -0.8117 -1.1282 -0.7334
  182SLPC   H6X20902   2.013   4.446   9.870 -2.7972 -0.5819  4.1845
  182SLPC   H6Y20903   2.175   4.361   9.899 -0.4410 -1.0946  1.3640
  182SLPC   C3720904   2.193   4.562   9.828  0.1561 -0.1439 -0.0720
  182SLPC   H7X20905   2.273   4.593   9.900 -0.0693  0.1866  0.0390
  182SLPC   H7Y20906   2.135   4.654   9.809  1.6051  1.3352  2.1000
  182SLPC   C3820907   2.240   4.525   9.681  0.5591  0.3239  0.1358
  182SLPC   H8X20908   2.298   4.430   9.685 -0.0747 -0.0188  1.9460
  182SLPC   H8Y20909   2.309   4.604   9.644 -1.0718  1.8505  0.2478
  182SLPC   C3920910   2.133   4.507   9.573 -0.1506 -0.5225 -0.0121
  182SLPC   H9X20911   2.033   4.546   9.602  0.2698 -1.1062  2.4623
  182SLPC   H9Y20912   2.112   4.398   9.563 -1.5614 -0.1540 -1.4894
  182SLPC  C31020913   2.171   4.570   9.435 -0.0373 -0.0424 -0.3285
  182SLPC  H10X20914   2.165   4.681   9.434  0.2080  0.0687 -4.1237
  182SLPC  H10Y20915   2.090   4.544   9.363 -1.6324  2.3344  0.4648
  182SLPC  C31120916   2.307   4.525   9.381 -0.0444 -0.4177  0.0957
  182SLPC  H11X20917   2.379   4.564   9.455  0.4377 -2.2020  0.6188
  182SLPC  H11Y20918   2.317   4.575   9.282 -0.9675 -0.4282 -0.0114
  182SLPC  C31220919   2.318   4.384   9.334 -0.2165 -0.5302 -0.0445
  182SLPC  H12X20920   2.249   4.359   9.251 -1.7269 -1.4786  1.4135
  182SLPC  H12Y20921   2.289   4.321   9.421  3.0491  0.0011  1.5822
  182SLPC  C31320922   2.466   4.353   9.307  0.3561  0.7649 -0.1717
  182SLPC  H13X20923   2.473   4.243   9.288  1.0515  0.7846 -0.0622
  182SLPC  H13Y20924   2.523   4.372   9.400  0.4014  0.0068 -0.0353
  182SLPC  C31420925   2.532   4.428   9.195  0.3426 -0.6459  0.6429
  182SLPC  H14X20926   2.533   4.535   9.222  0.8045 -0.1403 -1.2412
  182SLPC  H14Y20927   2.478   4.426   9.098  1.6751  1.0754 -0.1846
  182SLPC  C31520928   2.682   4.391   9.181 -0.6244 -0.4126 -0.7175
  182SLPC  H15X20929   2.702   4.282   9.188 -0.6472 -0.2930  2.9383
  182SLPC  H15Y20930   2.745   4.447   9.254 -1.5955  2.1096 -1.6718
  182SLPC  C31620931   2.741   4.435   9.049  0.4676 -0.0263  0.7997
  182SLPC  H16X20932   2.738   4.545   9.034  1.1720 -0.1303 -0.1612
  182SLPC  H16Y20933   2.671   4.392   8.974 -0.5474  0.7679  1.2694
  182SLPC  C31720934   2.890   4.390   9.029 -0.1926  0.9900  0.1250
  182SLPC  H17X20935   2.944   4.413   9.123  1.2274  1.6162 -0.8177
  182SLPC  H17Y20936   2.929   4.463   8.956 -1.2951 -1.2709 -2.9193
  182SLPC  C31820937   2.921   4.245   8.998 -0.2534 -0.1505 -0.0786
  182SLPC  H18X20938   2.904   4.179   9.086 -2.4400  0.1476 -0.2144
  182SLPC  H18Y20939   3.027   4.235   8.967  0.1138  0.8992  0.7677
  182SLPC  H18Z20940   2.861   4.198   8.917 -0.3112 -0.4209  0.1205
  183SLPC     N20941   3.716   5.078  10.768 -0.2673  0.3951 -0.4030
  183SLPC   C1320942   3.856   5.094  10.785  0.2338  0.7877  0.0651
  183SLPC  H13A20943   3.907   5.114  10.692 -1.7116 -1.7722 -1.7097
  183SLPC  H13B20944   3.867   5.178  10.852 -1.0618  2.1361 -1.3463
  183SLPC  H13C20945   3.890   5.002  10.831  0.4525  0.3987 -0.8554
  183SLPC   C1420946   3.649   5.210  10.742 -0.4663  0.5467  0.4117
  183SLPC  H14A20947   3.690   5.250  10.651 -0.0928 -2.3561 -0.8033
  183SLPC  H14B20948   3.542   5.200  10.735 -0.3093 -0.7904 -0.4923
  183SLPC  H14C20949   3.678   5.283  10.817  3.9674  1.5742 -1.9455
  183SLPC   C1520950   3.653   5.030  10.899 -0.3170 -0.4893  0.5295
  183SLPC  H15A20951   3.562   4.975  10.879 -0.9239  1.0989 -1.3873
  183SLPC  H15B20952   3.726   4.970  10.951  0.8021 -0.0583 -0.5124
  183SLPC  H15C20953   3.625   5.112  10.964  0.1885 -1.0976  1.5489
  183SLPC   C1220954   3.681   4.973  10.663  0.7942  0.3075 -0.1445
  183SLPC  H12A20955   3.575   4.981  10.642  0.5886 -2.8354 -0.7202
  183SLPC  H12B20956   3.703   4.872  10.693  0.4057  0.1903 -0.2485
  183SLPC   C1120957   3.750   4.981  10.525  0.1880  0.3188 -0.8157
  183SLPC  H11A20958   3.754   4.890  10.462  1.1944  0.1465 -0.5309
  183SLPC  H11B20959   3.860   4.986  10.541  0.2938  0.0521 -1.4341
  183SLPC     P20960   3.569   5.120  10.398 -0.3171 -0.3957 -0.3184
  183SLPC   O1320961   3.470   5.099  10.506  0.0393 -0.3792  0.6533
  183SLPC   O1420962   3.556   5.240  10.322  0.4575 -0.8428  0.0915
  183SLPC   O1220963   3.715   5.104  10.457 -0.1773 -0.2379  0.0714
  183SLPC   O1120964   3.548   5.003  10.294 -0.2068  0.0066 -0.2184
  183SLPC    C120965   3.650   4.954  10.203  0.2364  0.3692  0.0045
  183SLPC    HA20966   3.736   4.904  10.253  0.2305 -1.4166 -1.6236
  183SLPC    HB20967   3.590   4.881  10.144 -1.1444  0.7132  0.9498
  183SLPC    C220968   3.699   5.073  10.115  0.1734  0.3022  0.2178
  183SLPC    HS20969   3.748   5.144  10.184 -0.4843  1.1705 -0.1878
  183SLPC   O2120970   3.583   5.121  10.049  0.2476 -0.0089 -0.3395
  183SLPC   C2120971   3.582   5.252  10.019  0.4803 -0.0677  0.1485
  183SLPC   O2220972   3.666   5.334  10.030 -0.9280  0.0645  0.0723
  183SLPC   C2220973   3.443   5.297   9.970  0.2386 -0.3598 -0.1390
  183SLPC   H2R20974   3.373   5.211   9.973 -1.1852  0.6929 -1.5060
  183SLPC   H2S20975   3.395   5.360  10.048 -0.8460  1.4195 -2.1313
  183SLPC    C320976   3.813   5.022  10.014 -0.1838  0.5300  0.3471
  183SLPC    HX20977   3.903   5.006  10.076 -0.3815 -1.2855  0.2269
  183SLPC    HY20978   3.827   5.114   9.953 -0.3497  0.2793 -0.0741
  183SLPC   O3120979   3.784   4.900   9.942  0.3944  0.0126  0.1735
  183SLPC   C3120980   3.709   4.910   9.839 -0.3046 -1.0293  0.6378
  183SLPC   O3220981   3.676   5.015   9.784  0.3274 -0.2385  0.0253
  183SLPC   C3220982   3.638   4.782   9.816 -0.1830  0.1249  0.2625
  183SLPC   H2X20983   3.567   4.775   9.901 -1.0376 -1.9748 -0.5719
  183SLPC   H2Y20984   3.711   4.699   9.814  0.3401  0.5872 -0.6489
  183SLPC   C2320985   3.455   5.369   9.832 -0.0666 -0.3821 -0.0200
  183SLPC   H3R20986   3.538   5.444   9.828  0.8855 -1.2701  1.8324
  183SLPC   H3S20987   3.363   5.427   9.810  0.6977  0.0540 -2.3162
  183SLPC   C2420988   3.472   5.272   9.713  0.3958  0.1162  0.1615
  183SLPC   H4R20989   3.404   5.184   9.717 -0.4033  0.7349  0.3636
  183SLPC   H4S20990   3.577   5.238   9.707  0.2711 -0.6175  1.6004
  183SLPC   C2520991   3.433   5.342   9.580  0.0628  0.6626 -0.6017
  183SLPC   H5R20992   3.500   5.428   9.558  0.1794  0.4175 -1.2321
  183SLPC   H5S20993   3.330   5.383   9.587  0.0566  0.6357 -0.5382
  183SLPC   C2620994   3.426   5.240   9.468 -0.1928 -0.0719 -0.4487
  183SLPC   H6R20995   3.349   5.165   9.496 -1.7264  0.6921 -2.3575
  183SLPC   H6S20996   3.519   5.179   9.464  0.7307  1.1692  0.9660
  183SLPC   C2720997   3.385   5.299   9.332 -0.6365 -0.0905  0.3847
  183SLPC   H7R20998   3.453   5.380   9.300  1.4390 -0.9920  2.2441
  183SLPC   H7S20999   3.282   5.340   9.335  0.3841  2.9995 -1.7687
  183SLPC   C2821000   3.400   5.190   9.227  0.6631 -0.0312 -0.1564
  183SLPC   H8R21001   3.324   5.113   9.249 -0.7486  0.8632 -1.6782
  183SLPC   H8S21002   3.501   5.147   9.245  0.8860  0.9494  1.1189
  183SLPC   C2921003   3.385   5.252   9.093 -0.0095  0.0265 -0.0618
  183SLPC   H9R21004   3.468   5.318   9.064 -0.9977  1.3388 -0.0039
  183SLPC  C21021005   3.282   5.226   9.003  0.2842  0.2825 -0.2515
  183SLPC  H10R21006   3.280   5.286   8.910  1.7684 -1.4448 -1.4622
  183SLPC  C21121007   3.177   5.122   9.029  0.9081 -0.6647 -0.1979
  183SLPC  H11R21008   3.144   5.128   9.135  3.1827 -0.4049  0.5432
  183SLPC  H11S21009   3.220   5.020   9.018 -2.2625 -2.4213  1.9460
  183SLPC  C21221010   3.052   5.129   8.950  0.8115 -0.4952  0.3164
  183SLPC  H12R21011   3.047   5.230   8.905  0.8628 -0.6762 -0.0968
  183SLPC  C21321012   2.958   5.040   8.928 -0.0980  0.2405 -0.1554
  183SLPC  H13R21013   2.865   5.078   8.884 -0.0353  2.7694  1.6564
  183SLPC  C21421014   2.965   4.901   8.977  0.5805 -0.0890  0.1057
  183SLPC  H14R21015   2.881   4.893   9.049  2.1778 -1.2538  1.9150
  183SLPC  H14S21016   3.057   4.871   9.031  0.6110  0.0608  0.1349
  183SLPC  C21521017   2.935   4.802   8.855 -0.0274 -0.1343  0.6360
  183SLPC  H15R21018   2.940   4.698   8.894  2.3336 -0.7609 -1.1196
  183SLPC  H15S21019   3.012   4.809   8.776 -1.1891 -0.8359 -0.6208
  183SLPC  C21621020   2.791   4.821   8.802  0.2698  0.4574  0.0213
  183SLPC  H16R21021   2.790   4.915   8.744  3.0603  0.7270  0.3053
  183SLPC  H16S21022   2.728   4.832   8.893 -1.0626 -1.2430 -0.6345
  183SLPC  C21721023   2.743   4.694   8.724  0.3235 -0.4190 -0.7547
  183SLPC  H17R21024   2.763   4.607   8.790 -0.3745 -1.1724 -1.5218
  183SLPC  H17S21025   2.811   4.698   8.636  1.0757 -1.2591 -0.2317
  183SLPC  C21821026   2.600   4.693   8.674 -1.2514  0.0802 -1.0301
  183SLPC  H18R21027   2.526   4.684   8.757  0.5195 -0.2386  0.5887
  183SLPC  H18S21028   2.584   4.602   8.612  3.0109 -2.0231  0.5774
  183SLPC  H18T21029   2.584   4.790   8.621  1.3224  1.0128 -0.2452
  183SLPC   C3321030   3.559   4.780   9.678 -0.0723  0.1399 -0.3948
  183SLPC   H3X21031   3.490   4.867   9.675 -0.2099  0.0425 -0.1331
  183SLPC   H3Y21032   3.517   4.677   9.671  1.9198 -0.6847 -0.9530
  183SLPC   C3421033   3.648   4.799   9.557  0.3374  0.1511  0.2109
  183SLPC   H4X21034   3.740   4.738   9.576 -0.3507 -0.8636  0.3980
  183SLPC   H4Y21035   3.664   4.908   9.571  1.8902 -0.1843  1.3734
  183SLPC   C3521036   3.581   4.781   9.426 -0.0614  0.2540  0.5361
  183SLPC   H5X21037   3.478   4.821   9.425 -0.2322 -0.1797  0.1109
  183SLPC   H5Y21038   3.581   4.673   9.397  0.5250  0.2845  0.3912
  183SLPC   C3621039   3.655   4.852   9.306  0.2007 -0.2756 -0.0707
  183SLPC   H6X21040   3.765   4.834   9.300  0.1365 -0.4532 -0.8668
  183SLPC   H6Y21041   3.645   4.956   9.343 -0.1909 -0.4711  0.3769
  183SLPC   C3721042   3.577   4.847   9.177  0.0515  0.4047  0.2709
  183SLPC   H7X21043   3.468   4.867   9.185 -0.4596 -0.6528 -2.7717
  183SLPC   H7Y21044   3.575   4.744   9.135 -0.2200 -0.2300  1.7903
  183SLPC   C3821045   3.647   4.933   9.069  0.3875 -0.4830  0.9932
  183SLPC   H8X21046   3.755   4.906   9.075  0.9229  1.6248  1.5862
  183SLPC   H8Y21047   3.631   5.042   9.083  2.2602 -0.1466  0.7594
  183SLPC   C3921048   3.598   4.896   8.929  0.0952  0.2396 -0.3639
  183SLPC   H9X21049   3.490   4.871   8.936 -0.2422  0.9842 -2.3474
  183SLPC   H9Y21050   3.653   4.806   8.894  0.1048  0.3380 -0.6028
  183SLPC  C31021051   3.623   5.004   8.829 -0.0085 -0.0783  0.3252
  183SLPC  H10X21052   3.730   5.036   8.834  1.1600 -3.6640  1.1931
  183SLPC  H10Y21053   3.561   5.095   8.844 -0.2683 -0.2083  0.0456
  183SLPC  C31121054   3.599   4.967   8.683 -0.1299  0.6390  0.1060
  183SLPC  H11X21055   3.493   4.937   8.675 -0.2706  1.6056 -3.2203
  183SLPC  H11Y21056   3.668   4.886   8.652  0.6234  1.2116  0.2261
  183SLPC  C31221057   3.638   5.075   8.576 -0.0776  0.3732 -0.1037
  183SLPC  H12X21058   3.747   5.080   8.591 -0.1231 -0.0457  0.3712
  183SLPC  H12Y21059   3.582   5.167   8.605 -1.7118 -0.3717 -0.7548
  183SLPC  C31321060   3.606   5.048   8.433 -0.7401 -0.3703 -0.4605
  183SLPC  H13X21061   3.496   5.046   8.423 -0.6583  0.2321 -1.6252
  183SLPC  H13Y21062   3.654   4.951   8.406 -0.4960 -0.0149 -1.3246
  183SLPC  C31421063   3.665   5.140   8.326  0.4797  0.3050  0.5426
  183SLPC  H14X21064   3.775   5.123   8.324  0.6960  1.6130  0.0594
  183SLPC  H14Y21065   3.650   5.245   8.358  1.5055  0.6535 -0.0465
  183SLPC  C31521066   3.601   5.121   8.184  0.2461 -0.7855  0.0461
  183SLPC  H15X21067   3.645   5.195   8.115  2.0485  0.7223  2.6383
  183SLPC  H15Y21068   3.497   5.154   8.204  0.6421  0.2353  0.4863
  183SLPC  C31621069   3.605   4.982   8.138  0.4192 -0.0009  0.1993
  183SLPC  H16X21070   3.559   4.911   8.209  0.1729  0.0120  0.0555
  183SLPC  H16Y21071   3.712   4.952   8.135 -0.2332 -2.5518 -0.0110
  183SLPC  C31721072   3.541   4.974   7.994  0.1525  0.0567 -0.1033
  183SLPC  H17X21073   3.564   4.885   7.931  0.2059  1.2352 -1.8178
  183SLPC  H17Y21074   3.583   5.055   7.930  1.8775 -0.4879  0.2658
  183SLPC  C31821075   3.383   4.987   7.993  0.1199  0.3432 -0.6995
  183SLPC  H18X21076   3.340   4.920   8.070  2.6244  0.7796  1.1882
  183SLPC  H18Y21077   3.352   4.968   7.888  4.2572 -2.0761 -1.7206
  183SLPC  H18Z21078   3.355   5.088   8.029 -2.4794 -0.7026  0.4394
  184SLPC     N21079   5.587   4.185  10.766 -0.1323  0.6588  0.7188
  184SLPC   C1321080   5.557   4.063  10.690  0.4918 -0.0552 -0.7033
  184SLPC  H13A21081   5.476   4.008  10.735 -0.1960  1.8850  0.5447
  184SLPC  H13B21082   5.523   4.089  10.591 -0.7868  1.0578 -0.0011
  184SLPC  H13C21083   5.647   4.004  10.684  0.7360 -0.0080  1.6841
  184SLPC   C1421084   5.621   4.150  10.906  0.2407 -0.0851 -0.3413
  184SLPC  H14A21085   5.693   4.070  10.902  0.3480 -0.2718  2.6906
  184SLPC  H14B21086   5.656   4.233  10.965 -2.1995  1.2101 -0.6090
  184SLPC  H14C21087   5.533   4.117  10.959 -0.1267  1.3775 -0.0120
  184SLPC   C1521088   5.469   4.277  10.771  0.7053 -0.9003  0.4961
  184SLPC  H15A21089   5.386   4.233  10.824 -0.1328 -0.8641 -0.7490
  184SLPC  H15B21090   5.487   4.370  10.823 -3.2406  0.2354  0.1419
  184SLPC  H15C21091   5.437   4.299  10.670 -0.7085  0.9341  1.2978
  184SLPC   C1221092   5.699   4.249  10.688 -0.1043 -0.3543 -0.3972
  184SLPC  H12A21093   5.787   4.187  10.702  0.7748  1.1833  1.2159
  184SLPC  H12B21094   5.727   4.338  10.743  1.0368 -0.0667 -1.4162
  184SLPC   C1121095   5.683   4.283  10.540 -0.0351  0.3320 -0.4086
  184SLPC  H11A21096   5.650   4.186  10.497 -0.0169  1.0207 -2.0368
  184SLPC  H11B21097   5.781   4.309  10.495 -0.8197  0.1506 -2.3008
  184SLPC     P21098   5.628   4.542  10.552  0.2771  0.0745 -0.3240
  184SLPC   O1321099   5.570   4.595  10.681  0.5819  0.4568 -0.3159
  184SLPC   O1421100   5.774   4.555  10.533  0.2757  0.1135  0.3801
  184SLPC   O1221101   5.588   4.387  10.520 -0.2868  0.5063  0.1890
  184SLPC   O1121102   5.559   4.619  10.427 -0.1899 -0.2478 -0.2230
  184SLPC    C121103   5.446   4.562  10.362  0.6255 -0.1567  0.1974
  184SLPC    HA21104   5.401   4.481  10.424 -0.5090  1.7422  2.0065
  184SLPC    HB21105   5.365   4.638  10.353  1.3870  0.4994 -1.3567
  184SLPC    C221106   5.479   4.497  10.224  0.4986 -0.3009 -0.0562
  184SLPC    HS21107   5.528   4.399  10.241  2.1589  0.3214 -0.9609
  184SLPC   O2121108   5.572   4.578  10.157 -0.6677 -0.0237  0.3375
  184SLPC   C2121109   5.662   4.526  10.088 -0.3416  1.1040  0.3780
  184SLPC   O2221110   5.697   4.410  10.086 -0.0857 -0.2196 -0.6243
  184SLPC   C2221111   5.731   4.635  10.006 -0.0609 -0.3390 -0.1234
  184SLPC   H2R21112   5.682   4.733  10.027  1.3605  0.4318 -0.3149
  184SLPC   H2S21113   5.832   4.644  10.050  0.8106  1.1256 -2.2383
  184SLPC    C321114   5.349   4.473  10.140 -0.0048  0.2782 -0.4951
  184SLPC    HX21115   5.292   4.566  10.119 -0.0942  0.6134  1.1075
  184SLPC    HY21116   5.280   4.413  10.204  0.5783  1.3476  1.1987
  184SLPC   O3121117   5.385   4.420  10.009  0.5995 -0.1465  0.2181
  184SLPC   C3121118   5.361   4.293   9.994 -0.6754  0.4145  0.4836
  184SLPC   O3221119   5.309   4.219  10.076  0.0778 -0.0360  0.2389
  184SLPC   C3221120   5.413   4.249   9.858 -0.3026  0.4403 -0.1763
  184SLPC   H2X21121   5.473   4.330   9.812 -1.3381  1.1086 -0.3766
  184SLPC   H2Y21122   5.316   4.234   9.806 -1.3876 -2.6633  2.3704
  184SLPC   C2321123   5.725   4.626   9.849 -0.2045 -0.1211 -0.0933
  184SLPC   H3R21124   5.757   4.526   9.813  1.6386  0.7699 -1.0475
  184SLPC   H3S21125   5.805   4.690   9.806 -0.2685 -1.4593 -2.3205
  184SLPC   C2421126   5.591   4.663   9.788  0.0558 -0.0999  1.0551
  184SLPC   H4R21127   5.570   4.771   9.799 -0.1263  0.2148 -1.6872
  184SLPC   H4S21128   5.507   4.598   9.820 -0.0925 -0.1489  0.5656
  184SLPC   C2521129   5.594   4.646   9.634 -0.2408  0.1287  0.7585
  184SLPC   H5R21130   5.683   4.704   9.599 -1.2554  0.6320 -1.1354
  184SLPC   H5S21131   5.505   4.694   9.588  0.2173  1.1393  0.8851
  184SLPC   C2621132   5.588   4.498   9.577 -0.4940 -0.6182 -0.4585
  184SLPC   H6R21133   5.496   4.448   9.616  0.0662 -0.8804  0.5768
  184SLPC   H6S21134   5.673   4.441   9.620 -1.4174 -1.6224  0.1041
  184SLPC   C2721135   5.600   4.482   9.433 -0.0877  0.1061  0.0845
  184SLPC   H7R21136   5.691   4.527   9.389 -1.7856  1.1986 -2.6039
  184SLPC   H7S21137   5.518   4.531   9.375 -0.3350 -1.0442 -0.5821
  184SLPC   C2821138   5.599   4.333   9.406 -0.6381  0.2745 -0.6214
  184SLPC   H8R21139   5.512   4.295   9.464 -0.6223  0.6232 -0.3673
  184SLPC   H8S21140   5.686   4.288   9.459 -0.9656  0.7670  0.3627
  184SLPC   C2921141   5.595   4.297   9.260  0.1843  0.4887 -0.3523
  184SLPC   H9R21142   5.691   4.303   9.206 -0.6356  0.1012 -1.9254
  184SLPC  C21021143   5.485   4.266   9.183  0.2652  0.5709 -0.0153
  184SLPC  H10R21144   5.492   4.248   9.075  0.0837  1.2008 -0.1351
  184SLPC  C21121145   5.347   4.265   9.237  0.7065 -0.3392 -0.5117
  184SLPC  H11R21146   5.339   4.314   9.336  1.6271  0.8056 -0.9642
  184SLPC  H11S21147   5.334   4.164   9.280  0.7825  1.1733  3.5389
  184SLPC  C21221148   5.248   4.320   9.135  0.3018  0.0796 -0.1194
  184SLPC  H12R21149   5.248   4.429   9.125  2.1383  0.3168  1.8052
  184SLPC  C21321150   5.179   4.246   9.046 -0.1054 -0.5367 -0.2319
  184SLPC  H13R21151   5.119   4.293   8.967 -3.2656 -3.5051  0.1596
  184SLPC  C21421152   5.174   4.094   9.031  0.1995 -1.0427 -0.0672
  184SLPC  H14R21153   5.073   4.063   8.999 -1.2387  0.0920  3.0326
  184SLPC  H14S21154   5.180   4.046   9.131 -0.7446 -1.9900 -0.4574
  184SLPC  C21521155   5.276   4.041   8.928 -0.2927  0.4233  0.3946
  184SLPC  H15R21156   5.293   3.936   8.960 -1.4148 -0.0625 -0.5519
  184SLPC  H15S21157   5.372   4.097   8.940 -1.2494  2.0233  0.8642
  184SLPC  C21621158   5.217   4.045   8.785  0.0262 -0.3257  0.4985
  184SLPC  H16R21159   5.217   4.149   8.747 -0.2774 -1.2209 -2.1408
  184SLPC  H16S21160   5.113   4.008   8.771  0.2838 -0.8350 -0.1112
  184SLPC  C21721161   5.312   3.970   8.696  0.2446 -0.2449  0.2720
  184SLPC  H17R21162   5.417   4.002   8.714  0.2131 -0.7900  1.4988
  184SLPC  H17S21163   5.288   4.007   8.594 -1.0769  0.5412  0.8470
  184SLPC  C21821164   5.288   3.820   8.690 -0.1405  0.7610  0.8351
  184SLPC  H18R21165   5.276   3.779   8.793  0.4892  1.9112  1.3836
  184SLPC  H18S21166   5.370   3.777   8.628 -1.0608  2.1485 -1.4851
  184SLPC  H18T21167   5.191   3.803   8.638  0.6954  2.4263 -1.4485
  184SLPC   C3321168   5.503   4.125   9.875 -0.6781  0.0104  0.2910
  184SLPC   H3X21169   5.463   4.044   9.940  0.4531  0.2734  1.3571
  184SLPC   H3Y21170   5.598   4.159   9.922 -0.1590  1.7829 -1.8978
  184SLPC   C3421171   5.538   4.062   9.736  0.1297  0.3038 -0.0005
  184SLPC   H4X21172   5.632   4.005   9.750 -0.8551 -1.4519 -0.3374
  184SLPC   H4Y21173   5.551   4.150   9.669 -0.7264  3.2201  3.3147
  184SLPC   C3521174   5.432   3.967   9.684 -0.0577  0.1366 -0.0993
  184SLPC   H5X21175   5.337   4.023   9.670 -0.6895 -0.6123  0.9836
  184SLPC   H5Y21176   5.408   3.897   9.767  1.0398  0.2071  0.2898
  184SLPC   C3621177   5.486   3.886   9.566 -0.0595  0.1167  0.3407
  184SLPC   H6X21178   5.424   3.794   9.566  3.3620 -2.5023 -2.8204
  184SLPC   H6Y21179   5.589   3.857   9.593  0.1851  2.1892  1.8483
  184SLPC   C3721180   5.486   3.962   9.438  0.1078 -0.5602 -0.3585
  184SLPC   H7X21181   5.581   4.020   9.438  0.2559 -0.7674 -2.0109
  184SLPC   H7Y21182   5.399   4.029   9.423  2.1455  2.3211 -0.2726
  184SLPC   C3821183   5.509   3.863   9.317  0.2030  0.0071  0.4411
  184SLPC   H8X21184   5.425   3.791   9.321  0.6695 -0.5611  0.2131
  184SLPC   H8Y21185   5.595   3.796   9.338  0.7495  0.8415  0.9085
  184SLPC   C3921186   5.524   3.926   9.181 -0.6089 -0.0406 -1.0381
  184SLPC   H9X21187   5.602   4.005   9.180  0.3843 -0.9444  0.6921
  184SLPC   H9Y21188   5.429   3.978   9.158  0.1997  0.4363 -3.6191
  184SLPC  C31021189   5.540   3.831   9.067  0.2676 -0.3785  0.6938
  184SLPC  H10X21190   5.487   3.873   8.978 -1.0680 -1.7111  0.8156
  184SLPC  H10Y21191   5.488   3.738   9.098 -0.5530 -0.1234  0.1092
  184SLPC  C31121192   5.688   3.802   9.048  0.2172  0.0283 -0.5629
  184SLPC  H11X21193   5.700   3.714   8.982  2.1973  0.2454 -0.5485
  184SLPC  H11Y21194   5.738   3.779   9.145 -0.4287 -1.3487 -0.5456
  184SLPC  C31221195   5.771   3.922   8.976 -0.2011  0.7850  0.0942
  184SLPC  H12X21196   5.870   3.874   8.966 -0.4299 -0.4365  2.8654
  184SLPC  H12Y21197   5.774   4.008   9.046  1.2488 -0.0235  1.0628
  184SLPC  C31321198   5.725   3.959   8.832 -0.1820  0.0467 -0.3086
  184SLPC  H13X21199   5.616   3.952   8.813 -0.6419 -1.8055  2.3503
  184SLPC  H13Y21200   5.760   3.873   8.771  1.2239 -0.4052  1.0550
  184SLPC  C31421201   5.774   4.098   8.783  0.7475  0.1047 -0.3797
  184SLPC  H14X21202   5.746   4.093   8.676 -2.5589 -4.1977  0.3909
  184SLPC  H14Y21203   5.882   4.109   8.807  1.2010 -2.6234 -0.8022
  184SLPC  C31521204   5.696   4.213   8.845 -0.1560  0.9038  0.4629
  184SLPC  H15X21205   5.710   4.227   8.954 -0.0527  2.8495  0.2368
  184SLPC  H15Y21206   5.586   4.196   8.833  0.3013 -1.2469 -1.3400
  184SLPC  C31621207   5.720   4.355   8.786 -0.6527  0.3539  0.0445
  184SLPC  H16X21208   5.687   4.348   8.680 -0.5102  0.1810  0.0119
  184SLPC  H16Y21209   5.826   4.389   8.777 -0.1718 -1.2865 -0.8587
  184SLPC  C31721210   5.647   4.464   8.867 -0.0031 -0.5516  0.3294
  184SLPC  H17X21211   5.652   4.457   8.978 -3.6150 -1.9973  0.5339
  184SLPC  H17Y21212   5.538   4.465   8.843 -0.0832 -1.5798  0.5959
  184SLPC  C31821213   5.706   4.602   8.818 -0.2364  0.2270  0.6861
  184SLPC  H18X21214   5.813   4.626   8.834 -0.4982  1.7133  0.4083
  184SLPC  H18Y21215   5.666   4.676   8.891  1.3203 -0.5030  2.3680
  184SLPC  H18Z21216   5.677   4.609   8.711 -0.1862 -0.4551  0.6275
  185SLPC     N21217   3.579   1.218   5.895 -1.1994  1.5017 -0.5268
  185SLPC   C1321218   3.559   1.207   5.751  0.2291 -0.8671 -0.0734
  185SLPC  H13A21219   3.477   1.274   5.727 -0.3732 -1.0380  1.4367
  185SLPC  H13B21220   3.650   1.241   5.703 -0.2639 -0.6875 -0.9086
  185SLPC  H13C21221   3.516   1.118   5.707 -1.6751 -0.8477  1.5934
  185SLPC   C1421222   3.447   1.190   5.964 -0.2359 -0.0112  0.3786
  185SLPC  H14A21223   3.379   1.267   5.932 -0.2743  0.2502  1.0751
  185SLPC  H14B21224   3.416   1.092   5.930  2.2762 -1.6984  2.5913
  185SLPC  H14C21225   3.469   1.191   6.069  0.2647 -1.9896  0.3428
  185SLPC   C1521226   3.624   1.357   5.930 -0.2397 -0.3978 -0.5451
  185SLPC  H15A21227   3.712   1.391   5.878  0.8279 -1.0177  0.7828
  185SLPC  H15B21228   3.547   1.430   5.909 -1.6357 -1.5747  0.2773
  185SLPC  H15C21229   3.651   1.370   6.034 -0.0009 -0.0872 -0.6444
  185SLPC   C1221230   3.696   1.128   5.936 -0.1065 -0.5691  0.1120
  185SLPC  H12A21231   3.783   1.159   5.880 -0.9485 -1.0942 -1.5505
  185SLPC  H12B21232   3.674   1.026   5.907  0.8309 -0.5484 -0.7302
  185SLPC   C1121233   3.730   1.116   6.087  0.4700 -0.0320  0.1630
  185SLPC  H11A21234   3.727   1.213   6.139  0.4663 -0.2905  0.6524
  185SLPC  H11B21235   3.835   1.081   6.096  0.9417  1.3926  0.4597
  185SLPC     P21236   3.642   0.873   6.130 -0.4349 -0.3494 -0.2017
  185SLPC   O1321237   3.599   0.840   5.996 -0.6327  0.7380 -0.1363
  185SLPC   O1421238   3.775   0.824   6.170  0.4801 -0.2867 -0.2618
  185SLPC   O1221239   3.637   1.028   6.150 -0.3422 -0.7787  0.1999
  185SLPC   O1121240   3.538   0.825   6.239  0.2807  0.3704  0.3968
  185SLPC    C121241   3.412   0.896   6.242  0.3539  0.5050 -0.2522
  185SLPC    HA21242   3.398   0.975   6.165 -0.2226 -0.1681 -0.8590
  185SLPC    HB21243   3.336   0.818   6.219  0.6267  1.1815 -4.0559
  185SLPC    C221244   3.385   0.950   6.386 -0.0649 -0.3795 -0.9004
  185SLPC    HS21245   3.285   0.994   6.404  0.3644  0.3058 -0.1604
  185SLPC   O2121246   3.489   1.039   6.428  0.4284 -0.4443  0.1673
  185SLPC   C2121247   3.483   1.163   6.373  0.8975  0.8155 -0.2218
  185SLPC   O2221248   3.398   1.192   6.291  0.2516  0.4148 -0.2489
  185SLPC   C2221249   3.599   1.252   6.420  0.3314  0.6285 -0.7356
  185SLPC   H2R21250   3.689   1.196   6.386 -1.4790 -1.1605 -2.9520
  185SLPC   H2S21251   3.605   1.346   6.361 -3.6067  1.6215  0.0998
  185SLPC    C321252   3.387   0.830   6.482  0.2780  0.4567  0.3678
  185SLPC    HX21253   3.471   0.769   6.443  1.1102  0.9871  1.2999
  185SLPC    HY21254   3.295   0.768   6.477 -0.3157  1.2042  1.5241
  185SLPC   O3121255   3.407   0.862   6.624  0.4400 -0.8016  0.4641
  185SLPC   C3121256   3.467   0.773   6.694  0.0615  0.2397  0.7656
  185SLPC   O3221257   3.508   0.669   6.647 -1.0108 -0.4092 -0.5062
  185SLPC   C3221258   3.486   0.817   6.834 -0.3538 -0.4191 -0.2714
  185SLPC   H2X21259   3.519   0.923   6.833  0.7933 -0.7589 -0.3038
  185SLPC   H2Y21260   3.565   0.753   6.880  0.7848  1.1526  0.0313
  185SLPC   C2321261   3.602   1.283   6.570  0.7436 -0.1086  0.1666
  185SLPC   H3R21262   3.594   1.189   6.629  1.8641 -0.7895 -0.7212
  185SLPC   H3S21263   3.509   1.338   6.595 -1.6727 -2.7971 -2.0844
  185SLPC   C2421264   3.717   1.376   6.598  0.3133 -0.6063 -0.5617
  185SLPC   H4R21265   3.692   1.477   6.559  0.2510 -0.0995  0.7408
  185SLPC   H4S21266   3.805   1.343   6.538 -0.0019  0.8354 -1.8862
  185SLPC   C2521267   3.752   1.392   6.745 -0.0583 -0.3964  0.4927
  185SLPC   H5R21268   3.850   1.444   6.752  0.6710 -1.6655  0.0566
  185SLPC   H5S21269   3.771   1.295   6.796  2.5181 -0.4838 -0.4959
  185SLPC   C2621270   3.653   1.476   6.824 -0.0484 -0.2513  0.1822
  185SLPC   H6R21271   3.562   1.416   6.841 -0.9825  1.1549  0.2814
  185SLPC   H6S21272   3.637   1.572   6.770  1.0438  0.5145  1.1570
  185SLPC   C2721273   3.702   1.514   6.954 -0.4638  0.6138  0.0981
  185SLPC   H7R21274   3.791   1.578   6.933  0.7118 -1.0567 -0.2023
  185SLPC   H7S21275   3.727   1.425   7.016 -3.0434 -0.0197  0.3251
  185SLPC   C2821276   3.602   1.594   7.046  0.5773  0.6866  1.1536
  185SLPC   H8R21277   3.561   1.676   6.982 -1.7335 -0.1100  1.5530
  185SLPC   H8S21278   3.641   1.640   7.139 -0.8859  1.5080  1.3950
  185SLPC   C2921279   3.486   1.507   7.088  0.7936 -0.1347 -0.2776
  185SLPC   H9R21280   3.429   1.449   7.014 -1.9167  2.2672 -0.3085
  185SLPC  C21021281   3.437   1.499   7.219 -0.7540 -0.7704 -0.2848
  185SLPC  H10R21282   3.342   1.452   7.247 -1.2250  1.1997  1.7701
  185SLPC  C21121283   3.500   1.578   7.337  0.3787 -0.4614 -0.3340
  185SLPC  H11R21284   3.528   1.682   7.312  3.1450 -0.8999  0.5961
  185SLPC  H11S21285   3.594   1.535   7.379 -0.2166  1.8477  4.0289
  185SLPC  C21221286   3.416   1.575   7.463  0.6310 -0.8706 -0.0472
  185SLPC  H12R21287   3.354   1.485   7.480 -0.0065 -0.1478  1.6961
  185SLPC  C21321288   3.414   1.661   7.569 -0.6375 -0.1150  0.0338
  185SLPC  H13R21289   3.337   1.647   7.646 -0.8711 -2.2224 -0.5332
  185SLPC  C21421290   3.493   1.795   7.586 -0.1778 -0.6115 -0.1778
  185SLPC  H14R21291   3.503   1.843   7.487  0.5731  4.0928  1.9173
  185SLPC  H14S21292   3.588   1.775   7.640 -2.0002 -3.1977  2.4476
  185SLPC  C21521293   3.414   1.893   7.678 -0.3852 -0.3976  0.4361
  185SLPC  H15R21294   3.309   1.913   7.648  0.5360  0.3622 -2.7077
  185SLPC  H15S21295   3.467   1.991   7.680 -2.0249  0.5154  0.5199
  185SLPC  C21621296   3.412   1.850   7.824  0.6512  0.5891  0.9418
  185SLPC  H16R21297   3.515   1.834   7.861  1.2425  0.3807 -0.7196
  185SLPC  H16S21298   3.350   1.758   7.827  0.6716  0.5873  1.3888
  185SLPC  C21721299   3.341   1.956   7.917 -0.6564  0.1421 -0.7023
  185SLPC  H17R21300   3.236   1.972   7.885 -1.2819 -0.0595  1.1182
  185SLPC  H17S21301   3.392   2.052   7.897 -0.6467  0.3778  0.3897
  185SLPC  C21821302   3.333   1.913   8.068 -0.3237  0.3213  0.8610
  185SLPC  H18R21303   3.319   1.803   8.072  0.5707 -0.0011 -2.0851
  185SLPC  H18S21304   3.251   1.967   8.120 -0.7739 -1.0410  1.6046
  185SLPC  H18T21305   3.427   1.946   8.117 -0.2021  2.9516 -0.8963
  185SLPC   C3321306   3.351   0.803   6.913  0.1252 -0.4922 -0.1212
  185SLPC   H3X21307   3.303   0.704   6.900  0.9115 -0.7878 -0.9620
  185SLPC   H3Y21308   3.282   0.875   6.865 -0.7233 -0.5944  0.9206
  185SLPC   C3421309   3.351   0.829   7.065  0.4883 -0.5210 -0.7196
  185SLPC   H4X21310   3.388   0.740   7.120  0.1438 -0.1153  0.1923
  185SLPC   H4Y21311   3.244   0.835   7.094  1.2388 -0.8611  2.5465
  185SLPC   C3521312   3.415   0.962   7.105 -0.4933 -0.2663  0.0163
  185SLPC   H5X21313   3.366   1.052   7.063  1.4589  1.0103  0.3474
  185SLPC   H5Y21314   3.521   0.960   7.072 -0.2974 -3.4903  0.5481
  185SLPC   C3621315   3.419   0.990   7.255 -0.0313  1.0194 -0.1826
  185SLPC   H6X21316   3.451   1.095   7.273  0.9059  0.9677 -1.3775
  185SLPC   H6Y21317   3.487   0.912   7.295 -2.3667 -0.8090  0.4151
  185SLPC   C3721318   3.277   0.964   7.307  0.1270  0.5349  0.7063
  185SLPC   H7X21319   3.244   0.857   7.307 -0.3589  0.5624 -2.7115
  185SLPC   H7Y21320   3.207   1.018   7.241  0.7470 -0.1833 -0.5925
  185SLPC   C3821321   3.264   1.015   7.455  0.6489 -0.2666  0.2353
  185SLPC   H8X21322   3.155   1.035   7.457  0.9873  1.6159  1.8145
  185SLPC   H8Y21323   3.315   1.113   7.462 -2.3221  1.4995 -0.8328
  185SLPC   C3921324   3.310   0.917   7.562  0.0719  0.3649  0.4085
  185SLPC   H9X21325   3.410   0.870   7.550 -0.6134 -2.0150  2.7827
  185SLPC   H9Y21326   3.233   0.837   7.573 -0.4396  1.0083  1.9137
  185SLPC  C31021327   3.301   0.987   7.702 -0.2598 -0.7057  0.4683
  185SLPC  H10X21328   3.192   1.001   7.713 -0.1748  1.4236 -0.8837
  185SLPC  H10Y21329   3.341   1.090   7.697 -0.4186 -0.6955 -1.0592
  185SLPC  C31121330   3.351   0.911   7.825  0.3687 -0.2644 -0.8331
  185SLPC  H11X21331   3.460   0.892   7.812  0.6740  0.9167 -0.1636
  185SLPC  H11Y21332   3.290   0.819   7.840  0.1640 -0.0943 -0.6020
  185SLPC  C31221333   3.342   0.988   7.963  0.3341 -0.7879  0.5715
  185SLPC  H12X21334   3.388   1.088   7.948  0.4442 -0.9375 -0.0886
  185SLPC  H12Y21335   3.410   0.931   8.031  1.0342 -2.2826 -1.2951
  185SLPC  C31321336   3.201   0.994   8.014  0.2551 -0.1117  0.0197
  185SLPC  H13X21337   3.149   0.896   8.014 -1.7234  0.8688  1.2760
  185SLPC  H13Y21338   3.149   1.044   7.929  0.0815  1.0533  0.7870
  185SLPC  C31421339   3.177   1.066   8.142  0.2056 -0.1843  0.6769
  185SLPC  H14X21340   3.229   1.164   8.143 -0.1880  0.0211  1.2949
  185SLPC  H14Y21341   3.212   1.011   8.232  1.5459  1.0962  0.9679
  185SLPC  C31521342   3.031   1.086   8.179  0.4355  0.3005 -0.4160
  185SLPC  H15X21343   2.977   0.989   8.187  0.3319  0.2077 -2.0705
  185SLPC  H15Y21344   2.978   1.145   8.102 -1.8942  2.8349  2.8644
  185SLPC  C31621345   3.014   1.173   8.299 -0.0793 -0.2261 -0.8832
  185SLPC  H16X21346   3.055   1.274   8.280  0.7250 -0.7596 -2.0953
  185SLPC  H16Y21347   3.059   1.128   8.390 -1.4330 -2.5617 -1.2716
  185SLPC  C31721348   2.871   1.185   8.348  0.5031  0.1093 -0.1659
  185SLPC  H17X21349   2.821   1.086   8.357  1.4759 -0.5624 -1.7304
  185SLPC  H17Y21350   2.803   1.246   8.284 -0.4989 -0.1232  0.6519
  185SLPC  C31821351   2.864   1.262   8.484 -0.3021  0.0256  0.9058
  185SLPC  H18X21352   2.921   1.208   8.563  1.2669 -2.4770 -1.7787
  185SLPC  H18Y21353   2.758   1.278   8.514 -0.3264 -1.5666  1.7707
  185SLPC  H18Z21354   2.907   1.360   8.455 -0.1105 -0.4169 -0.3447
  186SLPC     N21355   4.368   2.887   5.882 -0.9093 -0.4434 -0.1405
  186SLPC   C1321356   4.373   2.864   5.741  0.1541 -0.0266 -0.5470
  186SLPC  H13A21357   4.443   2.935   5.701  0.7917 -0.6115 -0.5011
  186SLPC  H13B21358   4.406   2.763   5.723  0.0240 -0.2778  0.5423
  186SLPC  H13C21359   4.277   2.864   5.692 -0.2713 -1.8889  0.1661
  186SLPC   C1421360   4.315   2.768   5.959 -0.7542 -1.1434  0.2629
  186SLPC  H14A21361   4.287   2.782   6.063  0.4908 -2.3869  0.8012
  186SLPC  H14B21362   4.228   2.732   5.906  0.6487 -1.2597 -2.0865
  186SLPC  H14C21363   4.387   2.688   5.951 -0.8086 -1.1101 -0.6035
  186SLPC   C1521364   4.270   3.005   5.910  0.9184  0.0724  0.0341
  186SLPC  H15A21365   4.289   3.078   5.834 -0.1332  0.8119  0.4553
  186SLPC  H15B21366   4.167   2.970   5.917  1.0626 -0.0372  2.5540
  186SLPC  H15C21367   4.305   3.047   6.003 -0.5774 -1.5059  1.3989
  186SLPC   C1221368   4.507   2.932   5.926 -0.1277 -0.1327 -0.3915
  186SLPC  H12A21369   4.533   3.025   5.878  0.0665 -1.1385 -2.3283
  186SLPC  H12B21370   4.584   2.866   5.888  0.8730 -0.3794  1.9060
  186SLPC   C1121371   4.523   2.953   6.075  0.6132  0.3121 -0.3094
  186SLPC  H11A21372   4.630   2.978   6.088  1.1952 -1.3009 -1.7279
  186SLPC  H11B21373   4.519   2.851   6.120  1.6300 -0.2854 -1.5034
  186SLPC     P21374   4.476   3.202   6.127  0.0229 -0.2780  0.4103
  186SLPC   O1321375   4.464   3.236   5.981 -0.1063  0.0233 -0.6558
  186SLPC   O1421376   4.400   3.282   6.221 -0.0526  0.3989 -0.1081
  186SLPC   O1221377   4.439   3.051   6.141  0.0134 -1.0442  0.4089
  186SLPC   O1121378   4.626   3.220   6.164  0.6472  0.5058  0.0270
  186SLPC    C121379   4.677   3.179   6.290 -0.1585 -0.2912 -0.2555
  186SLPC    HA21380   4.633   3.087   6.332  0.4805 -0.9501 -0.9990
  186SLPC    HB21381   4.783   3.147   6.281 -0.0430 -0.6959  1.9306
  186SLPC    C221382   4.683   3.296   6.393 -0.2431 -0.2692  0.0458
  186SLPC    HS21383   4.587   3.351   6.384  0.9011  1.4827 -2.8083
  186SLPC   O2121384   4.796   3.381   6.354 -0.0154 -0.6807 -0.4518
  186SLPC   C2121385   4.796   3.510   6.397  0.0393 -0.2144 -0.2333
  186SLPC   O2221386   4.700   3.569   6.445  0.0205  1.1297 -0.0305
  186SLPC   C2221387   4.937   3.567   6.369  0.0924  0.3469  0.0010
  186SLPC   H2R21388   5.011   3.490   6.338  1.0178  0.4949  1.7247
  186SLPC   H2S21389   4.926   3.641   6.287 -0.8903  0.2376  0.0167
  186SLPC    C321390   4.712   3.246   6.541  0.0255 -0.4020  0.5577
  186SLPC    HX21391   4.694   3.333   6.608 -0.4429  2.0326 -2.4658
  186SLPC    HY21392   4.821   3.225   6.550  0.0178 -2.3223 -2.4206
  186SLPC   O3121393   4.632   3.131   6.568  0.2476  0.4358 -0.3968
  186SLPC   C3121394   4.612   3.114   6.698  0.3678  0.1913 -1.1102
  186SLPC   O3221395   4.675   3.179   6.782  0.0840  0.0158  0.3882
  186SLPC   C3221396   4.506   2.997   6.721  0.3790  0.4736  0.3219
  186SLPC   H2X21397   4.560   2.905   6.690  0.3856  0.7220 -0.4217
  186SLPC   H2Y21398   4.428   3.004   6.642  2.1003 -0.4829 -1.5544
  186SLPC   C2321399   4.995   3.643   6.495  0.6263  0.8888 -0.9037
  186SLPC   H3R21400   4.960   3.584   6.582 -0.7196 -0.4289 -2.2844
  186SLPC   H3S21401   4.951   3.743   6.514  1.5690  1.1406  0.0720
  186SLPC   C2421402   5.148   3.661   6.480  0.1722 -0.7143 -0.4244
  186SLPC   H4R21403   5.170   3.749   6.416 -0.4888 -0.6267 -0.5310
  186SLPC   H4S21404   5.196   3.570   6.439  1.9888 -0.2446  0.5145
  186SLPC   C2521405   5.206   3.680   6.627 -0.5656 -0.0717  0.3099
  186SLPC   H5R21406   5.314   3.659   6.618 -0.8118 -1.5822  0.4852
  186SLPC   H5S21407   5.150   3.605   6.687 -2.1427  1.4865  0.8731
  186SLPC   C2621408   5.189   3.816   6.685 -0.3267 -0.6389 -0.1972
  186SLPC   H6R21409   5.081   3.844   6.682  0.0186  0.7109 -0.6533
  186SLPC   H6S21410   5.238   3.886   6.615  1.6301 -2.9322 -1.2724
  186SLPC   C2721411   5.262   3.839   6.822  0.1888 -0.3374 -0.3933
  186SLPC   H7R21412   5.366   3.872   6.801  0.2489  0.5808  1.1334
  186SLPC   H7S21413   5.276   3.750   6.887  1.8553  0.7428  0.8326
  186SLPC   C2821414   5.207   3.962   6.904  0.6676  0.8729  0.9357
  186SLPC   H8R21415   5.180   4.050   6.843 -0.0148  0.8484  1.1989
  186SLPC   H8S21416   5.293   3.996   6.966  0.0415  0.8083  1.8716
  186SLPC   C2921417   5.092   3.921   6.996 -0.5893  0.6028  0.2050
  186SLPC   H9R21418   5.028   3.841   6.957  0.3990 -1.3133  2.2811
  186SLPC  C21021419   5.065   3.974   7.118 -0.6537 -0.4121  0.2357
  186SLPC  H10R21420   4.977   3.943   7.177 -0.4432 -2.9302 -0.6725
  186SLPC  C21121421   5.142   4.085   7.179 -1.1115 -0.5076  0.3940
  186SLPC  H11R21422   5.210   4.135   7.107  0.9184 -3.2265  0.2622
  186SLPC  H11S21423   5.223   4.038   7.239 -0.6427  1.8768  1.7794
  186SLPC  C21221424   5.067   4.187   7.258  0.6204  0.2281 -0.4880
  186SLPC  H12R21425   5.003   4.255   7.200 -1.4028 -2.2989 -1.4127
  186SLPC  C21321426   5.098   4.222   7.382  0.0607  0.0209 -0.4243
  186SLPC  H13R21427   5.030   4.295   7.430  0.7170  2.2965 -2.7057
  186SLPC  C21421428   5.203   4.162   7.471  0.2839  0.1330 -0.0162
  186SLPC  H14R21429   5.284   4.115   7.412 -1.7120 -0.2249 -2.6861
  186SLPC  H14S21430   5.149   4.086   7.532 -0.5666  0.7303 -0.0101
  186SLPC  C21521431   5.277   4.254   7.579  0.2358 -0.0158 -0.0314
  186SLPC  H15R21432   5.337   4.339   7.540  2.8304  0.1452  3.7347
  186SLPC  H15S21433   5.350   4.185   7.627  0.3010 -0.4614 -0.7471
  186SLPC  C21621434   5.180   4.314   7.684 -0.8013  0.1427  0.2963
  186SLPC  H16R21435   5.092   4.249   7.700  0.9702 -2.8806 -1.2789
  186SLPC  H16S21436   5.146   4.411   7.640 -0.0105  0.4499  0.3450
  186SLPC  C21721437   5.250   4.334   7.818 -0.7715  0.2704  0.2744
  186SLPC  H17R21438   5.274   4.240   7.872  3.3417  0.9123 -0.0797
  186SLPC  H17S21439   5.172   4.382   7.881 -1.3957 -0.3357 -0.0265
  186SLPC  C21821440   5.385   4.408   7.815  0.6407 -0.6285 -0.3388
  186SLPC  H18R21441   5.372   4.504   7.759  0.0400 -1.0411 -0.9245
  186SLPC  H18S21442   5.466   4.349   7.769  0.7598 -1.0907  0.4449
  186SLPC  H18T21443   5.419   4.456   7.910  0.2468 -0.9515 -0.0330
  186SLPC   C3321444   4.451   2.972   6.860  0.8607 -0.7000 -0.2509
  186SLPC   H3X21445   4.381   2.886   6.866 -0.2413  0.1500 -0.5070
  186SLPC   H3Y21446   4.382   3.054   6.890  0.0598 -0.8591 -1.6220
  186SLPC   C3421447   4.556   2.949   6.961  0.0860  0.7827 -0.3600
  186SLPC   H4X21448   4.607   3.046   6.980 -1.7954  2.3125 -2.4755
  186SLPC   H4Y21449   4.617   2.865   6.922 -1.2128 -0.2560 -0.2072
  186SLPC   C3521450   4.493   2.907   7.095  0.4122  0.4257 -0.2828
  186SLPC   H5X21451   4.426   2.823   7.070 -0.9940  0.5852  2.5086
  186SLPC   H5Y21452   4.434   2.992   7.136 -0.1149  1.2771 -2.6784
  186SLPC   C3621453   4.594   2.849   7.200  0.0597 -0.0590 -0.3434
  186SLPC   H6X21454   4.673   2.926   7.214  1.3576 -1.3039 -0.6083
  186SLPC   H6Y21455   4.646   2.753   7.178 -1.0412 -1.1740  1.6965
  186SLPC   C3721456   4.529   2.811   7.336 -0.9414  0.2277 -0.1740
  186SLPC   H7X21457   4.449   2.734   7.326  0.2416 -1.3205  1.6475
  186SLPC   H7Y21458   4.477   2.898   7.380 -0.8373  0.3439 -0.2789
  186SLPC   C3821459   4.632   2.759   7.445 -0.2795  0.0606  0.7007
  186SLPC   H8X21460   4.716   2.830   7.459 -1.3194  1.5654 -0.3585
  186SLPC   H8Y21461   4.667   2.656   7.423 -2.1420 -0.3994 -0.3261
  186SLPC   C3921462   4.567   2.748   7.580  0.6326  0.6341 -0.0848
  186SLPC   H9X21463   4.488   2.670   7.581  0.2021  1.0643 -0.2314
  186SLPC   H9Y21464   4.510   2.841   7.601 -1.3221 -0.2462 -1.1796
  186SLPC  C31021465   4.668   2.722   7.700  0.1489  0.0332  0.4521
  186SLPC  H10X21466   4.737   2.808   7.702  1.3927 -0.7351 -2.6890
  186SLPC  H10Y21467   4.718   2.625   7.679 -1.8588 -1.5345  2.4109
  186SLPC  C31121468   4.599   2.712   7.834  0.8944  0.0034 -0.2052
  186SLPC  H11X21469   4.494   2.675   7.821  0.8105  0.0125  0.4298
  186SLPC  H11Y21470   4.595   2.811   7.885  3.0224 -1.1620  2.4218
  186SLPC  C31221471   4.663   2.599   7.915  1.1093  0.2455 -0.1540
  186SLPC  H12X21472   4.681   2.507   7.856 -0.9616  0.8328 -1.8162
  186SLPC  H12Y21473   4.582   2.578   7.987 -0.6336 -1.8023 -2.5307
  186SLPC  C31321474   4.779   2.649   8.008 -0.0415  0.3639 -0.2057
  186SLPC  H13X21475   4.752   2.745   8.056  2.3276  1.1415 -0.3135
  186SLPC  H13Y21476   4.875   2.657   7.953  0.8618  0.4541  1.3283
  186SLPC  C31421477   4.801   2.559   8.129  0.5783  0.5819 -0.0330
  186SLPC  H14X21478   4.708   2.545   8.187  1.1564 -0.1233  0.7333
  186SLPC  H14Y21479   4.876   2.608   8.195 -0.7212  1.5167  0.7976
  186SLPC  C31521480   4.863   2.424   8.085  0.2943  0.4479  0.0411
  186SLPC  H15X21481   4.953   2.454   8.027 -1.1818  1.9097 -1.6528
  186SLPC  H15Y21482   4.799   2.360   8.020 -0.6154  1.4388 -0.0811
  186SLPC  C31621483   4.884   2.334   8.207  0.5313 -0.6127  0.4649
  186SLPC  H16X21484   4.787   2.302   8.250  0.6447  0.4735  1.5639
  186SLPC  H16Y21485   4.916   2.402   8.288 -0.8087 -1.0657  1.4106
  186SLPC  C31721486   4.963   2.207   8.186 -0.7629  0.3795 -0.0609
  186SLPC  H17X21487   4.984   2.154   8.281  1.3487  1.2966  0.0450
  186SLPC  H17Y21488   5.064   2.234   8.148  0.3497 -0.2454  2.2919
  186SLPC  C31821489   4.897   2.109   8.084  0.3852 -0.4518  0.3045
  186SLPC  H18X21490   4.800   2.068   8.118  1.0139 -2.6026 -0.3128
  186SLPC  H18Y21491   4.972   2.030   8.062  0.7196 -0.6875  2.1933
  186SLPC  H18Z21492   4.872   2.172   7.996  1.7714 -0.0952  0.1465
  187SLPC     N21493   5.818   6.151   5.813  0.5739  0.0232 -0.9029
  187SLPC   C1321494   5.679   6.128   5.861 -0.6354 -0.2159  0.0698
  187SLPC  H13A21495   5.632   6.224   5.879  1.3912  1.0344 -0.9819
  187SLPC  H13B21496   5.619   6.067   5.795 -0.4616 -0.4520  0.1291
  187SLPC  H13C21497   5.674   6.079   5.957 -1.1155  1.7474  1.0995
  187SLPC   C1421498   5.806   6.216   5.679  0.2896 -0.1652 -0.0975
  187SLPC  H14A21499   5.760   6.313   5.680  3.8907  1.7734 -1.2205
  187SLPC  H14B21500   5.900   6.234   5.628  0.3138 -0.3518 -0.1224
  187SLPC  H14C21501   5.741   6.162   5.612 -1.1485 -0.7923  1.7293
  187SLPC   C1521502   5.890   6.024   5.792  0.1519  0.0001 -0.7471
  187SLPC  H15A21503   5.998   6.032   5.795  0.2200 -1.0288  0.2986
  187SLPC  H15B21504   5.846   5.950   5.856 -1.4252 -1.7342 -3.6151
  187SLPC  H15C21505   5.869   5.984   5.694 -0.9538 -1.2207 -0.0324
  187SLPC   C1221506   5.894   6.242   5.915  0.0019  0.3200  0.3089
  187SLPC  H12A21507   5.983   6.287   5.873  0.6380  2.7122  3.7821
  187SLPC  H12B21508   5.931   6.182   5.997 -1.4147  1.9420  2.2173
  187SLPC   C1121509   5.815   6.358   5.978 -0.3688 -0.7204 -0.3842
  187SLPC  H11A21510   5.891   6.403   6.045 -0.4954 -0.9154 -0.1072
  187SLPC  H11B21511   5.735   6.319   6.045 -0.9698 -0.4707 -0.9532
  187SLPC     P21512   5.649   6.530   5.901  0.2179  0.0285 -0.1069
  187SLPC   O1321513   5.661   6.660   5.838  0.0803 -0.2413  0.0339
  187SLPC   O1421514   5.543   6.438   5.856  0.2787  0.0372 -0.2611
  187SLPC   O1221515   5.777   6.453   5.877 -0.0826 -0.2114  0.0875
  187SLPC   O1121516   5.644   6.545   6.058 -0.6903 -0.0838  0.2850
  187SLPC    C121517   5.727   6.641   6.128 -0.2653 -0.0729 -0.1927
  187SLPC    HA21518   5.833   6.628   6.097  0.0001  0.9081  0.2689
  187SLPC    HB21519   5.709   6.747   6.099 -0.2699 -0.4222 -1.5365
  187SLPC    C221520   5.722   6.623   6.285 -0.1714  0.0505 -0.4641
  187SLPC    HS21521   5.787   6.697   6.337  1.6863 -0.6860 -1.6483
  187SLPC   O2121522   5.748   6.482   6.321 -0.7087 -0.2065 -0.4436
  187SLPC   C2121523   5.884   6.456   6.314 -0.4323 -0.3539  0.4356
  187SLPC   O2221524   5.966   6.545   6.289  0.1205  0.2356  0.6851
  187SLPC   C2221525   5.916   6.313   6.358  0.3132 -0.6083 -0.3021
  187SLPC   H2R21526   5.827   6.248   6.360 -1.4993  1.7601  1.4056
  187SLPC   H2S21527   5.987   6.278   6.280  1.3070  1.0330 -0.1907
  187SLPC    C321528   5.581   6.655   6.329 -0.4686 -0.8189  0.3996
  187SLPC    HX21529   5.508   6.580   6.292  0.2240 -0.8363 -1.0111
  187SLPC    HY21530   5.553   6.749   6.276  0.3434 -1.1521 -0.6731
  187SLPC   O3121531   5.567   6.662   6.472 -0.1665 -0.3016 -0.1442
  187SLPC   C3121532   5.621   6.771   6.520  0.9412  0.0027  0.3677
  187SLPC   O3221533   5.660   6.867   6.454  0.3064  0.1079 -0.6802
  187SLPC   C3221534   5.622   6.758   6.674 -0.3423  0.0219  0.1976
  187SLPC   H2X21535   5.632   6.649   6.693  1.3809  0.1795  0.3385
  187SLPC   H2Y21536   5.520   6.786   6.710 -1.3667  0.4742 -2.7834
  187SLPC   C2321537   5.984   6.321   6.497 -0.2546 -0.0140  0.1412
  187SLPC   H3R21538   6.065   6.397   6.491 -1.0563  0.7882 -0.8596
  187SLPC   H3S21539   6.026   6.223   6.525  0.7387 -0.0759 -1.4053
  187SLPC   C2421540   5.886   6.366   6.607 -0.0892 -0.2541  0.1448
  187SLPC   H4R21541   5.814   6.281   6.614  1.4793 -1.6299  0.2043
  187SLPC   H4S21542   5.833   6.459   6.578  1.9397  0.1349 -2.6345
  187SLPC   C2521543   5.945   6.377   6.742 -0.1781  0.0383 -0.5213
  187SLPC   H5R21544   6.045   6.425   6.733  1.2874 -2.1912  2.1720
  187SLPC   H5S21545   5.956   6.269   6.763  0.9249 -0.1515 -1.9391
  187SLPC   C2621546   5.870   6.452   6.856 -0.6874 -0.3560 -0.0197
  187SLPC   H6R21547   5.791   6.390   6.904 -0.8981 -1.1410 -1.3298
  187SLPC   H6S21548   5.836   6.551   6.819  1.8935  0.5545 -0.1268
  187SLPC   C2721549   5.974   6.479   6.970 -0.6844  0.4397  0.2038
  187SLPC   H7R21550   6.043   6.560   6.936  2.6039 -1.9693  0.6785
  187SLPC   H7S21551   6.036   6.389   6.989 -0.8969  0.3721  0.5950
  187SLPC   C2821552   5.908   6.514   7.102 -0.8991  0.1496 -0.1510
  187SLPC   H8R21553   5.849   6.428   7.140  0.1217 -0.0704  0.9474
  187SLPC   H8S21554   5.833   6.593   7.079  1.0394  1.8845 -0.8145
  187SLPC   C2921555   6.005   6.583   7.196 -0.0959 -0.0463 -0.0623
  187SLPC   H9R21556   6.093   6.630   7.148 -0.3322 -1.8814 -2.4508
  187SLPC  C21021557   6.005   6.571   7.333 -0.0654 -0.7370  0.0765
  187SLPC  H10R21558   6.086   6.621   7.389  0.0045 -0.9768  0.1901
  187SLPC  C21121559   5.906   6.498   7.419 -0.3249  0.0010 -0.0008
  187SLPC  H11R21560   5.951   6.423   7.488 -0.3652 -0.3059 -0.3057
  187SLPC  H11S21561   5.841   6.432   7.357  0.0457 -3.4124  2.9006
  187SLPC  C21221562   5.817   6.596   7.489 -0.2405  0.6298  0.3244
  187SLPC  H12R21563   5.730   6.634   7.432  0.0861  0.4554 -0.2934
  187SLPC  C21321564   5.837   6.634   7.616 -0.2739  0.1673  0.0247
  187SLPC  H13R21565   5.761   6.698   7.664  0.0893 -0.8819  2.1185
  187SLPC  C21421566   5.954   6.603   7.704  0.4203 -0.7430  0.3515
  187SLPC  H14R21567   6.039   6.585   7.636 -1.2565  1.5818 -2.6025
  187SLPC  H14S21568   5.934   6.506   7.755  1.2970 -1.3007 -0.3345
  187SLPC  C21521569   6.010   6.697   7.817  0.7351  0.2633 -0.1796
  187SLPC  H15R21570   6.002   6.800   7.776 -0.3909  1.1633  2.1453
  187SLPC  H15S21571   6.117   6.692   7.844  1.3181  1.6448 -2.0404
  187SLPC  C21621572   5.929   6.673   7.948 -0.1829  0.2477  0.6532
  187SLPC  H16R21573   5.933   6.566   7.979 -1.5481  0.0996  0.3823
  187SLPC  H16S21574   5.824   6.707   7.942  0.1554  1.0115 -2.6335
  187SLPC  C21721575   5.988   6.765   8.062 -0.5013  0.3436  0.2864
  187SLPC  H17R21576   5.973   6.867   8.020  0.0463  0.5415  0.5699
  187SLPC  H17S21577   6.095   6.741   8.078 -0.5028  0.3012  0.2292
  187SLPC  C21821578   5.913   6.748   8.184  0.5676 -0.2469 -0.0405
  187SLPC  H18R21579   5.803   6.739   8.180  0.5874 -1.0645  0.6945
  187SLPC  H18S21580   5.947   6.818   8.263 -1.6627  2.4625 -1.3340
  187SLPC  H18T21581   5.945   6.647   8.218 -3.9689 -1.4223  1.4348
  187SLPC   C3321582   5.733   6.846   6.736 -0.4264  0.2129  0.4877
  187SLPC   H3X21583   5.729   6.951   6.699 -0.1087  1.1388  2.9027
  187SLPC   H3Y21584   5.832   6.798   6.719  0.4484  1.7906  0.8827
  187SLPC   C3421585   5.730   6.841   6.888 -0.4547 -0.5911 -0.7992
  187SLPC   H4X21586   5.827   6.869   6.935 -2.2710  1.1965  2.1658
  187SLPC   H4Y21587   5.706   6.744   6.937 -2.2831  0.2093 -0.0471
  187SLPC   C3521588   5.614   6.935   6.944 -0.6619 -0.0573 -0.7624
  187SLPC   H5X21589   5.514   6.900   6.911 -0.3732 -1.5975 -0.1194
  187SLPC   H5Y21590   5.623   7.035   6.897  0.7175  0.8062  1.1781
  187SLPC   C3621591   5.628   6.932   7.093 -0.0774 -0.2673 -0.2666
  187SLPC   H6X21592   5.725   6.979   7.119 -1.3413  1.4770  1.5984
  187SLPC   H6Y21593   5.619   6.823   7.116  0.5006 -0.0842  0.8958
  187SLPC   C3721594   5.513   6.986   7.175  0.3568 -1.3532 -0.5132
  187SLPC   H7X21595   5.517   7.096   7.163 -0.4528 -1.3916 -1.1664
  187SLPC   H7Y21596   5.421   6.955   7.122  0.7226 -0.6658 -1.5755
  187SLPC   C3821597   5.519   6.943   7.329 -0.1590  0.7966  0.4989
  187SLPC   H8X21598   5.535   6.834   7.340  0.3694  0.7839 -0.2943
  187SLPC   H8Y21599   5.430   6.990   7.377 -1.0066 -0.2751  0.0060
  187SLPC   C3921600   5.637   7.006   7.386 -0.5417  0.1485  0.1044
  187SLPC   H9X21601   5.618   7.114   7.367  0.2921 -0.1529 -2.9720
  187SLPC   H9Y21602   5.733   6.975   7.339 -1.3407 -0.2841 -1.2931
  187SLPC  C31021603   5.640   6.996   7.538 -0.2690 -0.7418  0.2743
  187SLPC  H10X21604   5.634   6.888   7.565 -0.9284  0.0631  3.9041
  187SLPC  H10Y21605   5.552   7.051   7.578  1.0511  2.5365 -1.0411
  187SLPC  C31121606   5.775   7.042   7.594  0.6496  0.5665  0.6558
  187SLPC  H11X21607   5.797   7.147   7.566  2.7129 -0.4005 -1.6065
  187SLPC  H11Y21608   5.856   6.991   7.539  0.2889  2.2909 -1.6024
  187SLPC  C31221609   5.811   7.020   7.747  0.1919 -0.2953  0.4364
  187SLPC  H12X21610   5.908   7.069   7.766  0.8546 -0.8112 -1.4355
  187SLPC  H12Y21611   5.819   6.911   7.765 -2.0198 -0.6802 -0.5499
  187SLPC  C31321612   5.715   7.080   7.846 -0.5611  0.1120 -0.0292
  187SLPC  H13X21613   5.612   7.053   7.814 -1.1500 -0.3970  2.1635
  187SLPC  H13Y21614   5.720   7.191   7.839 -0.4128  0.2184  1.4533
  187SLPC  C31421615   5.750   7.043   7.990 -0.2609  0.2405  0.0916
  187SLPC  H14X21616   5.851   7.085   8.011 -1.0361  1.1656  2.2543
  187SLPC  H14Y21617   5.749   6.932   7.995  1.4373  0.1276 -1.0483
  187SLPC  C31521618   5.651   7.107   8.086  0.5392  0.2001  0.3605
  187SLPC  H15X21619   5.550   7.066   8.067  0.3920 -0.3510  2.2087
  187SLPC  H15Y21620   5.658   7.217   8.071  0.7896  0.2081  0.5362
  187SLPC  C31621621   5.696   7.077   8.235  0.2528 -0.0915 -0.1706
  187SLPC  H16X21622   5.804   7.103   8.249  1.2570 -2.8106 -2.0430
  187SLPC  H16Y21623   5.679   6.969   8.253 -0.7508  0.1909  0.6621
  187SLPC  C31721624   5.609   7.149   8.343  0.0721 -0.0963 -0.5555
  187SLPC  H17X21625   5.634   7.119   8.447 -2.1203  0.4353  0.1769
  187SLPC  H17Y21626   5.499   7.131   8.335  0.1285 -2.2244  2.0461
  187SLPC  C31821627   5.635   7.298   8.342 -0.7997 -0.0252 -0.6003
  187SLPC  H18X21628   5.599   7.337   8.245 -1.2382  0.5566 -0.2087
  187SLPC  H18Y21629   5.746   7.305   8.353 -0.8498  0.6005 -0.4630
  187SLPC  H18Z21630   5.600   7.355   8.431  2.3434  1.1058  0.0442
  188SLPC     N21631   4.804   0.862   6.184 -0.8012 -0.6930 -0.6445
  188SLPC   C1321632   4.915   0.846   6.284 -0.0371 -0.4551  0.1975
  188SLPC  H13A21633   4.967   0.938   6.306  1.4080 -1.1433 -0.2127
  188SLPC  H13B21634   4.875   0.803   6.374  0.6601 -1.0729  0.2324
  188SLPC  H13C21635   4.994   0.776   6.260 -0.6428 -1.6921  1.6591
  188SLPC   C1421636   4.866   0.914   6.060  0.1187  0.1867 -0.0636
  188SLPC  H14A21637   4.895   1.017   6.071 -0.2671  0.3487 -0.5196
  188SLPC  H14B21638   4.953   0.855   6.034 -0.3628  0.2054 -1.9291
  188SLPC  H14C21639   4.800   0.927   5.975 -0.1026  0.0254  0.0827
  188SLPC   C1521640   4.716   0.978   6.236 -0.6235  0.4546  0.0492
  188SLPC  H15A21641   4.782   1.063   6.247  0.6935 -0.3551 -1.2059
  188SLPC  H15B21642   4.638   1.003   6.166  0.1356  1.6788 -0.3828
  188SLPC  H15C21643   4.668   0.955   6.330 -0.8218 -0.5102 -0.2798
  188SLPC   C1221644   4.734   0.732   6.164 -0.3641  0.8033  0.3509
  188SLPC  H12A21645   4.694   0.700   6.259  2.6995 -0.7671  1.2254
  188SLPC  H12B21646   4.793   0.650   6.126 -3.0564 -0.0369 -2.5608
  188SLPC   C1121647   4.614   0.739   6.066 -0.2741  0.0980 -0.3165
  188SLPC  H11A21648   4.572   0.643   6.029 -0.6955  0.1663 -0.0319
  188SLPC  H11B21649   4.643   0.790   5.971 -0.9520 -2.4428 -1.9897
  188SLPC     P21650   4.431   0.728   6.253 -0.0029  0.2214 -0.3338
  188SLPC   O1321651   4.284   0.718   6.221  0.5551 -0.8028  0.0573
  188SLPC   O1421652   4.501   0.604   6.290 -0.1616  0.2862 -0.2222
  188SLPC   O1221653   4.501   0.798   6.131  0.0359 -0.2385 -0.0667
  188SLPC   O1121654   4.451   0.834   6.364  0.0096  0.2265  0.4901
  188SLPC    C121655   4.430   0.972   6.358  0.5629 -0.5085 -0.5707
  188SLPC    HA21656   4.511   1.028   6.409  0.4463 -1.1940  0.4019
  188SLPC    HB21657   4.415   1.005   6.253 -0.5681  1.0701  0.0460
  188SLPC    C221658   4.306   1.012   6.440  0.2717  0.4776  0.0751
  188SLPC    HS21659   4.316   1.122   6.454 -0.1679  0.3145  1.8092
  188SLPC   O2121660   4.289   0.950   6.567 -0.1073 -0.0838  0.3557
  188SLPC   C2121661   4.397   0.949   6.646 -0.0994 -0.4214  0.4051
  188SLPC   O2221662   4.494   1.021   6.633  0.2031 -0.4289 -0.2739
  188SLPC   C2221663   4.374   0.851   6.759  0.0070  0.5475  0.5923
  188SLPC   H2R21664   4.266   0.825   6.762  0.1219 -0.7322 -2.3702
  188SLPC   H2S21665   4.430   0.761   6.726 -0.0386  0.5591  0.4806
  188SLPC    C321666   4.178   1.002   6.353 -0.4171 -0.9045 -0.0871
  188SLPC    HX21667   4.161   0.912   6.290 -0.5892 -0.1891 -1.1039
  188SLPC    HY21668   4.185   1.076   6.270  0.4582 -0.9535 -0.0681
  188SLPC   O3121669   4.060   1.045   6.429 -0.3892 -0.3301 -0.3668
  188SLPC   C3121670   3.981   0.947   6.445  0.2726 -0.1496  0.1134
  188SLPC   O3221671   4.003   0.827   6.434  0.1704  0.1275  0.1559
  188SLPC   C3221672   3.848   1.002   6.518 -0.5044  0.1231  0.4206
  188SLPC   H2X21673   3.774   1.003   6.435 -0.4794 -2.0639  0.2952
  188SLPC   H2Y21674   3.866   1.107   6.547 -0.8961  0.2964  0.0451
  188SLPC   C2321675   4.410   0.909   6.901 -0.0849 -0.0259  0.3488
  188SLPC   H3R21676   4.381   1.016   6.905  0.4232  0.1436 -0.3988
  188SLPC   H3S21677   4.520   0.900   6.911 -0.1500 -1.7961 -0.0976
  188SLPC   C2421678   4.364   0.817   7.016 -0.1975 -0.4694  0.8020
  188SLPC   H4R21679   4.425   0.728   6.989  1.4678  0.3063  1.8340
  188SLPC   H4S21680   4.254   0.807   7.009 -0.2898  0.4969  0.7856
  188SLPC   C2521681   4.404   0.883   7.155 -0.2080  0.1803 -0.6467
  188SLPC   H5R21682   4.355   0.982   7.171 -0.0536  0.2386 -0.5190
  188SLPC   H5S21683   4.515   0.896   7.161 -0.4605  1.8557  2.9676
  188SLPC   C2621684   4.376   0.794   7.278 -0.1190 -0.4532 -0.8333
  188SLPC   H6R21685   4.445   0.824   7.359 -1.5220  2.3562 -0.5378
  188SLPC   H6S21686   4.388   0.685   7.256 -2.3759 -1.2362  1.2923
  188SLPC   C2721687   4.232   0.811   7.324  0.1097 -0.2490 -0.3039
  188SLPC   H7R21688   4.174   0.738   7.262  0.7516 -1.9794  1.0363
  188SLPC   H7S21689   4.191   0.912   7.305 -1.0119 -0.6333  0.0159
  188SLPC   C2821690   4.199   0.763   7.470  0.4125  0.7840  0.7551
  188SLPC   H8R21691   4.251   0.668   7.494 -1.4276  0.1016  2.2534
  188SLPC   H8S21692   4.094   0.730   7.482 -0.4661  2.5877 -1.2854
  188SLPC   C2921693   4.213   0.878   7.563 -1.0531  0.0241 -0.1819
  188SLPC   H9R21694   4.152   0.968   7.548 -0.4876  0.2612 -1.2369
  188SLPC  C21021695   4.319   0.896   7.643  0.4920  0.3063 -0.0529
  188SLPC  H10R21696   4.321   0.980   7.713 -0.7029 -0.0006  0.3748
  188SLPC  C21121697   4.433   0.803   7.668  0.9141  0.0393 -0.3877
  188SLPC  H11R21698   4.526   0.853   7.701  0.5644 -0.9452  2.3769
  188SLPC  H11S21699   4.459   0.741   7.580  2.0574 -0.4899  0.2892
  188SLPC  C21221700   4.395   0.703   7.773 -0.6944 -0.1808 -0.2473
  188SLPC  H12R21701   4.383   0.602   7.731 -1.6089  0.0096 -0.4778
  188SLPC  C21321702   4.372   0.716   7.904 -0.1214 -0.0523 -0.4394
  188SLPC  H13R21703   4.331   0.632   7.962 -1.1323  1.4426  1.0824
  188SLPC  C21421704   4.393   0.849   7.977 -0.0170  0.3107  0.5742
  188SLPC  H14R21705   4.302   0.909   7.997  1.5112  1.9937  3.0230
  188SLPC  H14S21706   4.478   0.906   7.934  2.6723 -1.6180  2.9668
  188SLPC  C21521707   4.440   0.820   8.122  0.0013 -0.3321  0.4194
  188SLPC  H15R21708   4.459   0.919   8.169 -0.3683 -0.3059  0.5173
  188SLPC  H15S21709   4.532   0.759   8.136  0.1695  0.0324  0.9402
  188SLPC  C21621710   4.324   0.749   8.208  0.3649  0.1332  0.4231
  188SLPC  H16R21711   4.289   0.657   8.157  2.1090  0.5150 -1.6800
  188SLPC  H16S21712   4.244   0.826   8.213  1.8154  1.6738  0.8399
  188SLPC  C21721713   4.370   0.724   8.357  0.2695  0.2152  0.7499
  188SLPC  H17R21714   4.283   0.701   8.422 -0.5452  1.1092  0.0079
  188SLPC  H17S21715   4.411   0.825   8.380 -0.6393  0.9051 -0.5588
  188SLPC  C21821716   4.466   0.611   8.370  0.1655  0.6699 -0.0775
  188SLPC  H18R21717   4.431   0.522   8.313  0.5898  0.0697  0.5743
  188SLPC  H18S21718   4.467   0.571   8.474  0.0272 -2.4642 -1.1537
  188SLPC  H18T21719   4.569   0.646   8.349  0.5311  1.9816  3.2390
  188SLPC   C3321720   3.793   0.930   6.636 -0.0360  0.2848 -0.7615
  188SLPC   H3X21721   3.799   0.821   6.614 -1.7653  0.3243 -1.6514
  188SLPC   H3Y21722   3.685   0.952   6.653 -0.2547 -0.8012 -0.6712
  188SLPC   C3421723   3.874   0.964   6.758 -0.4510 -0.0595  0.6325
  188SLPC   H4X21724   3.867   1.073   6.780  0.7489  0.3613 -0.8702
  188SLPC   H4Y21725   3.983   0.945   6.746 -0.5029 -0.1027  0.2106
  188SLPC   C3521726   3.828   0.882   6.881 -0.3190  0.3962  0.6803
  188SLPC   H5X21727   3.788   0.783   6.849 -1.6638  0.7941  1.0738
  188SLPC   H5Y21728   3.737   0.930   6.922 -1.3304 -0.2731 -0.6719
  188SLPC   C3621729   3.932   0.859   6.983 -0.0857  0.2038 -0.4403
  188SLPC   H6X21730   3.991   0.953   6.989  2.4532 -1.2606 -0.6739
  188SLPC   H6Y21731   4.007   0.791   6.938 -1.2603  0.3413 -2.7356
  188SLPC   C3721732   3.892   0.809   7.114  0.0970  1.0807 -0.1112
  188SLPC   H7X21733   3.987   0.785   7.165  0.5680 -1.0102 -1.8075
  188SLPC   H7Y21734   3.835   0.714   7.112  1.9092 -0.1739  2.2639
  188SLPC   C3821735   3.813   0.904   7.204 -0.5274 -0.3560 -0.0052
  188SLPC   H8X21736   3.718   0.943   7.161 -0.3588  0.5755  0.4488
  188SLPC   H8Y21737   3.881   0.990   7.220 -0.4906 -0.2555 -0.6514
  188SLPC   C3921738   3.776   0.841   7.344  0.1064 -0.0870  1.0255
  188SLPC   H9X21739   3.829   0.743   7.351 -1.8137 -1.1889  0.7930
  188SLPC   H9Y21740   3.667   0.825   7.352  0.1442 -0.2363  1.2509
  188SLPC  C31021741   3.829   0.902   7.478  0.1843 -0.5487  0.5201
  188SLPC  H10X21742   3.848   1.011   7.465  0.7296 -0.8654 -1.7729
  188SLPC  H10Y21743   3.926   0.860   7.511  0.7447  0.1065 -0.2514
  188SLPC  C31121744   3.726   0.876   7.590 -0.2074  0.0217 -0.0558
  188SLPC  H11X21745   3.747   0.780   7.641 -2.8730 -1.3906 -1.4156
  188SLPC  H11Y21746   3.622   0.867   7.553  0.3694 -0.9543 -1.5160
  188SLPC  C31221747   3.738   0.985   7.701  0.4313 -0.4814 -0.4131
  188SLPC  H12X21748   3.638   0.982   7.749  0.0210  1.1073 -1.0885
  188SLPC  H12Y21749   3.740   1.086   7.655 -0.3235  1.4983  3.5352
  188SLPC  C31321750   3.862   0.958   7.791  0.5182  0.9380  0.1507
  188SLPC  H13X21751   3.952   1.004   7.744  0.6670  0.5658  0.0677
  188SLPC  H13Y21752   3.884   0.850   7.801  2.0500  1.3711  2.1329
  188SLPC  C31421753   3.841   1.030   7.927 -0.5979  0.4079  0.1693
  188SLPC  H14X21754   3.765   0.981   7.992 -0.6429 -3.2436 -2.3311
  188SLPC  H14Y21755   3.789   1.127   7.913 -0.4482  0.1347 -2.7938
  188SLPC  C31521756   3.972   1.061   7.997  0.2536  0.1546  1.0360
  188SLPC  H15X21757   4.039   1.123   7.935  0.0516 -0.8400 -0.2329
  188SLPC  H15Y21758   4.011   0.960   8.024  0.5550  0.5350  2.0348
  188SLPC  C31621759   3.961   1.138   8.138 -0.0513  0.0279 -0.0708
  188SLPC  H16X21760   3.881   1.086   8.195 -0.3622  0.2860 -0.2709
  188SLPC  H16Y21761   3.941   1.244   8.112 -1.4631 -0.1575  0.1834
  188SLPC  C31721762   4.099   1.122   8.210 -0.2072 -0.7006 -0.0750
  188SLPC  H17X21763   4.109   1.226   8.248 -0.6244  0.7353 -3.5819
  188SLPC  H17Y21764   4.189   1.095   8.151  2.4647 -1.0400  3.7589
  188SLPC  C31821765   4.102   1.036   8.339  0.5459  0.0903  0.0477
  188SLPC  H18X21766   4.199   1.057   8.387  1.2697 -0.0924 -1.2943
  188SLPC  H18Y21767   4.095   0.928   8.316 -1.2140 -0.0606  1.0608
  188SLPC  H18Z21768   4.015   1.059   8.405 -0.0160 -1.8302  0.0369
  189SLPC     N21769   5.686   2.304   5.771 -0.4414  0.2633  0.5414
  189SLPC   C1321770   5.813   2.261   5.704 -1.1802 -0.6005  0.7158
  189SLPC  H13A21771   5.827   2.155   5.694  0.7173 -0.1903 -2.0521
  189SLPC  H13B21772   5.810   2.299   5.603  0.0576 -1.0340  0.5007
  189SLPC  H13C21773   5.897   2.299   5.759 -1.3215  0.8484 -0.0092
  189SLPC   C1421774   5.685   2.450   5.776 -0.1774 -0.0331  0.7156
  189SLPC  H14A21775   5.587   2.486   5.805 -0.1586 -0.7630  1.6988
  189SLPC  H14B21776   5.768   2.479   5.839  1.5090  0.2910 -1.5186
  189SLPC  H14C21777   5.703   2.492   5.678 -0.6407 -0.7348  0.3248
  189SLPC   C1521778   5.690   2.256   5.912  0.5196  0.4044  1.1871
  189SLPC  H15A21779   5.597   2.290   5.954  0.7499  0.1540  1.9279
  189SLPC  H15B21780   5.689   2.148   5.915  0.1717  0.3337 -0.6653
  189SLPC  H15C21781   5.773   2.294   5.970  0.6067  1.0318  0.6664
  189SLPC   C1221782   5.568   2.252   5.697  0.5939 -0.2511  0.5601
  189SLPC  H12A21783   5.580   2.153   5.657 -1.1069 -0.1510 -0.2754
  189SLPC  H12B21784   5.562   2.316   5.610  0.9228 -2.0173 -0.8047
  189SLPC   C1121785   5.422   2.265   5.764  0.8079  0.4415 -0.1079
  189SLPC  H11A21786   5.423   2.196   5.851  2.6665 -0.1709 -0.5754
  189SLPC  H11B21787   5.343   2.233   5.693 -1.3486  2.5701  1.1793
  189SLPC     P21788   5.310   2.497   5.728  0.3026 -0.1083  0.2435
  189SLPC   O1321789   5.370   2.514   5.592 -0.2581  0.5815 -0.0695
  189SLPC   O1421790   5.161   2.462   5.724  0.0511  0.2695 -0.6284
  189SLPC   O1221791   5.390   2.393   5.812 -0.2618  0.4223  0.0311
  189SLPC   O1121792   5.322   2.628   5.815 -0.3611  0.8936  0.2053
  189SLPC    C121793   5.395   2.654   5.933 -0.4614 -1.0172  0.2274
  189SLPC    HA21794   5.458   2.568   5.961 -1.5048 -2.1650 -0.8107
  189SLPC    HB21795   5.460   2.743   5.918 -2.1087  0.2594  0.2867
  189SLPC    C221796   5.306   2.674   6.063 -0.1759 -0.7999 -0.0235
  189SLPC    HS21797   5.262   2.776   6.061 -0.8772 -1.0835  0.6863
  189SLPC   O2121798   5.389   2.651   6.178 -0.1983 -0.1757  0.3163
  189SLPC   C2121799   5.473   2.753   6.214 -0.3137 -0.4388  0.7271
  189SLPC   O2221800   5.490   2.850   6.146  0.6805  0.0581 -0.5860
  189SLPC   C2221801   5.534   2.723   6.357  0.4974 -0.1524 -0.6651
  189SLPC   H2R21802   5.471   2.648   6.408 -0.5629 -0.5429 -2.4490
  189SLPC   H2S21803   5.630   2.675   6.331 -0.7459 -1.0752 -4.2208
  189SLPC    C321804   5.194   2.573   6.059  0.4098 -0.7740  0.1208
  189SLPC    HX21805   5.230   2.472   6.030  1.1599 -0.1025 -1.3901
  189SLPC    HY21806   5.131   2.611   5.976  2.5732  0.4226 -1.0342
  189SLPC   O3121807   5.120   2.574   6.182 -0.0871 -0.2105 -0.4202
  189SLPC   C3121808   5.153   2.473   6.264  0.2634 -0.6836  0.7577
  189SLPC   O3221809   5.234   2.387   6.244  0.3155  0.5132  0.1832
  189SLPC   C3221810   5.063   2.484   6.392  0.8751 -0.0374  0.0714
  189SLPC   H2X21811   5.025   2.380   6.403  0.3686  0.0797 -0.5305
  189SLPC   H2Y21812   4.980   2.555   6.374  0.4825 -0.9191 -1.9159
  189SLPC   C2321813   5.555   2.856   6.427  0.0715 -0.9077  0.1746
  189SLPC   H3R21814   5.469   2.924   6.407 -0.5898 -1.5662  0.7302
  189SLPC   H3S21815   5.644   2.900   6.377 -1.1462  1.9100  0.2946
  189SLPC   C2421816   5.559   2.851   6.570 -0.4655 -1.1582  0.2651
  189SLPC   H4R21817   5.594   2.950   6.606 -0.0408 -1.2624  0.1471
  189SLPC   H4S21818   5.635   2.778   6.605  0.3659 -0.6181 -0.3584
  189SLPC   C2521819   5.419   2.819   6.632  0.7078 -0.1834  0.5759
  189SLPC   H5R21820   5.382   2.716   6.610 -3.0009  0.8699  1.1888
  189SLPC   H5S21821   5.336   2.884   6.598 -0.5743 -0.9591  2.0784
  189SLPC   C2621822   5.437   2.831   6.786  0.7541 -0.0825 -0.5209
  189SLPC   H6R21823   5.346   2.794   6.838  2.5618 -1.3533  1.9645
  189SLPC   H6S21824   5.445   2.937   6.818  0.3680  0.0246 -0.7798
  189SLPC   C2721825   5.539   2.733   6.842  0.6203 -0.8887 -0.7170
  189SLPC   H7R21826   5.640   2.766   6.808  0.3406  0.7807 -0.0587
  189SLPC   H7S21827   5.517   2.636   6.793 -2.0682 -2.2124  2.6654
  189SLPC   C2821828   5.564   2.744   6.996 -0.4758  0.3155 -0.4881
  189SLPC   H8R21829   5.579   2.849   7.027  0.1463  0.1523 -0.2302
  189SLPC   H8S21830   5.643   2.678   7.037 -2.6148 -0.9783  1.8966
  189SLPC   C2921831   5.449   2.679   7.072 -0.0040 -0.3648 -0.5753
  189SLPC   H9R21832   5.404   2.587   7.030 -0.0112  0.0465 -1.4965
  189SLPC  C21021833   5.401   2.713   7.195 -0.5498 -0.2623  0.1318
  189SLPC  H10R21834   5.324   2.646   7.235  1.4887 -3.3279 -0.7189
  189SLPC  C21121835   5.446   2.821   7.288  0.2161  0.6369 -0.4240
  189SLPC  H11R21836   5.360   2.849   7.353  0.8621  0.5747  0.4889
  189SLPC  H11S21837   5.483   2.910   7.232 -0.8905  1.3185 -0.0911
  189SLPC  C21221838   5.558   2.764   7.368 -0.5902  0.4441 -0.4987
  189SLPC  H12R21839   5.641   2.722   7.310 -0.1061 -2.1663  1.9029
  189SLPC  C21321840   5.582   2.766   7.508 -0.1768  0.4452  0.4969
  189SLPC  H13R21841   5.671   2.714   7.547  0.0480 -1.1970 -1.9377
  189SLPC  C21421842   5.496   2.836   7.611 -0.6134  0.1211 -0.5422
  189SLPC  H14R21843   5.397   2.858   7.564 -1.4218 -3.8451 -1.0666
  189SLPC  H14S21844   5.537   2.932   7.648 -0.3233 -0.7771  1.6303
  189SLPC  C21521845   5.473   2.749   7.738 -0.5732  0.1545 -0.3403
  189SLPC  H15R21846   5.393   2.676   7.714 -2.0267  1.1287  1.3395
  189SLPC  H15S21847   5.427   2.809   7.820  0.2799 -1.7247  1.5846
  189SLPC  C21621848   5.587   2.671   7.806  0.0058  0.4908 -0.7146
  189SLPC  H16R21849   5.688   2.718   7.805  0.3664 -0.2611 -0.3535
  189SLPC  H16S21850   5.590   2.576   7.748  3.2106 -0.1004  0.2163
  189SLPC  C21721851   5.556   2.633   7.957 -0.2133 -0.2317 -0.1077
  189SLPC  H17R21852   5.482   2.550   7.957 -0.5713  0.0837  0.0372
  189SLPC  H17S21853   5.510   2.722   8.005 -1.7944 -0.3930 -1.2524
  189SLPC  C21821854   5.689   2.596   8.027  1.0018  0.1367  0.2920
  189SLPC  H18R21855   5.660   2.546   8.122  2.5978 -1.1561  0.1527
  189SLPC  H18S21856   5.754   2.685   8.045  2.0511 -0.9138  2.0129
  189SLPC  H18T21857   5.740   2.521   7.963 -1.1823 -0.0002 -1.4135
  189SLPC   C3321858   5.146   2.517   6.519 -0.0875  0.8012  0.6170
  189SLPC   H3X21859   5.163   2.627   6.521 -0.6306  0.8887  0.7482
  189SLPC   H3Y21860   5.241   2.461   6.510 -0.2344  0.7130 -0.5154
  189SLPC   C3421861   5.078   2.462   6.644  0.5497 -0.0956 -0.8429
  189SLPC   H4X21862   5.056   2.353   6.634 -4.0408  0.2445  2.4895
  189SLPC   H4Y21863   4.979   2.508   6.665  1.0651 -0.5625  3.4856
  189SLPC   C3521864   5.165   2.475   6.774  0.2638  0.0172  0.3557
  189SLPC   H5X21865   5.206   2.577   6.783 -0.0315  0.1513  0.1999
  189SLPC   H5Y21866   5.247   2.401   6.764 -0.8970 -1.3014  0.2458
  189SLPC   C3621867   5.084   2.417   6.890  0.0345  0.0458  0.2803
  189SLPC   H6X21868   5.044   2.317   6.863 -1.6310  0.9956 -0.9443
  189SLPC   H6Y21869   4.999   2.481   6.922  1.0767  1.7916 -0.3414
  189SLPC   C3721870   5.177   2.392   7.009  0.1146 -0.2150  0.5522
  189SLPC   H7X21871   5.233   2.487   7.026 -0.6404  0.2175  0.7037
  189SLPC   H7Y21872   5.242   2.307   6.980  0.3004 -0.4304  1.5716
  189SLPC   C3821873   5.103   2.357   7.141  0.4082 -1.0628  0.4468
  189SLPC   H8X21874   5.040   2.267   7.123  2.6496 -2.4685 -0.9251
  189SLPC   H8Y21875   5.032   2.437   7.169 -1.5068 -2.7459  0.6461
  189SLPC   C3921876   5.214   2.344   7.252  0.0519 -0.0758 -0.3798
  189SLPC   H9X21877   5.269   2.440   7.256 -1.4760  0.7739  1.4168
  189SLPC   H9Y21878   5.279   2.255   7.235  0.3664 -1.6191  6.1999
  189SLPC  C31021879   5.167   2.308   7.389 -0.7130 -0.1583  0.4273
  189SLPC  H10X21880   5.102   2.218   7.382 -1.7711  0.6212 -0.2193
  189SLPC  H10Y21881   5.101   2.391   7.421 -0.5087  0.2706 -0.2230
  189SLPC  C31121882   5.277   2.300   7.493  0.0345 -0.4001 -0.4367
  189SLPC  H11X21883   5.354   2.379   7.488 -0.7155  0.5884  2.0729
  189SLPC  H11Y21884   5.333   2.209   7.463  1.6399  0.4546 -0.1486
  189SLPC  C31221885   5.210   2.276   7.629 -0.2824  0.4417  0.5865
  189SLPC  H12X21886   5.148   2.184   7.624  0.7332 -0.2786  0.8299
  189SLPC  H12Y21887   5.153   2.367   7.655  1.3257  0.5848  4.2327
  189SLPC  C31321888   5.320   2.241   7.733  0.5345  0.0210  0.3892
  189SLPC  H13X21889   5.406   2.310   7.723  1.0425 -0.4022  1.5472
  189SLPC  H13Y21890   5.362   2.145   7.697 -0.7525  0.2443 -1.8623
  189SLPC  C31421891   5.264   2.230   7.871 -0.3869 -0.5147  0.2516
  189SLPC  H14X21892   5.168   2.174   7.870 -1.0139  0.5583  0.1264
  189SLPC  H14Y21893   5.248   2.332   7.912  3.3388 -0.2527  1.4279
  189SLPC  C31521894   5.375   2.168   7.967  0.8344  0.5290 -0.2726
  189SLPC  H15X21895   5.465   2.234   7.963 -0.1729  2.0138  0.5547
  189SLPC  H15Y21896   5.393   2.065   7.929 -0.7269  0.6012 -1.2969
  189SLPC  C31621897   5.329   2.145   8.109  0.2793 -0.3034  0.7394
  189SLPC  H16X21898   5.251   2.066   8.106 -1.9516  1.7085 -3.8810
  189SLPC  H16Y21899   5.270   2.223   8.160  2.3379  1.0421  1.1765
  189SLPC  C31721900   5.447   2.112   8.202 -0.0918 -0.0279 -0.1945
  189SLPC  H17X21901   5.524   2.045   8.158  1.9009 -0.4242  3.4997
  189SLPC  H17Y21902   5.416   2.056   8.294  2.5730 -2.3040 -0.5301
  189SLPC  C31821903   5.512   2.244   8.248 -0.3485  0.3550 -0.0278
  189SLPC  H18X21904   5.600   2.205   8.303 -0.3972  0.6095  0.2346
  189SLPC  H18Y21905   5.455   2.313   8.315 -0.0606  2.2503 -1.6334
  189SLPC  H18Z21906   5.554   2.305   8.165 -1.0244  4.5675  2.4076
  190SLPC     N21907   6.455   3.585   6.328  0.1565  0.6183 -0.0105
  190SLPC   C1321908   6.475   3.490   6.211  0.5089 -0.3410 -0.0940
  190SLPC  H13A21909   6.393   3.421   6.198  0.2118  0.0753 -0.4314
  190SLPC  H13B21910   6.497   3.539   6.117 -4.5935  0.4384 -1.1897
  190SLPC  H13C21911   6.559   3.423   6.227 -0.5925 -1.8046 -0.1845
  190SLPC   C1421912   6.392   3.509   6.438 -0.4382  0.6806 -0.1420
  190SLPC  H14A21913   6.397   3.558   6.534  1.8551  0.2716  0.0071
  190SLPC  H14B21914   6.288   3.492   6.414 -0.0528  1.3823 -2.6252
  190SLPC  H14C21915   6.438   3.412   6.438 -0.6975  0.5559  0.8343
  190SLPC   C1521916   6.352   3.689   6.289 -0.3137 -0.2848 -0.1767
  190SLPC  H15A21917   6.389   3.749   6.207 -0.5422  0.9835  0.6050
  190SLPC  H15B21918   6.254   3.650   6.268 -0.6067  1.4156 -2.3447
  190SLPC  H15C21919   6.350   3.762   6.369  0.7953  0.5201 -0.8489
  190SLPC   C1221920   6.584   3.652   6.375  0.1277  0.1815  0.2580
  190SLPC  H12A21921   6.560   3.726   6.449 -1.3329 -0.6208  0.6387
  190SLPC  H12B21922   6.622   3.712   6.293 -1.0854  0.5017 -0.0972
  190SLPC   C1121923   6.700   3.575   6.427  0.5801  0.0686  0.1187
  190SLPC  H11A21924   6.652   3.510   6.503  1.6687 -1.0836 -0.1457
  190SLPC  H11B21925   6.780   3.629   6.483 -0.1245 -0.0739  1.2979
  190SLPC     P21926   6.867   3.555   6.241  0.5261  0.2462 -0.2652
  190SLPC   O1321927   6.873   3.494   6.106 -0.5555  0.1780 -0.2984
  190SLPC   O1421928   6.862   3.704   6.241 -0.2050 -0.2826 -0.2379
  190SLPC   O1221929   6.740   3.489   6.320 -0.3404  0.1767 -0.0613
  190SLPC   O1121930   6.986   3.504   6.326 -0.1605 -0.1597 -0.2273
  190SLPC    C121931   7.001   3.368   6.370 -0.6848  0.8480 -0.2727
  190SLPC    HA21932   6.970   3.294   6.294  1.2099 -0.1323 -0.1527
  190SLPC    HB21933   7.109   3.354   6.392 -1.3007 -0.2656  2.4215
  190SLPC    C221934   6.936   3.326   6.510  0.5990  0.5244 -0.3016
  190SLPC    HS21935   6.826   3.317   6.496  0.4410  1.6400  0.1765
  190SLPC   O2121936   6.967   3.435   6.593  0.3358  0.0471 -0.0707
  190SLPC   C2121937   6.877   3.470   6.693 -0.0563  0.2623  0.4314
  190SLPC   O2221938   6.771   3.417   6.720 -0.1133 -0.3384  0.1154
  190SLPC   C2221939   6.929   3.583   6.782 -0.3855  0.4933  0.0064
  190SLPC   H2R21940   7.035   3.553   6.796 -0.6387 -1.8256 -2.2048
  190SLPC   H2S21941   6.931   3.676   6.720  0.9607  1.7991  1.9048
  190SLPC    C321942   6.991   3.186   6.559  0.9949  0.4623 -0.5761
  190SLPC    HX21943   7.102   3.179   6.562  0.8544 -2.7827  0.1754
  190SLPC    HY21944   6.957   3.101   6.496 -0.4142  0.2900  0.3704
  190SLPC   O3121945   6.939   3.166   6.691 -0.1695 -0.0089 -0.1684
  190SLPC   C3121946   6.822   3.096   6.703  0.3775  0.9766  0.3815
  190SLPC   O3221947   6.754   3.065   6.612 -0.1049 -0.4897 -0.1994
  190SLPC   C3221948   6.805   3.057   6.850  0.0783 -0.5769  0.0347
  190SLPC   H2X21949   6.889   3.096   6.912 -1.0836 -0.2542  1.4761
  190SLPC   H2Y21950   6.815   2.947   6.860 -3.5847 -1.0991 -0.6144
  190SLPC   C2321951   6.860   3.616   6.908  0.6192 -0.5711 -0.3438
  190SLPC   H3R21952   6.751   3.629   6.891 -0.0647  0.2782  3.6948
  190SLPC   H3S21953   6.901   3.715   6.939  1.4836 -1.1763  0.4984
  190SLPC   C2421954   6.878   3.516   7.014 -0.0878 -0.4417 -0.1193
  190SLPC   H4R21955   6.987   3.502   7.030 -0.0772 -0.4925 -0.2375
  190SLPC   H4S21956   6.835   3.419   6.978  0.4715 -0.4708 -0.7262
  190SLPC   C2521957   6.809   3.554   7.150 -0.4954  0.3793 -0.4868
  190SLPC   H5R21958   6.700   3.570   7.132 -0.3837  1.0248 -0.6308
  190SLPC   H5S21959   6.869   3.641   7.185  1.6751 -1.9196  1.9466
  190SLPC   C2621960   6.822   3.441   7.251  0.1028  0.0219  0.1337
  190SLPC   H6R21961   6.929   3.414   7.262  0.9312  3.0348  0.3381
  190SLPC   H6S21962   6.761   3.353   7.220 -2.0950  0.6720  2.2847
  190SLPC   C2721963   6.769   3.486   7.390  0.0670  0.6270 -0.1366
  190SLPC   H7R21964   6.660   3.506   7.383 -0.0859  0.1610  0.7950
  190SLPC   H7S21965   6.816   3.582   7.424  1.3553  0.0233 -0.1613
  190SLPC   C2821966   6.789   3.385   7.505 -0.0785  0.8477 -0.2131
  190SLPC   H8R21967   6.760   3.417   7.607  1.3457  1.0777  0.1489
  190SLPC   H8S21968   6.900   3.373   7.507 -0.1323  0.1307 -0.9086
  190SLPC   C2921969   6.714   3.258   7.471  0.8415 -0.2401 -0.0980
  190SLPC   H9R21970   6.614   3.277   7.428  1.5287  3.5202 -0.3730
  190SLPC  C21021971   6.754   3.136   7.497 -0.8369  0.1763  0.1399
  190SLPC  H10R21972   6.682   3.056   7.478  1.3401 -1.4015 -2.1787
  190SLPC  C21121973   6.885   3.089   7.560  0.2611  0.3045  0.1348
  190SLPC  H11R21974   6.954   3.168   7.597  0.2633  0.5810 -0.4468
  190SLPC  H11S21975   6.933   3.033   7.477  1.2650 -0.5928  1.2819
  190SLPC  C21221976   6.848   2.984   7.664  0.4173  0.1284 -0.1208
  190SLPC  H12R21977   6.744   2.949   7.673  0.2570  0.5277 -0.4035
  190SLPC  C21321978   6.940   2.914   7.732 -0.6682  0.9930 -0.3537
  190SLPC  H13R21979   6.904   2.832   7.795 -1.0316  0.4472 -1.2448
  190SLPC  C21421980   7.092   2.941   7.730  0.2417  0.4410  0.4128
  190SLPC  H14R21981   7.124   2.958   7.625 -0.4249 -0.6409  0.0094
  190SLPC  H14S21982   7.145   2.845   7.750  1.4380  0.4812 -2.1877
  190SLPC  C21521983   7.175   3.029   7.820  0.1999 -1.1310  0.1341
  190SLPC  H15R21984   7.163   3.003   7.928 -0.5456  2.0130  0.8961
  190SLPC  H15S21985   7.148   3.136   7.808  3.6511  0.0712  1.5872
  190SLPC  C21621986   7.322   3.020   7.785  0.5324  0.3703 -0.1743
  190SLPC  H16R21987   7.334   3.080   7.692 -0.5090 -2.5226 -2.3181
  190SLPC  H16S21988   7.344   2.915   7.755  1.1534  0.4617 -0.0710
  190SLPC  C21721989   7.411   3.065   7.899  0.2401 -0.1801  0.0948
  190SLPC  H17R21990   7.405   2.995   7.985 -1.3616 -0.8321 -0.5173
  190SLPC  H17S21991   7.366   3.158   7.940 -0.1659 -0.2478 -0.1937
  190SLPC  C21821992   7.554   3.084   7.854 -0.1491 -1.0101  0.5685
  190SLPC  H18R21993   7.548   3.126   7.752  1.1749 -0.4574  0.7051
  190SLPC  H18S21994   7.606   2.987   7.838  1.6885  0.0468 -0.1738
  190SLPC  H18T21995   7.602   3.155   7.924 -1.6520  1.0348 -0.3999
  190SLPC   C3321996   6.665   3.098   6.904 -1.0243  0.6977 -0.4432
  190SLPC   H3X21997   6.588   3.059   6.834 -1.0466 -0.2622  0.1080
  190SLPC   H3Y21998   6.660   3.209   6.905 -0.9263  0.6961  0.7747
  190SLPC   C3421999   6.634   3.060   7.048  0.1353 -0.1642  0.7404
  190SLPC   H4X22000   6.728   3.079   7.104  0.0518 -0.5256  1.0125
  190SLPC   H4Y22001   6.604   2.953   7.055  0.6730 -0.2096  2.9841
  190SLPC   C3522002   6.508   3.142   7.092 -0.0690 -0.4514  0.2460
  190SLPC   H5X22003   6.444   3.147   7.001  0.4916  2.3662 -0.0726
  190SLPC   H5Y22004   6.546   3.242   7.121 -0.3819  0.1411 -1.2692
  190SLPC   C3622005   6.424   3.079   7.205  0.5745 -0.5102 -0.0244
  190SLPC   H6X22006   6.482   3.063   7.298  1.7308 -1.3189 -0.8599
  190SLPC   H6Y22007   6.387   2.978   7.176 -0.7579 -1.0862  3.2301
  190SLPC   C3722008   6.290   3.154   7.234  0.5133  0.1420  0.1414
  190SLPC   H7X22009   6.214   3.121   7.160  1.1133 -1.3072  0.1401
  190SLPC   H7Y22010   6.308   3.263   7.234  1.9217  0.0729  4.1301
  190SLPC   C3822011   6.228   3.113   7.368 -0.2906  0.0812 -0.4565
  190SLPC   H8X22012   6.260   3.012   7.403  0.4704  0.6085  0.3833
  190SLPC   H8Y22013   6.118   3.100   7.359 -0.2414 -2.1209  1.0998
  190SLPC   C3922014   6.274   3.221   7.476  0.1789 -0.2652 -0.3629
  190SLPC   H9X22015   6.244   3.321   7.436 -1.5336 -0.0355  1.3578
  190SLPC   H9Y22016   6.384   3.221   7.485  0.2704 -2.0308 -1.0764
  190SLPC  C31022017   6.208   3.203   7.611 -0.7392  0.4299  0.5635
  190SLPC  H10X22018   6.233   3.101   7.647 -1.1439 -0.2394 -0.9328
  190SLPC  H10Y22019   6.097   3.201   7.599 -0.6791  1.0123 -0.2510
  190SLPC  C31122020   6.270   3.315   7.694 -0.5401  0.7117 -0.7786
  190SLPC  H11X22021   6.286   3.408   7.636 -2.7005  1.5149 -0.2011
  190SLPC  H11Y22022   6.375   3.290   7.717 -0.8815  0.5514  0.7241
  190SLPC  C31222023   6.193   3.357   7.817  0.1630 -0.6436  0.8041
  190SLPC  H12X22024   6.085   3.370   7.798  0.2209  2.1630  1.9770
  190SLPC  H12Y22025   6.228   3.458   7.847 -1.1776  0.1780 -0.3008
  190SLPC  C31322026   6.232   3.263   7.937  0.1118  0.0487 -0.4855
  190SLPC  H13X22027   6.340   3.282   7.952 -0.6540  5.2330  0.3734
  190SLPC  H13Y22028   6.213   3.155   7.918  0.4378  0.0103 -0.5879
  190SLPC  C31422029   6.155   3.298   8.065 -0.5189  0.5423  0.2058
  190SLPC  H14X22030   6.045   3.288   8.056 -0.5783 -0.5801  1.8027
  190SLPC  H14Y22031   6.186   3.404   8.077  1.7709  0.0483 -0.7525
  190SLPC  C31522032   6.206   3.204   8.175 -0.0201  0.1277  0.1001
  190SLPC  H15X22033   6.317   3.207   8.179  0.0309 -1.2934  0.1472
  190SLPC  H15Y22034   6.185   3.099   8.148  0.7268 -0.1182  0.4580
  190SLPC  C31622035   6.144   3.235   8.315 -0.7677 -0.7010 -0.1027
  190SLPC  H16X22036   6.034   3.242   8.307 -0.9539  0.3382  2.4364
  190SLPC  H16Y22037   6.172   3.337   8.351 -0.7571 -1.3445  1.8610
  190SLPC  C31722038   6.185   3.125   8.414  0.1001 -0.0017  0.5248
  190SLPC  H17X22039   6.294   3.110   8.409 -0.1781 -2.6749  1.2596
  190SLPC  H17Y22040   6.123   3.036   8.392 -1.9404  0.9017  2.1752
  190SLPC  C31822041   6.146   3.162   8.554 -0.4585  0.5654 -0.3476
  190SLPC  H18X22042   6.195   3.259   8.580  0.4504  0.4207 -1.4516
  190SLPC  H18Y22043   6.177   3.095   8.638 -1.0129 -1.0155 -1.3671
  190SLPC  H18Z22044   6.037   3.174   8.565 -0.4282 -1.1007  3.3633
  191SLPC     N22045   2.435   3.601   6.258 -0.0743 -0.2248  0.3030
  191SLPC   C1322046   2.440   3.671   6.123 -0.6779  0.9489  0.6493
  191SLPC  H13A22047   2.368   3.751   6.114 -0.2833  1.1096 -1.4712
  191SLPC  H13B22048   2.538   3.713   6.102  0.7420 -1.8651  1.1791
  191SLPC  H13C22049   2.424   3.592   6.053  2.7518 -0.0922  0.8410
  191SLPC   C1422050   2.502   3.692   6.363  0.0711  0.0027 -0.1449
  191SLPC  H14A22051   2.514   3.649   6.461  1.6290  2.7790  1.0115
  191SLPC  H14B22052   2.596   3.727   6.323 -0.8263  2.3831 -0.3668
  191SLPC  H14C22053   2.459   3.792   6.367 -0.4074 -0.1721 -0.6896
  191SLPC   C1522054   2.494   3.464   6.252  0.0570  0.4396 -0.0700
  191SLPC  H15A22055   2.418   3.388   6.251 -0.4287  0.9038  0.3890
  191SLPC  H15B22056   2.564   3.455   6.171  0.3624  1.6425  0.0435
  191SLPC  H15C22057   2.543   3.456   6.348 -0.1590 -0.4612 -0.0259
  191SLPC   C1222058   2.285   3.589   6.302 -0.5849  0.0668  0.3612
  191SLPC  H12A22059   2.247   3.690   6.309 -0.4163  0.4979 -3.2971
  191SLPC  H12B22060   2.294   3.560   6.406  2.0752 -0.1059  0.1488
  191SLPC   C1122061   2.181   3.503   6.214 -0.0940  0.0648  0.0189
  191SLPC  H11A22062   2.202   3.557   6.120 -0.1851  0.4312  0.2072
  191SLPC  H11B22063   2.076   3.518   6.246  0.6589 -0.7524  3.2506
  191SLPC     P22064   2.203   3.259   6.324  0.1680 -0.3404 -0.0396
  191SLPC   O1322065   2.182   3.130   6.256 -0.9699 -0.1107  0.4168
  191SLPC   O1422066   2.305   3.266   6.432  0.7772 -0.1282 -0.0865
  191SLPC   O1222067   2.229   3.365   6.213  0.1418 -0.0281  0.3980
  191SLPC   O1122068   2.063   3.313   6.388 -0.5056 -0.4046  0.1464
  191SLPC    C122069   1.987   3.235   6.480  0.2873  0.1817  0.4448
  191SLPC    HA22070   1.879   3.242   6.455 -0.1514 -0.2264  2.0900
  191SLPC    HB22071   2.012   3.128   6.466  2.4955  0.8582 -1.5168
  191SLPC    C222072   2.018   3.271   6.628  0.0901 -0.6275 -0.3546
  191SLPC    HS22073   2.127   3.290   6.630 -0.2090  1.1639  0.4585
  191SLPC   O2122074   1.973   3.169   6.714  0.2712 -0.4621  0.5793
  191SLPC   C2122075   2.069   3.093   6.753 -0.8486  0.5826 -0.3245
  191SLPC   O2222076   2.190   3.116   6.739  0.6264  0.3488  0.4009
  191SLPC   C2222077   2.012   2.961   6.799  0.1185 -0.1160 -0.4042
  191SLPC   H2R22078   1.933   2.985   6.873 -0.3590 -0.5968 -0.7493
  191SLPC   H2S22079   1.986   2.905   6.706  0.0970 -1.3972  0.3472
  191SLPC    C322080   1.944   3.408   6.654  0.0191 -0.4403 -0.7360
  191SLPC    HX22081   1.840   3.379   6.627  0.2483 -1.1505 -0.8672
  191SLPC    HY22082   1.984   3.485   6.585  0.2704 -0.6209 -0.7919
  191SLPC   O3122083   1.950   3.455   6.792 -0.0719 -0.5965 -0.5150
  191SLPC   C3122084   2.071   3.510   6.833 -0.2535  0.0852  0.3049
  191SLPC   O3222085   2.164   3.528   6.755 -0.2063 -0.1647 -0.3066
  191SLPC   C3222086   2.076   3.544   6.980 -0.3768  0.0527  0.3019
  191SLPC   H2X22087   2.010   3.629   7.006 -3.5791 -2.1577 -0.0496
  191SLPC   H2Y22088   2.182   3.576   6.985  0.9494 -3.4265 -1.8443
  191SLPC   C2322089   2.118   2.869   6.873  0.2006 -0.1102 -0.5385
  191SLPC   H3R22090   2.127   2.893   6.981  2.7361 -0.7420 -0.5356
  191SLPC   H3S22091   2.223   2.887   6.840  1.0609 -0.3513  1.8807
  191SLPC   C2422092   2.086   2.721   6.850  0.3042  0.5278 -0.7622
  191SLPC   H4R22093   2.058   2.701   6.745 -4.5348  0.0870  0.3633
  191SLPC   H4S22094   1.993   2.702   6.909  0.3330  0.1984 -0.8172
  191SLPC   C2522095   2.208   2.636   6.891 -0.1190  0.1746  0.2126
  191SLPC   H5R22096   2.295   2.663   6.827 -0.3172 -1.1775 -0.6779
  191SLPC   H5S22097   2.178   2.535   6.855  1.6495 -0.7575  1.2588
  191SLPC   C2622098   2.245   2.644   7.033  0.7374  0.0240 -0.5166
  191SLPC   H6R22099   2.158   2.631   7.102 -0.6120  1.3228 -1.8964
  191SLPC   H6S22100   2.276   2.749   7.052 -0.1494  0.0975  0.6387
  191SLPC   C2722101   2.356   2.540   7.074  0.2551  1.0437 -0.0155
  191SLPC   H7R22102   2.447   2.559   7.013  0.8883 -0.5272  0.4062
  191SLPC   H7S22103   2.316   2.438   7.056 -3.6472  2.2736  0.6897
  191SLPC   C2822104   2.403   2.555   7.218 -0.3960 -0.3270 -0.2288
  191SLPC   H8R22105   2.428   2.663   7.226 -1.1735 -0.1170 -0.6175
  191SLPC   H8S22106   2.495   2.499   7.244 -0.0529  1.1205  1.9486
  191SLPC   C2922107   2.292   2.512   7.311 -0.4946  0.0258 -0.3103
  191SLPC   H9R22108   2.217   2.436   7.285 -0.4700 -0.3364  0.6259
  191SLPC  C21022109   2.270   2.569   7.432 -0.7917  0.5334 -0.3225
  191SLPC  H10R22110   2.187   2.537   7.497  0.2382  0.6910  1.1221
  191SLPC  C21122111   2.378   2.655   7.505  0.3482 -0.3658  0.6062
  191SLPC  H11R22112   2.393   2.747   7.444 -1.4809 -0.7081 -0.4282
  191SLPC  H11S22113   2.470   2.593   7.497 -1.2063 -2.6055 -0.5552
  191SLPC  C21222114   2.352   2.707   7.641  0.1970 -0.2884 -0.6338
  191SLPC  H12R22115   2.283   2.791   7.646 -0.4645 -0.7282 -1.9393
  191SLPC  C21322116   2.403   2.656   7.757  0.2279 -0.9689 -0.2437
  191SLPC  H13R22117   2.389   2.702   7.856 -2.4103  1.1185 -1.4668
  191SLPC  C21422118   2.517   2.550   7.749  0.3248  0.3563 -0.0074
  191SLPC  H14R22119   2.613   2.584   7.704  0.1172  1.0657  0.0771
  191SLPC  H14S22120   2.477   2.464   7.691 -0.1766  1.2491 -1.0132
  191SLPC  C21522121   2.542   2.481   7.885 -0.5404  0.7716 -0.2261
  191SLPC  H15R22122   2.610   2.393   7.878 -0.5061  0.8223 -0.5487
  191SLPC  H15S22123   2.449   2.439   7.929  0.1821  1.1595  1.8202
  191SLPC  C21622124   2.615   2.574   7.984  0.1976 -0.3272 -0.6809
  191SLPC  H16R22125   2.558   2.664   8.012  0.6234 -0.1887 -0.2574
  191SLPC  H16S22126   2.714   2.604   7.944  0.5677  1.5959  1.4998
  191SLPC  C21722127   2.638   2.506   8.120 -0.0954  0.1784  0.9731
  191SLPC  H17R22128   2.701   2.417   8.099 -0.9977 -0.0241 -1.2681
  191SLPC  H17S22129   2.548   2.469   8.174 -0.5075  2.0736  1.6757
  191SLPC  C21822130   2.713   2.585   8.224  0.8100 -0.0161  0.4608
  191SLPC  H18R22131   2.730   2.526   8.316 -1.9481  0.3633  1.3041
  191SLPC  H18S22132   2.657   2.672   8.264  3.8434  2.1577  0.3968
  191SLPC  H18T22133   2.805   2.623   8.174  2.1636 -2.0727  1.2575
  191SLPC   C3322134   2.040   3.427   7.084 -0.4437 -0.1685  0.2242
  191SLPC   H3X22135   2.107   3.339   7.072 -1.4474 -1.5027  3.4568
  191SLPC   H3Y22136   1.935   3.397   7.065 -0.8158  2.1584 -2.0542
  191SLPC   C3422137   2.051   3.472   7.225 -0.5335 -0.4455  0.0790
  191SLPC   H4X22138   2.003   3.572   7.236  1.5243  0.7695 -1.2637
  191SLPC   H4Y22139   2.158   3.488   7.252 -1.2141  1.0236  2.1588
  191SLPC   C3522140   1.988   3.384   7.327 -0.0533  0.0101  0.1226
  191SLPC   H5X22141   2.065   3.304   7.338 -0.9950 -1.0795 -0.9536
  191SLPC   H5Y22142   1.902   3.326   7.287  0.1819 -0.3472  0.1320
  191SLPC   C3622143   1.954   3.436   7.464 -0.3430 -0.6448  0.6536
  191SLPC   H6X22144   1.864   3.495   7.434  1.4303  0.5790 -2.7953
  191SLPC   H6Y22145   2.038   3.502   7.495  0.5347 -0.8515 -1.1826
  191SLPC   C3722146   1.916   3.319   7.558  0.0456  0.0627  0.1718
  191SLPC   H7X22147   1.991   3.238   7.566  1.2330  1.2726  2.0920
  191SLPC   H7Y22148   1.816   3.286   7.522 -0.3216  0.6765  0.6005
  191SLPC   C3822149   1.905   3.371   7.708  0.5618  0.6211  0.9265
  191SLPC   H8X22150   1.854   3.469   7.713 -2.3369 -0.5875 -1.8008
  191SLPC   H8Y22151   2.013   3.377   7.733  0.5334  2.1299  0.7970
  191SLPC   C3922152   1.829   3.281   7.803 -0.2007  0.4229 -0.3005
  191SLPC   H9X22153   1.864   3.176   7.805 -2.5928 -0.4257 -0.2143
  191SLPC   H9Y22154   1.721   3.269   7.782 -0.3207 -1.2303  1.0885
  191SLPC  C31022155   1.837   3.347   7.947 -0.3082  0.2973  0.3900
  191SLPC  H10X22156   1.779   3.442   7.947  1.5536  1.4746  1.1551
  191SLPC  H10Y22157   1.947   3.363   7.949 -0.0504 -1.3124  0.1358
  191SLPC  C31122158   1.794   3.256   8.062  0.4568 -0.4228  0.7386
  191SLPC  H11X22159   1.687   3.228   8.052 -0.2076  0.5539  4.0359
  191SLPC  H11Y22160   1.799   3.304   8.162 -2.1706  0.0656  0.7139
  191SLPC  C31222161   1.868   3.119   8.079 -0.1030 -0.0192  0.2815
  191SLPC  H12X22162   1.979   3.121   8.090  0.0927 -2.6057 -0.4554
  191SLPC  H12Y22163   1.858   3.060   7.985  3.6011  0.2174 -0.4022
  191SLPC  C31322164   1.816   3.026   8.185 -0.5873 -0.0516 -0.0752
  191SLPC  H13X22165   1.707   3.008   8.194 -0.4355 -0.9551  0.0920
  191SLPC  H13Y22166   1.858   3.071   8.277  0.2493  1.5269 -1.1709
  191SLPC  C31422167   1.866   2.880   8.174 -0.1284 -0.5100  0.0330
  191SLPC  H14X22168   1.977   2.873   8.165 -0.1845 -1.4095 -0.0611
  191SLPC  H14Y22169   1.832   2.838   8.077  1.2939 -0.2785 -0.5963
  191SLPC  C31522170   1.831   2.785   8.292 -0.6621 -0.3598 -0.2128
  191SLPC  H15X22171   1.831   2.686   8.242 -0.7931 -0.6963  0.4490
  191SLPC  H15Y22172   1.739   2.822   8.341 -0.5379 -1.1384  0.6418
  191SLPC  C31622173   1.933   2.778   8.417  0.3831  0.0622  1.3860
  191SLPC  H16X22174   1.938   2.886   8.440 -0.8107  0.8413 -1.5185
  191SLPC  H16Y22175   2.028   2.733   8.381  0.0999  0.0605  0.6074
  191SLPC  C31722176   1.869   2.694   8.530  0.9190 -0.5238  0.3195
  191SLPC  H17X22177   1.944   2.638   8.589 -0.7108 -2.6743  0.4586
  191SLPC  H17Y22178   1.805   2.623   8.474 -0.8516  2.2155 -1.4255
  191SLPC  C31822179   1.784   2.767   8.629 -0.4263 -0.4482 -0.2370
  191SLPC  H18X22180   1.821   2.770   8.734 -1.3702  1.5653  0.0901
  191SLPC  H18Y22181   1.684   2.717   8.634 -0.8283  0.4116  0.5640
  191SLPC  H18Z22182   1.763   2.868   8.588  2.0077 -1.5364 -4.8323
  192SLPC     N22183   1.684   4.970   6.223  0.9134  0.4771 -0.1326
  192SLPC   C1322184   1.827   5.017   6.214 -0.4829  0.3669  0.8128
  192SLPC  H13A22185   1.828   5.071   6.120 -2.2443  0.4230  0.7871
  192SLPC  H13B22186   1.849   5.071   6.305  0.8373 -0.4711  1.0065
  192SLPC  H13C22187   1.891   4.932   6.196 -1.9280 -0.3174 -1.6735
  192SLPC   C1422188   1.671   4.876   6.336 -0.3225  0.0822  0.3244
  192SLPC  H14A22189   1.567   4.851   6.352 -0.2655  0.4994  1.4618
  192SLPC  H14B22190   1.711   4.778   6.317 -1.2208 -1.1480  3.9925
  192SLPC  H14C22191   1.716   4.907   6.429 -0.1017  0.6067  0.0521
  192SLPC   C1522192   1.657   4.899   6.095 -0.1193 -0.4069  0.1229
  192SLPC  H15A22193   1.572   4.834   6.109  0.6892 -1.0678  2.4782
  192SLPC  H15B22194   1.635   4.970   6.017 -1.0790 -1.5370 -0.6758
  192SLPC  H15C22195   1.731   4.829   6.059 -1.2301 -1.0834 -0.9076
  192SLPC   C1222196   1.574   5.077   6.239  0.1040  0.1824  0.4359
  192SLPC  H12A22197   1.593   5.141   6.324  0.3891  0.0244  0.4910
  192SLPC  H12B22198   1.478   5.030   6.252 -0.3936  0.7316 -1.0566
  192SLPC   C1122199   1.560   5.187   6.122 -0.5708 -0.6458  0.0904
  192SLPC  H11A22200   1.481   5.261   6.149  0.6778  0.7856 -0.0407
  192SLPC  H11B22201   1.515   5.124   6.043 -0.8904 -1.1645  0.6732
  192SLPC     P22202   1.742   5.368   6.175 -0.2949 -0.2055  0.2229
  192SLPC   O1322203   1.868   5.314   6.239  0.0964  0.0611  0.0873
  192SLPC   O1422204   1.766   5.493   6.096  0.7255  0.1900 -0.1524
  192SLPC   O1222205   1.683   5.253   6.085  0.2105 -0.3230  0.0334
  192SLPC   O1122206   1.628   5.385   6.280 -0.0844 -0.1642 -0.4725
  192SLPC    C122207   1.561   5.505   6.314  0.9095 -0.0241 -0.7169
  192SLPC    HA22208   1.632   5.590   6.313  0.7998  0.0738 -0.1450
  192SLPC    HB22209   1.472   5.524   6.251  0.0639 -1.6950 -0.0976
  192SLPC    C222210   1.499   5.492   6.454 -0.4495  0.7927  0.5132
  192SLPC    HS22211   1.454   5.589   6.484 -1.2865  1.6019 -2.9194
  192SLPC   O2122212   1.575   5.429   6.553 -0.2240  0.4842  0.0042
  192SLPC   C2122213   1.674   5.504   6.590  0.3127  0.5195 -0.0190
  192SLPC   O2222214   1.694   5.621   6.552  0.3876  0.4486  0.4066
  192SLPC   C2222215   1.773   5.430   6.678 -0.2415  0.3029 -0.3095
  192SLPC   H2R22216   1.805   5.336   6.628 -0.5565 -0.9018  1.6602
  192SLPC   H2S22217   1.859   5.500   6.686  0.6689 -0.6967 -0.9704
  192SLPC    C322218   1.379   5.401   6.434  0.0517 -0.2701 -0.0117
  192SLPC    HX22219   1.406   5.306   6.382 -2.5970 -1.0717 -0.0812
  192SLPC    HY22220   1.308   5.456   6.368 -1.0872 -0.6476  0.8535
  192SLPC   O3122221   1.318   5.367   6.556 -0.1921  0.4800  0.4496
  192SLPC   C3122222   1.193   5.402   6.595 -0.4877  0.1779 -0.4865
  192SLPC   O3222223   1.122   5.474   6.532  0.1839 -0.2875  0.6130
  192SLPC   C3222224   1.162   5.333   6.736 -0.5191 -0.5269 -0.1245
  192SLPC   H2X22225   1.263   5.315   6.779 -0.9441 -1.9034  0.3649
  192SLPC   H2Y22226   1.115   5.232   6.733  1.5824 -1.6101  0.9759
  192SLPC   C2322227   1.719   5.416   6.823  0.1990  0.5992 -0.5897
  192SLPC   H3R22228   1.633   5.346   6.831  1.2516 -0.6256  0.2905
  192SLPC   H3S22229   1.705   5.522   6.855  3.0515  1.3685 -1.6010
  192SLPC   C2422230   1.816   5.355   6.929  0.5378 -0.1935  0.0343
  192SLPC   H4R22231   1.910   5.414   6.925  1.9375 -2.3668 -2.0990
  192SLPC   H4S22232   1.852   5.256   6.895  2.1442 -0.6221  2.6644
  192SLPC   C2522233   1.751   5.335   7.067  0.2004  0.1324  0.7083
  192SLPC   H5R22234   1.699   5.238   7.056 -1.6941  1.2750 -1.1857
  192SLPC   H5S22235   1.684   5.418   7.100 -2.5785 -2.0373  0.9319
  192SLPC   C2622236   1.858   5.314   7.180  0.0875  0.2163  0.0538
  192SLPC   H6R22237   1.917   5.407   7.198 -0.0169  0.7583 -2.1730
  192SLPC   H6S22238   1.934   5.246   7.137  3.0590  3.6081 -0.5709
  192SLPC   C2722239   1.819   5.269   7.324  0.0945 -0.4568  0.1294
  192SLPC   H7R22240   1.761   5.353   7.368  3.9250  2.3109  0.3323
  192SLPC   H7S22241   1.913   5.270   7.383  0.0126 -2.9893  0.3877
  192SLPC   C2822242   1.760   5.121   7.338  0.2352 -0.6133  0.6670
  192SLPC   H8R22243   1.841   5.053   7.303 -0.8482 -1.8411  0.4773
  192SLPC   H8S22244   1.660   5.112   7.292  0.4600 -0.7309  0.2005
  192SLPC   C2922245   1.726   5.087   7.485  0.2216 -0.1024  0.5993
  192SLPC   H9R22246   1.661   5.167   7.525 -1.3317 -1.0030 -0.0214
  192SLPC  C21022247   1.720   4.962   7.538 -0.3195 -0.8251  0.0266
  192SLPC  H10R22248   1.703   4.941   7.644  0.4556 -0.6421  0.1908
  192SLPC  C21122249   1.768   4.840   7.468  1.1762 -0.5719  0.3403
  192SLPC  H11R22250   1.791   4.861   7.361  0.0542 -0.5709  0.0912
  192SLPC  H11S22251   1.697   4.755   7.473  1.3101 -0.6277  1.5923
  192SLPC  C21222252   1.880   4.787   7.542 -0.5104  0.6241  0.3142
  192SLPC  H12R22253   1.848   4.740   7.636 -2.8915 -0.9116 -1.1578
  192SLPC  C21322254   2.014   4.770   7.511 -0.4780  0.1209  0.6124
  192SLPC  H13R22255   2.080   4.737   7.593  0.4232  1.9136  0.6443
  192SLPC  C21422256   2.089   4.791   7.382 -0.2496 -0.6258 -0.0557
  192SLPC  H14R22257   2.022   4.756   7.301 -0.4857  0.7592 -0.4870
  192SLPC  H14S22258   2.189   4.743   7.376  0.7320  1.3564 -0.8174
  192SLPC  C21522259   2.136   4.942   7.349  0.0546  0.2719  0.2443
  192SLPC  H15R22260   2.198   4.982   7.432 -0.8469  2.5542 -0.1082
  192SLPC  H15S22261   2.051   5.013   7.348  1.6614  2.4720 -3.9584
  192SLPC  C21622262   2.202   4.964   7.211 -0.4158  0.1921  0.5050
  192SLPC  H16R22263   2.297   4.908   7.198  0.5275  1.7684  0.3965
  192SLPC  H16S22264   2.236   5.069   7.202 -0.5818  0.0774 -3.0979
  192SLPC  C21722265   2.111   4.928   7.091  0.5659  0.2411  0.3857
  192SLPC  H17R22266   2.088   4.819   7.090 -0.1673  0.1957 -4.9029
  192SLPC  H17S22267   2.012   4.978   7.100 -0.6705 -1.9662 -0.1938
  192SLPC  C21822268   2.175   4.967   6.955 -0.2857 -0.9912 -0.6051
  192SLPC  H18R22269   2.098   4.959   6.875 -1.3286  2.1838 -0.0576
  192SLPC  H18S22270   2.258   4.899   6.925  0.5787 -0.2823  0.1279
  192SLPC  H18T22271   2.198   5.075   6.966  1.0245 -1.4154  1.2223
  192SLPC   C3322272   1.093   5.430   6.831  0.3394  0.1670  0.2786
  192SLPC   H3X22273   0.986   5.442   6.805  0.8230  1.7598 -1.1465
  192SLPC   H3Y22274   1.134   5.533   6.840 -1.5524  0.7982  2.5485
  192SLPC   C3422275   1.129   5.376   6.971 -0.0048  0.8811 -0.5356
  192SLPC   H4X22276   1.233   5.407   6.996  0.8395 -2.4110  0.4933
  192SLPC   H4Y22277   1.126   5.266   6.980  1.8415  0.6987 -1.7019
  192SLPC   C3522278   1.025   5.418   7.073 -0.3745 -0.4797  0.1201
  192SLPC   H5X22279   0.924   5.374   7.053 -0.6833  0.7459 -1.1154
  192SLPC   H5Y22280   1.000   5.526   7.078 -1.2850 -0.7325  2.0267
  192SLPC   C3622281   1.069   5.391   7.218 -0.5680  0.5601 -0.4629
  192SLPC   H6X22282   1.176   5.417   7.211 -0.8881  1.8268 -0.7812
  192SLPC   H6Y22283   1.053   5.283   7.241  0.8006  0.5429  0.5429
  192SLPC   C3722284   0.995   5.486   7.319 -0.9035  0.2954 -0.4813
  192SLPC   H7X22285   0.887   5.461   7.317 -0.8743  0.2015 -2.0613
  192SLPC   H7Y22286   1.012   5.594   7.295 -2.3162  0.6758  0.1637
  192SLPC   C3822287   1.051   5.457   7.464  0.2002  0.4884  0.1561
  192SLPC   H8X22288   1.160   5.472   7.446  0.0248 -0.1858 -1.6961
  192SLPC   H8Y22289   1.024   5.352   7.487  0.4501  1.1599  4.1462
  192SLPC   C3922290   0.997   5.562   7.562  0.1161  0.3523  0.1911
  192SLPC   H9X22291   0.887   5.550   7.565  0.2530 -0.9204  1.4637
  192SLPC   H9Y22292   1.015   5.665   7.526 -1.0285  0.7282  0.6595
  192SLPC  C31022293   1.046   5.538   7.702 -0.9268 -0.8397 -0.5679
  192SLPC  H10X22294   1.012   5.620   7.769 -0.7510 -1.2536  0.0310
  192SLPC  H10Y22295   1.157   5.540   7.704 -0.8173  0.2658 -3.3903
  192SLPC  C31122296   0.999   5.407   7.758  1.3785 -0.1975  0.3771
  192SLPC  H11X22297   1.070   5.328   7.724 -0.0637 -1.7647  0.8599
  192SLPC  H11Y22298   0.898   5.370   7.730  2.2026 -2.0216 -0.3358
  192SLPC  C31222299   1.013   5.402   7.910 -0.3156 -0.8895 -0.3484
  192SLPC  H12X22300   1.100   5.462   7.944 -0.7699 -0.5048  0.1617
  192SLPC  H12Y22301   1.040   5.297   7.933 -2.0298 -0.7689  2.8655
  192SLPC  C31322302   0.889   5.460   7.985  0.1282 -0.2880 -0.0659
  192SLPC  H13X22303   0.794   5.420   7.942 -0.2419  0.1076  0.3770
  192SLPC  H13Y22304   0.880   5.566   7.952  1.6869 -0.3260 -0.6881
  192SLPC  C31422305   0.898   5.464   8.136  0.0155 -0.5575  0.1777
  192SLPC  H14X22306   0.890   5.359   8.171 -0.4222 -1.9692 -3.7468
  192SLPC  H14Y22307   0.809   5.523   8.168 -0.3118  0.4091 -2.3294
  192SLPC  C31522308   1.015   5.534   8.198 -0.0717 -0.6465 -0.5008
  192SLPC  H15X22309   1.032   5.623   8.133  0.9399 -0.7891 -0.4435
  192SLPC  H15Y22310   1.106   5.471   8.184  0.6631  0.3883 -0.5468
  192SLPC  C31622311   0.995   5.597   8.339 -0.2079 -0.1667  0.7808
  192SLPC  H16X22312   0.908   5.666   8.347  1.2511  1.6348  1.9596
  192SLPC  H16Y22313   1.078   5.668   8.361 -1.0995  1.1568  0.0346
  192SLPC  C31722314   0.998   5.493   8.447  0.2799  0.5915  0.5139
  192SLPC  H17X22315   1.094   5.437   8.442  1.0814  2.0038 -0.4779
  192SLPC  H17Y22316   0.917   5.427   8.409  0.2436  1.0000 -0.1367
  192SLPC  C31822317   0.968   5.541   8.592 -0.3889 -0.4104  0.1237
  192SLPC  H18X22318   0.868   5.589   8.605 -0.0074  0.5805 -0.4927
  192SLPC  H18Y22319   1.037   5.618   8.632  0.8855 -0.3648 -2.0391
  192SLPC  H18Z22320   0.962   5.456   8.663  0.7788  0.4103  1.2431
  193SOD    SOD22321   0.937   1.470   2.661 -0.5762  0.4270  0.4485
  194SOD    SOD22322   5.604   2.942  16.170  0.3262  0.1619 -0.3051
  195SOD    SOD22323   3.143   4.348   6.155 -0.0577 -0.6973  0.0008
  196SOD    SOD22324   3.869   0.891   4.960 -0.1595  0.0014 -0.1038
  197SOD    SOD22325   0.184   3.953   5.182  0.3752  0.1936  0.1659
  198SOD    SOD22326   4.449   4.740  15.760  0.2087 -0.3808  0.1079
  199SOD    SOD22327   1.280   5.686   5.448 -0.1703  0.0002 -0.1761
  200SOD    SOD22328   6.594   5.634   5.771 -0.2311 -0.1189  0.0368
  201SOD    SOD22329   0.478   0.804  12.969  0.2283  0.1753  0.6543
  202SOD    SOD22330   3.979   0.635  13.325  0.3702 -0.2481  0.7568
  203SOD    SOD22331   3.436   5.987   6.751  0.5167 -0.4394  0.0139
  204SOD    SOD22332   3.654   0.548  10.864  0.0180 -0.4793  0.0205
  205SOD    SOD22333   6.268   6.173   1.890 -0.3739 -0.1828  0.1623
  206SOD    SOD22334   0.710   6.722  13.511 -0.2545  0.2697 -0.6733
  207SOD    SOD22335   5.386   1.554  12.383  0.1667 -0.1232  0.0191
  208SOD    SOD22336   1.433   1.164   3.807 -0.2871  0.2987  0.4536
  209SOD    SOD22337   5.849   6.231  15.123  0.2657 -0.1058  0.0934
  210SOD    SOD22338   3.282   2.114   5.792  0.4714 -0.2110  0.3322
  211SOD    SOD22339   3.540   4.208   4.820 -0.0974  0.0216  0.0772
  212SOD    SOD22340   5.417   3.953   4.515 -0.0708  0.2557  0.0631
  213SOD    SOD22341   3.897   2.576  11.085  0.4348  0.2269 -0.1050
  214SOD    SOD22342   4.073   2.406  15.061 -0.4965  0.0567  0.0718
  215SOD    SOD22343   6.643   3.827   2.071  0.3363  0.1060 -0.1932
  216SOD    SOD22344   4.958   0.801  16.570  0.7384  0.3738 -0.0969
  217SOD    SOD22345   4.132   5.916  13.162  0.0226  0.1677 -0.0868
  218SOD    SOD22346   6.118   4.088   3.543 -0.0769  0.2270 -0.2424
  219SOD    SOD22347   5.948   2.732   3.630  0.0986 -0.3221  0.2878
  220SOD    SOD22348   0.842   0.659   1.236 -0.1709 -0.1422 -0.4429
  221SOD    SOD22349   2.849   6.350  11.181  0.3977  0.2985  0.1107
  222SOD    SOD22350   0.637   5.572  17.274 -0.2711  0.2492 -0.1197
  223SOD    SOD22351   5.495   5.449   2.932 -0.1326 -0.1841  0.3846
  224SOD    SOD22352   5.012   3.751  10.619 -0.1029 -0.1218  0.6603
  225SOD    SOD22353   1.293   2.303   5.743  0.1519  0.0500  0.2765
  226SOD    SOD22354   2.375   1.206  10.584 -0.2716  0.1783 -0.2368
  227SOD    SOD22355   0.007   1.116  16.627 -0.1024 -0.8125  0.7373
  228SOD    SOD22356   0.348   3.344  12.361 -0.2127  0.7856  0.1681
  229SOD    SOD22357   2.404   0.078  11.518  0.0752 -0.0826 -0.1362
  230SOD    SOD22358   5.168   3.422   2.896  0.3998  0.1368 -0.7231
  231SOD    SOD22359   4.087   0.254   3.506  0.5589  0.2142 -0.3095
  232SOD    SOD22360   3.933   4.558   1.410  0.1196  0.0434 -0.0276
  233SOD    SOD22361   5.941   5.901  15.765  0.2429 -0.1906  0.1100
  234SOD    SOD22362   5.340   0.915  15.537 -0.1148  0.1622 -0.0889
  235SOD    SOD22363   1.247   3.778  11.013 -0.0689  0.1389 -0.1810
  236SOD    SOD22364   0.703   3.863  10.816 -0.0449 -0.2337 -0.5606
  237SOD    SOD22365   1.442   0.775  11.112 -0.2633  0.1967 -0.0437
  238SOD    SOD22366   6.733   4.347  15.546 -0.0999  0.2415  0.0447
  239SOD    SOD22367   5.825   2.878   5.883 -0.1577 -0.6790  0.2125
  240SOD    SOD22368   5.278   0.427   1.448 -0.2571  0.2642 -0.0818
  241SOD    SOD22369   0.140   3.747  14.128 -0.5119 -0.3778  0.2804
  242SOD    SOD22370   2.592   4.749  10.638 -0.1484  0.0677 -0.4180
  243SOD    SOD22371   6.205   2.157   5.091  0.0747  0.1966  0.2190
  244SOD    SOD22372   2.541   4.734  16.305 -0.8530  0.2769  0.4840
  245SOD    SOD22373   2.233   4.262   2.891 -0.0071  0.0573  0.0848
  246SOD    SOD22374   5.325   3.210   1.437 -0.1795  0.1545 -0.1250
  247SOD    SOD22375   1.564   4.554  14.800 -0.3756  0.0968  0.0513
  248SOD    SOD22376   5.198   4.260  16.381  0.0859  0.0561  0.3598
  249SOD    SOD22377   1.866   1.258  15.758 -0.4886 -0.1010  0.2503
  250SOD    SOD22378   3.269   1.980  17.229 -0.2160 -0.3968 -0.1614
  251SOD    SOD22379   5.026   1.428   0.888 -0.1149  0.3402  0.1532
  252SOD    SOD22380   2.454   6.355   3.118 -0.2028  0.2161  0.0135
  253SOD    SOD22381   6.578   4.640   5.722 -0.1930  0.0506 -0.4566
  254SOD    SOD22382   2.316   1.251  11.356  0.2195  0.2797  0.0162
  255SOD    SOD22383   1.341   5.601  12.361 -0.0702 -0.6915  0.1978
  256SOD    SOD22384   3.838   5.505   6.819  0.0538 -0.1474  0.1071
  257SOD    SOD22385   2.326   4.502   4.834  0.1316 -0.6075  0.4627
  258SOD    SOD22386   4.222   4.796  11.731  0.0316  0.1983  0.2986
  259SOD    SOD22387   2.478   4.386   5.676 -0.1293  0.1497  0.3144
  260SOD    SOD22388   6.496   0.349   2.360  0.1985 -0.1141  0.1219
  261SOD    SOD22389   5.053   0.782   2.018  0.1035  0.0565 -0.2041
  262SOD    SOD22390   1.372   4.056   5.098 -0.0372  0.3015  0.3013
  263SOD    SOD22391   2.864   1.824   4.369  0.6917 -0.2797  0.1835
  264SOD    SOD22392   0.207   4.509  11.221  0.2752 -0.2365 -0.1313
  265SOD    SOD22393   0.695   5.521   5.686 -0.3050 -0.1642 -0.0898
  266CLA    CLA22394   5.665   1.208  15.654  0.1572  0.2707 -0.1305
  267CLA    CLA22395   1.665   3.289  16.073 -0.0256 -0.0432  0.1154
  268CLA    CLA22396   3.309   0.850   4.613  0.1822  0.2788 -0.5775
  269CLA    CLA22397   0.683   5.613  13.287 -0.1091 -0.2544  0.5352
  270CLA    CLA22398   4.955   0.164  17.204  0.1454 -0.1061 -0.6996
  271CLA    CLA22399   2.976   1.300   3.332  0.0801  0.4726  0.2456
  272CLA    CLA22400   3.756   1.025   5.150  0.0591 -0.1996 -0.2450
  273CLA    CLA22401   2.753   1.350  11.716  0.0666 -0.2321 -0.2036
  274CLA    CLA22402   4.838   5.150   3.507  0.0888 -0.0639  0.0334
  275CLA    CLA22403   5.824   5.158   5.515  0.2516  0.0764 -0.1360
  276CLA    CLA22404   4.752   1.782   2.845  0.3293 -0.3232  0.1675
  277CLA    CLA22405   4.352   6.584  14.445  0.1288  0.0892 -0.0424
  278CLA    CLA22406   2.567   5.375  16.925 -0.1944  0.7670 -0.1061
  279CLA    CLA22407   0.032   6.591   3.458 -0.1523 -0.0824  0.2776
  280CLA    CLA22408   4.457   2.330  14.213 -0.1522 -0.3311  0.0537
  281CLA    CLA22409   3.088   2.509   0.401 -0.1462 -0.0203  0.3162
  282CLA    CLA22410   3.684   2.051  11.856  0.1709  0.2340  0.1224
  283CLA    CLA22411   5.709   6.508  11.973  0.4371  0.0945 -0.0254
  284CLA    CLA22412   4.826   4.087   3.061 -0.3681  0.2013  0.3721
  285CLA    CLA22413   6.813   4.492   1.866 -0.1709 -0.2568 -0.1359
  286CLA    CLA22414   1.795   1.343  12.406 -0.4886 -0.2315 -0.2975
  287CLA    CLA22415   0.346   6.324  17.094  0.0151  0.0635  0.2486
  288CLA    CLA22416   6.203   3.022   3.347  0.0959 -0.2725  0.0563
  289CLA    CLA22417   5.729   2.606   5.176  0.1479  0.2746  0.3408
  290CLA    CLA22418   1.184   1.067   3.791 -0.0076 -0.0476  0.0004
  291CLA    CLA22419   6.716   3.859  15.546  0.0231 -0.1532  0.1904
  292CLA    CLA22420   6.196   6.650  16.548  0.1751  0.0373  0.5163
  293CLA    CLA22421   6.615   0.586  15.645  0.0884 -0.4369  0.2264
  294CLA    CLA22422   0.463   4.973  16.366  0.3539  0.2643 -0.2757
  295CLA    CLA22423   3.476   5.181   2.251 -0.1457 -0.0848 -0.0760
  296CLA    CLA22424   5.995   3.423   3.564  0.7242 -0.0753  0.0170
  297CLA    CLA22425   6.035   2.484   3.713 -0.3884 -0.1855 -0.3451
  298CLA    CLA22426   4.733   4.230   0.968 -0.1327  0.3210  0.0621
  299CLA    CLA22427   5.634   1.927  16.903  0.0652  0.0766  0.2024
  300CLA    CLA22428   5.254   1.045   1.660 -0.0594 -0.3659  0.2378
  301CLA    CLA22429   3.296   0.591   2.103  0.0476 -0.7043 -0.3059
  302CLA    CLA22430   2.245   0.718  15.593 -0.3157 -0.0140 -0.1074
  303CLA    CLA22431   2.729   4.184   6.033 -0.2352  0.4170  0.0745
  304CLA    CLA22432   4.488   4.986  16.167  0.1354  0.0922 -0.5655
  305CLA    CLA22433   5.048   1.657  12.662 -0.1501 -0.0081  0.1000
  306CLA    CLA22434   5.076   4.430  16.564  0.3070 -0.1242 -0.2054
  307CLA    CLA22435   1.241   5.914   4.367 -0.2267  0.1160  0.0845
  308CLA    CLA22436   5.034   4.292  15.911 -0.6911 -0.0061 -0.0471
  309CLA    CLA22437   2.888   1.338   4.130 -0.1990  0.4600  0.2208
  310CLA    CLA22438   5.088   6.466   4.526 -0.0022 -0.0931 -0.0025
  311CLA    CLA22439   2.400   1.780   1.069  0.0719  0.1985  0.3409
  312CLA    CLA22440   4.633   2.035  16.358  0.3191  0.2353  0.1004
  313CLA    CLA22441   3.346   4.940  13.280 -0.5523 -0.2406 -0.0948
  314CLA    CLA22442   3.683   0.281  15.648  0.1139  0.0881  0.1980
  315CLA    CLA22443   3.349   6.708   4.760 -0.0094  0.2206 -0.4658
  316CLA    CLA22444   3.250   3.471   0.362 -0.2191  0.0453 -0.2402
  317CLA    CLA22445   5.189   5.755  14.032  0.2560 -0.0092 -0.0809
  318CLA    CLA22446   6.392   6.448  12.191 -0.1531  0.1682  0.1920
  319TIP3   OH222447   4.181   4.743  12.847  0.2277 -0.3259 -0.2860
  319TIP3    H122448   4.270   4.706  12.845  0.1841 -0.4163 -1.5008
  319TIP3    H222449   4.127   4.673  12.884  0.4728 -0.7380 -0.6992
  320TIP3   OH222450   3.786   0.508  15.425 -0.9770 -0.0603 -0.0684
  320TIP3    H122451   3.754   0.462  15.348 -0.6475 -1.9672  0.8651
  320TIP3    H222452   3.761   0.451  15.499  0.5283  0.6604  1.0550
  321TIP3   OH222453   0.155   5.977   1.821 -0.1133  0.3573 -0.0402
  321TIP3    H122454   0.128   5.989   1.912 -2.9522 -0.7385 -0.6492
  321TIP3    H222455   0.192   5.888   1.819 -1.0864 -0.0512 -0.1585
  322TIP3   OH222456   6.079   1.588   6.224 -0.0331  0.3522 -0.3724
  322TIP3    H122457   6.044   1.676   6.210 -1.5467 -0.0188  0.7928
  322TIP3    H222458   6.159   1.602   6.274  0.3940  1.1220 -1.2440
  323TIP3   OH222459   0.744   5.896   0.313  0.1860 -0.6352  0.3612
  323TIP3    H122460   0.839   5.893   0.312  0.2658  1.1012  0.0481
  323TIP3    H222461   0.722   5.958   0.383 -0.6592 -0.2643 -0.2023
  324TIP3   OH222462   1.955   6.615  15.223 -0.0483 -0.2865 -0.2064
  324TIP3    H122463   1.913   6.668  15.291  0.0595  1.3558 -1.3639
  324TIP3    H222464   2.024   6.671  15.188  0.3014 -1.3301 -1.2544
  325TIP3   OH222465   2.613   6.174   0.802 -0.2536 -0.2492  0.1336
  325TIP3    H122466   2.677   6.177   0.874 -0.4889  1.1017  0.3190
  325TIP3    H222467   2.653   6.117   0.737 -0.9504 -3.2550  2.1686
  326TIP3   OH222468   5.548   2.819  15.018  0.3741 -0.1621  0.2817
  326TIP3    H122469   5.492   2.803  14.942  2.3366 -1.7975 -0.9348
  326TIP3    H222470   5.603   2.741  15.024  0.8116  0.2411  2.9778
  327TIP3   OH222471   4.622   1.119  15.542 -0.1659  0.4585  0.0368
  327TIP3    H122472   4.545   1.125  15.599  0.2331 -1.5449  0.8607
  327TIP3    H222473   4.692   1.162  15.591  0.1664 -1.2180  1.1100
  328TIP3   OH222474   4.112   0.721  10.948 -0.2156 -0.1927 -0.6041
  328TIP3    H122475   4.037   0.752  10.999  0.1931 -1.0005  0.5467
  328TIP3    H222476   4.100   0.759  10.861 -1.6788  0.1003 -0.2983
  329TIP3   OH222477   2.271   5.311  10.656  0.3784  0.1537 -0.4301
  329TIP3    H122478   2.334   5.240  10.642  0.6719  0.2629  0.3082
  329TIP3    H222479   2.188   5.266  10.674  0.3794  0.0085 -0.7697
  330TIP3   OH222480   5.407   5.127   5.349  0.4732  0.3050  0.0862
  330TIP3    H122481   5.317   5.103   5.373  0.2872  2.3030  1.7338
  330TIP3    H222482   5.402   5.146   5.255 -1.1393  1.3982  0.3346
  331TIP3   OH222483   0.309   5.184  14.357 -0.0487  0.1244  0.2920
  331TIP3    H122484   0.311   5.229  14.272  2.6257 -1.8005 -0.7692
  331TIP3    H222485   0.352   5.245  14.417 -0.3983  0.7679 -0.0927
  332TIP3   OH222486   4.665   6.643  14.379  0.4291 -0.0875 -0.1004
  332TIP3    H122487   4.720   6.585  14.431 -0.5504 -2.3547 -1.3973
  332TIP3    H222488   4.576   6.625  14.410  0.0055 -0.1772 -1.3150
  333TIP3   OH222489   0.983   2.449   4.045 -0.0159  0.4969 -1.1776
  333TIP3    H122490   0.919   2.382   4.020  0.5518 -0.5205 -0.0550
  333TIP3    H222491   1.052   2.399   4.090  0.5796  1.8053 -0.6018
  334TIP3   OH222492   5.459   3.402  16.175  0.0536  0.1596 -0.4290
  334TIP3    H122493   5.489   3.434  16.260  1.5790 -2.5145  0.1220
  334TIP3    H222494   5.501   3.460  16.112  1.8659 -0.0073  0.5502
  335TIP3   OH222495   6.356   4.334  12.473 -0.0137  1.0331  0.0157
  335TIP3    H122496   6.407   4.261  12.439 -0.1528 -0.7952  3.2976
  335TIP3    H222497   6.410   4.411  12.457  2.2388 -0.3865  0.3630
  336TIP3   OH222498   3.077   0.198  15.048  0.3520 -0.1605  0.1891
  336TIP3    H122499   3.075   0.286  15.011  0.7883  0.5852  1.8780
  336TIP3    H222500   2.985   0.170  15.049 -0.2073  1.4671  2.2971
  337TIP3   OH222501   5.146   3.308   2.121  0.6787 -0.3172  0.4383
  337TIP3    H122502   5.209   3.350   2.179 -0.3164  1.3743  0.3530
  337TIP3    H222503   5.193   3.298   2.038  1.4238 -0.8078  0.9085
  338TIP3   OH222504   1.493   1.504   4.183 -0.2424 -0.2227  0.6818
  338TIP3    H122505   1.539   1.562   4.122 -0.2015 -1.6798 -0.7380
  338TIP3    H222506   1.562   1.469   4.239  0.2073 -1.2055 -0.4399
  339TIP3   OH222507   3.430   4.800   1.540  0.2787 -0.3228 -0.3713
  339TIP3    H122508   3.384   4.833   1.463  0.4664  0.6061 -0.0936
  339TIP3    H222509   3.367   4.742   1.582  0.3142 -1.1789 -1.4336
  340TIP3   OH222510   3.613   6.328   4.125 -0.3597  0.5216 -0.3373
  340TIP3    H122511   3.694   6.372   4.148 -0.2934 -0.7018  2.0314
  340TIP3    H222512   3.641   6.243   4.091 -0.5781  1.3425 -2.7697
  341TIP3   OH222513   1.510   2.947  13.263  0.3908 -0.5577 -0.3530
  341TIP3    H122514   1.449   3.005  13.308  2.9288  1.0820  1.2088
  341TIP3    H222515   1.503   2.971  13.171 -1.2226 -0.3848 -0.2067
  342TIP3   OH222516   3.956   3.668  14.142  0.3483 -0.0954  0.0353
  342TIP3    H122517   3.998   3.590  14.178 -0.5037 -0.5958 -0.0304
  342TIP3    H222518   3.998   3.741  14.188  0.4039 -0.6473  0.8917
  343TIP3   OH222519   6.678   5.141  13.011  0.7790  0.1606  0.0281
  343TIP3    H122520   6.651   5.051  12.995 -0.6382  0.6215 -0.3242
  343TIP3    H222521   6.769   5.145  12.981 -0.0072 -0.4329 -2.6673
  344TIP3   OH222522   3.061   5.118   3.929 -0.0821  0.5665  0.2387
  344TIP3    H122523   2.966   5.114   3.946  0.0250 -1.0226  0.6615
  344TIP3    H222524   3.095   5.179   3.994 -0.8606  1.4790 -0.1872
  345TIP3   OH222525   0.624   4.252   1.550 -0.5968 -0.4608  0.1341
  345TIP3    H122526   0.649   4.206   1.630  1.2267 -1.9481 -1.1988
  345TIP3    H222527   0.545   4.207   1.520  0.1634 -1.6103 -0.2102
  346TIP3   OH222528   5.761   3.875   3.219  0.2534 -0.1263 -0.0424
  346TIP3    H122529   5.764   3.781   3.205  0.2118  0.0565 -1.3457
  346TIP3    H222530   5.681   3.890   3.270  1.3118 -0.9881  2.0016
  347TIP3   OH222531   5.543   0.646   0.525 -0.0266  0.3127  0.3454
  347TIP3    H122532   5.596   0.611   0.454  0.6653  0.4289  0.7965
  347TIP3    H222533   5.548   0.741   0.515 -0.6321  0.3192  0.0469
  348TIP3   OH222534   0.163   3.548  11.919  0.9263  0.3579  0.0759
  348TIP3    H122535   0.090   3.609  11.922  0.1639 -0.4116 -1.5840
  348TIP3    H222536   0.230   3.588  11.975  0.3025  2.4736 -0.5884
  349TIP3   OH222537   0.077   1.422   1.010  0.0812 -0.1736  0.7089
  349TIP3    H122538   0.011   1.490   0.995  0.8829  0.2975 -0.8928
  349TIP3    H222539   0.035   1.341   0.982  0.2075  0.1470 -0.4512
  350TIP3   OH222540   4.398   4.374  16.008  0.3632 -0.4688  0.1937
  350TIP3    H122541   4.423   4.457  15.967 -1.3309  0.2678  0.5851
  350TIP3    H222542   4.376   4.316  15.935 -0.1278 -0.0023 -0.0287
  351TIP3   OH222543   5.652   1.124   1.515  0.3338 -0.0512  0.1291
  351TIP3    H122544   5.622   1.068   1.444 -0.4630  0.2096  0.2436
  351TIP3    H222545   5.733   1.083   1.546  0.7561 -0.0955 -0.9944
  352TIP3   OH222546   6.314   6.525  14.336  0.3730  0.1789 -0.2982
  352TIP3    H122547   6.248   6.494  14.274  0.4285 -1.8979  0.5875
  352TIP3    H222548   6.350   6.445  14.374  2.3745  1.3101  0.3153
  353TIP3   OH222549   4.658   0.094   4.045  0.2249 -0.5173  0.1404
  353TIP3    H122550   4.626   0.184   4.042 -0.8638 -0.8945 -0.0929
  353TIP3    H222551   4.731   0.093   3.982  1.4286  0.6105  1.4558
  354TIP3   OH222552   4.932   4.667  11.612  0.3851  0.1791 -0.1881
  354TIP3    H122553   4.932   4.714  11.695  1.7328  1.1294 -0.6915
  354TIP3    H222554   4.845   4.627  11.607  0.7323 -1.1350  2.3551
  355TIP3   OH222555   5.723   0.456   1.563  0.1970  0.3252  0.4043
  355TIP3    H122556   5.723   0.516   1.489 -1.0815 -0.6440 -0.4118
  355TIP3    H222557   5.809   0.413   1.559  0.2274  0.4514 -0.3765
  356TIP3   OH222558   2.606   3.594   2.029  0.4765 -0.6972  0.6311
  356TIP3    H122559   2.566   3.675   1.995 -0.3566 -1.6705 -0.7893
  356TIP3    H222560   2.699   3.614   2.034  0.1939  0.6615  1.2360
  357TIP3   OH222561   5.496   0.095   5.870  0.3738 -0.0201 -0.0478
  357TIP3    H122562   5.486   0.190   5.864  0.6418 -0.0752 -2.2157
  357TIP3    H222563   5.588   0.081   5.895  0.9529  0.3169 -1.8516
  358TIP3   OH222564   5.442   0.545  15.857 -0.0796 -0.0272 -0.0112
  358TIP3    H122565   5.446   0.493  15.777 -0.0397  1.2914 -0.8815
  358TIP3    H222566   5.515   0.513  15.910 -1.6685 -2.8167  0.7389
  359TIP3   OH222567   5.656   4.426  16.991  0.0064 -0.5168  0.3202
  359TIP3    H122568   5.715   4.375  17.047 -0.3663 -1.5143 -0.1751
  359TIP3    H222569   5.711   4.455  16.918  0.2588 -0.0538  0.6887
  360TIP3   OH222570   5.498   1.502  12.800 -0.1290 -0.3830  0.4851
  360TIP3    H122571   5.593   1.502  12.788  0.0313  1.4362  1.4651
  360TIP3    H222572   5.485   1.463  12.887 -0.2703 -0.3840  0.4631
  361TIP3   OH222573   0.414   4.323   4.226  0.1754 -0.4287  0.5184
  361TIP3    H122574   0.356   4.385   4.271 -0.0828 -1.0101  0.9958
  361TIP3    H222575   0.496   4.328   4.275  1.3887  2.1517 -1.5529
  362TIP3   OH222576   5.716   1.193  14.828 -0.1971 -0.0758  0.1730
  362TIP3    H122577   5.708   1.288  14.814 -0.3465 -0.2373 -0.9717
  362TIP3    H222578   5.688   1.155  14.745  0.4458 -1.1139  0.4214
  363TIP3   OH222579   2.608   3.480   0.994 -0.8267 -0.4056  0.1091
  363TIP3    H122580   2.689   3.499   1.040 -1.0765  0.0956  0.3551
  363TIP3    H222581   2.635   3.442   0.910 -0.3303  0.1172  0.0281
  364TIP3   OH222582   0.774   5.125   2.407 -0.1327  0.0322  0.7438
  364TIP3    H122583   0.791   5.181   2.331  0.8344  0.8623  1.5381
  364TIP3    H222584   0.785   5.183   2.482 -2.8137 -0.3297  1.4990
  365TIP3   OH222585   3.574   5.307  13.694  0.7934 -0.1379 -0.3670
  365TIP3    H122586   3.617   5.234  13.738  0.5533  1.2884  2.4399
  365TIP3    H222587   3.535   5.268  13.616  3.0489 -2.4147 -0.4739
  366TIP3   OH222588   2.402   3.083   3.264  0.3357  0.6087 -0.0264
  366TIP3    H122589   2.403   3.131   3.347 -1.6510  1.2211 -0.3075
  366TIP3    H222590   2.364   2.998   3.286 -0.1796  0.7658 -0.2963
  367TIP3   OH222591   2.009   4.212  11.879 -0.4605  0.1502  0.2350
  367TIP3    H122592   2.013   4.152  11.954 -0.0257 -0.6089 -0.3852
  367TIP3    H222593   1.925   4.257  11.889 -0.6805 -0.3814  0.8489
  368TIP3   OH222594   3.564   3.488   0.310 -0.3360  0.6020  0.6089
  368TIP3    H122595   3.587   3.560   0.252 -1.5737  0.2410 -0.3607
  368TIP3    H222596   3.471   3.473   0.294  0.0596 -1.7456  0.1619
  369TIP3   OH222597   3.539   6.071  11.818  0.0348  0.0997 -0.5902
  369TIP3    H122598   3.618   6.113  11.785 -0.2754  0.3521 -1.0300
  369TIP3    H222599   3.531   6.101  11.908  0.8631 -0.5494 -0.2968
  370TIP3   OH222600   3.137   3.450   5.806  0.4953 -0.5502  0.3181
  370TIP3    H122601   3.043   3.449   5.786  0.6211 -1.5037 -0.3199
  370TIP3    H222602   3.162   3.358   5.804  1.4099 -0.3190  0.7096
  371TIP3   OH222603   1.161   1.790   5.759 -0.0905  0.5053 -0.3578
  371TIP3    H122604   1.137   1.734   5.833  2.6595  0.1506  0.3717
  371TIP3    H222605   1.089   1.853   5.752 -1.6043 -0.9929  1.0036
  372TIP3   OH222606   6.130   5.905  11.932 -0.1117 -0.4384 -0.4863
  372TIP3    H122607   6.126   5.942  11.844 -2.0305 -1.7665 -0.9988
  372TIP3    H222608   6.189   5.965  11.980  0.9616  0.3170 -2.6176
  373TIP3   OH222609   4.513   6.076   4.557 -0.0854 -0.2609  0.3546
  373TIP3    H122610   4.473   6.082   4.644 -1.7885  0.8031 -0.4643
  373TIP3    H222611   4.460   6.011   4.511  0.5448 -0.5066 -0.0410
  374TIP3   OH222612   1.128   6.346  16.187 -0.3128 -0.3131 -0.2026
  374TIP3    H122613   1.161   6.317  16.102  1.5205 -0.8449  0.6490
  374TIP3    H222614   1.127   6.442  16.182 -1.4651 -0.3519 -1.2381
  375TIP3   OH222615   5.645   2.623   3.950 -0.5376 -0.4531 -0.2944
  375TIP3    H122616   5.672   2.568   3.877 -1.0724 -0.7165 -0.2968
  375TIP3    H222617   5.609   2.561   4.014 -0.0394 -0.2314  0.2121
  376TIP3   OH222618   3.973   2.899   5.812  0.0914  0.1765  0.0645
  376TIP3    H122619   3.885   2.880   5.780  0.3477 -0.6298 -0.1884
  376TIP3    H222620   3.975   2.994   5.822  0.3942  0.6902 -3.5613
  377TIP3   OH222621   3.182   3.463   2.712 -0.3889 -0.1732 -0.6293
  377TIP3    H122622   3.189   3.530   2.644 -2.3276 -0.8744 -1.5882
  377TIP3    H222623   3.092   3.468   2.743  0.3523 -0.1186  1.6964
  378TIP3   OH222624   1.137   3.840   2.320  0.0503  0.4219 -0.7714
  378TIP3    H122625   1.178   3.914   2.364  0.4765  1.0238 -2.1022
  378TIP3    H222626   1.046   3.842   2.348  0.5975 -0.1115  1.1804
  379TIP3   OH222627   6.112   1.434   4.363 -0.0854 -0.3752 -0.5311
  379TIP3    H122628   6.139   1.382   4.287 -0.6131 -0.0797 -0.9346
  379TIP3    H222629   6.126   1.524   4.336 -0.4574 -0.2621 -0.3483
  380TIP3   OH222630   1.165   0.522   3.691 -0.4340 -0.0595 -0.0458
  380TIP3    H122631   1.211   0.588   3.744  0.2083 -0.6715  0.1782
  380TIP3    H222632   1.108   0.477   3.753  1.8599 -2.2188  0.6962
  381TIP3   OH222633   4.128   2.589   1.254  0.1883  0.4518  0.2245
  381TIP3    H122634   4.139   2.649   1.328  3.0076 -1.0970  1.2249
  381TIP3    H222635   4.058   2.530   1.281  0.5663  0.4684  1.2663
  382TIP3   OH222636   2.831   0.133   5.385  0.0868 -0.0261 -0.1042
  382TIP3    H122637   2.787   0.049   5.397  0.2549  0.0185  0.8958
  382TIP3    H222638   2.890   0.119   5.311 -0.4918 -0.5283 -0.4876
  383TIP3   OH222639   4.300   4.374  16.988  0.4853  0.3716 -0.2121
  383TIP3    H122640   4.290   4.420  17.071 -0.6149 -0.0393 -0.0981
  383TIP3    H222641   4.394   4.358  16.980  0.5973  0.3743  0.9672
  384TIP3   OH222642   5.990   5.123  12.791  0.4711 -0.3626 -0.4216
  384TIP3    H122643   6.004   5.186  12.720  1.9741  0.8502  0.8751
  384TIP3    H222644   5.902   5.088  12.774  0.4416  0.4973 -2.3821
  385TIP3   OH222645   1.143   0.529  13.171  0.1086  0.0213  0.0804
  385TIP3    H122646   1.118   0.458  13.231  1.1367 -0.7535 -0.3835
  385TIP3    H222647   1.083   0.601  13.193 -1.8117 -1.3850 -0.2926
  386TIP3   OH222648   3.635   0.848  10.293 -0.0301  0.6639 -0.5149
  386TIP3    H122649   3.708   0.867  10.352 -0.4181  1.5483 -0.2943
  386TIP3    H222650   3.562   0.829  10.352  0.6255 -3.1090 -0.6685
  387TIP3   OH222651   2.526   0.785   1.707  0.7173  0.0614 -0.1874
  387TIP3    H122652   2.559   0.703   1.744  0.2671  0.2253  0.5942
  387TIP3    H222653   2.433   0.770   1.694  0.7366  0.2649 -0.5519
  388TIP3   OH222654   2.685   6.569  15.469  0.6142  0.4403 -0.3399
  388TIP3    H122655   2.746   6.594  15.401  1.3957 -0.7402 -0.0957
  388TIP3    H222656   2.613   6.526  15.423  1.5591 -1.1582 -0.3876
  389TIP3   OH222657   0.964   2.167  15.481  0.3251  0.0996  0.6500
  389TIP3    H122658   0.908   2.242  15.459  0.5966 -0.1026 -0.8231
  389TIP3    H222659   0.920   2.092  15.442  2.2872  0.1205 -1.8436
  390TIP3   OH222660   4.322   4.507  14.373 -0.3235  0.0120  0.0266
  390TIP3    H122661   4.318   4.590  14.326 -1.9440 -1.1071 -2.0211
  390TIP3    H222662   4.415   4.492  14.389  0.2596  0.9198 -2.1111
  391TIP3   OH222663   1.750   4.668   5.752 -0.6302 -0.4551 -0.5847
  391TIP3    H122664   1.701   4.740   5.791  0.7936  0.2633 -0.0530
  391TIP3    H222665   1.800   4.630   5.824 -3.6741 -4.1371 -0.0886
  392TIP3   OH222666   2.466   3.351   5.123  0.9082 -0.2286 -0.3798
  392TIP3    H122667   2.492   3.375   5.212 -1.0993  1.1505 -0.0857
  392TIP3    H222668   2.544   3.311   5.084  2.3608  0.7142  1.4290
  393TIP3   OH222669   5.486   5.050  11.678 -0.0590  0.0272 -0.7759
  393TIP3    H122670   5.463   5.115  11.612  0.5169  0.5343 -0.4911
  393TIP3    H222671   5.431   5.072  11.753  0.7251  0.7224 -0.3862
  394TIP3   OH222672   0.009   0.451  16.507 -0.0029  0.7378 -0.7148
  394TIP3    H122673   0.002   0.384  16.574 -0.9859 -0.2380 -1.7727
  394TIP3    H222674   0.102   0.450  16.482  0.0250 -0.1130 -0.6027
  395TIP3   OH222675   5.019   5.196  10.796  0.3131 -0.2361 -0.8109
  395TIP3    H122676   4.986   5.265  10.738 -0.3015  1.3608  1.3051
  395TIP3    H222677   5.104   5.172  10.758  0.4587  1.5690 -1.7558
  396TIP3   OH222678   2.540   5.687  12.252  0.8704  0.2425 -0.4488
  396TIP3    H122679   2.625   5.646  12.240 -0.1198 -3.4710  3.0040
  396TIP3    H222680   2.547   5.733  12.336 -0.3758  0.1469 -0.2724
  397TIP3   OH222681   3.354   6.180  15.138  0.7825 -0.4414 -0.1134
  397TIP3    H122682   3.363   6.106  15.198  1.6786 -0.2828 -0.0351
  397TIP3    H222683   3.402   6.154  15.060 -0.6048 -0.7523 -0.8921
  398TIP3   OH222684   3.572   0.634  13.708  0.4150  0.1281 -0.3307
  398TIP3    H122685   3.597   0.706  13.765  1.3318 -0.0338 -0.5230
  398TIP3    H222686   3.476   0.632  13.712  0.2228  2.5404 -1.7440
  399TIP3   OH222687   5.480   0.894   0.962  0.5044  0.7473 -0.5231
  399TIP3    H122688   5.555   0.860   0.914  0.5180 -2.2459  1.4093
  399TIP3    H222689   5.423   0.819   0.975 -1.6384  2.3991  0.2971
  400TIP3   OH222690   4.747   0.072  14.306 -0.2978  0.4909 -0.4242
  400TIP3    H122691   4.796   0.047  14.227 -0.0131  0.1241 -0.1342
  400TIP3    H222692   4.719  -0.011  14.344  0.1882  0.6295  0.2555
  401TIP3   OH222693   6.039   0.718  14.084 -0.4513  0.2898 -0.3879
  401TIP3    H122694   6.035   0.708  14.180 -2.8380 -1.6279 -0.5813
  401TIP3    H222695   6.130   0.696  14.062 -0.4935 -1.9682  1.2597
  402TIP3   OH222696   3.778   5.387  10.279  0.0261 -0.3390  0.2170
  402TIP3    H122697   3.795   5.430  10.195  0.9087  2.0856  1.5400
  402TIP3    H222698   3.693   5.344  10.267 -1.8179  3.1944 -0.8105
  403TIP3   OH222699   1.915   2.801   3.339  0.3504 -0.4073  0.1956
  403TIP3    H122700   1.953   2.741   3.404 -1.2797 -2.9073 -0.9997
  403TIP3    H222701   1.847   2.848   3.387  1.9229  0.9189  1.2570
  404TIP3   OH222702   3.261   3.319   4.342 -0.5775  0.4661 -0.2253
  404TIP3    H122703   3.298   3.269   4.269 -0.6930 -0.4659  0.3262
  404TIP3    H222704   3.315   3.397   4.348 -0.2165  0.2777 -0.9533
  405TIP3   OH222705   5.046   4.684   1.116  0.3783 -0.2165 -0.2977
  405TIP3    H122706   4.968   4.629   1.107  1.1813 -1.3323 -0.6486
  405TIP3    H222707   5.016   4.760   1.168 -1.0329 -0.3899 -0.8098
  406TIP3   OH222708   6.635   5.803  15.643 -0.1500 -0.3478 -0.6254
  406TIP3    H122709   6.705   5.738  15.650  1.3771  0.9541 -2.6687
  406TIP3    H222710   6.591   5.783  15.560 -1.1533 -0.1649 -0.1510
  407TIP3   OH222711   3.447   0.461  12.646  0.1833 -0.0244 -0.1699
  407TIP3    H122712   3.534   0.480  12.682  0.3010  0.2561 -0.5908
  407TIP3    H222713   3.420   0.543  12.605 -0.0320 -0.2818 -0.5422
  408TIP3   OH222714   5.850   6.787   1.080  0.1754  0.3670 -0.0809
  408TIP3    H122715   5.911   6.818   1.013  1.9231  1.1245  1.7505
  408TIP3    H222716   5.900   6.725   1.133 -1.2523 -0.4793  0.3591
  409TIP3   OH222717   3.408   4.655   4.880 -0.3758 -0.8148 -0.6633
  409TIP3    H122718   3.500   4.670   4.902 -0.6840 -0.1927  0.3112
  409TIP3    H222719   3.405   4.657   4.785  0.5464 -0.3195 -0.6929
  410TIP3   OH222720   4.538   4.108  14.537 -0.0960  0.5426 -0.2415
  410TIP3    H122721   4.583   4.123  14.454 -0.8663 -0.9529 -0.9637
  410TIP3    H222722   4.552   4.015  14.556 -1.5592  0.4081  0.2951
  411TIP3   OH222723   4.859   1.921  15.816  0.1692 -0.9164 -0.2439
  411TIP3    H122724   4.787   1.972  15.853  1.1308 -1.4827  2.6690
  411TIP3    H222725   4.938   1.971  15.838  0.7930 -1.1278 -1.8939
  412TIP3   OH222726   6.767   1.361  16.183 -0.0392  0.5228 -0.8985
  412TIP3    H122727   6.685   1.313  16.175 -0.5648  1.2279  0.0708
  412TIP3    H222728   6.742   1.453  16.177  0.7524  0.7335 -1.1441
  413TIP3   OH222729   4.754   5.328   5.126 -0.3002 -0.2856  0.1150
  413TIP3    H122730   4.712   5.248   5.094  0.6811 -0.9305  0.3872
  413TIP3    H222731   4.816   5.297   5.192  1.2159  0.5202 -0.8622
  414TIP3   OH222732   6.535   3.539  17.003 -0.0427  0.0180 -0.3987
  414TIP3    H122733   6.447   3.521  16.970 -0.5200 -2.2153  1.7650
  414TIP3    H222734   6.593   3.497  16.940 -0.5578  0.6693 -1.3269
  415TIP3   OH222735   5.610   4.671   1.299  0.2673 -0.0741  0.1447
  415TIP3    H122736   5.614   4.766   1.309 -0.4161 -0.1309  1.0417
  415TIP3    H222737   5.542   4.656   1.233 -1.0991  0.0076  1.4755
  416TIP3   OH222738   4.025   4.636  12.506  0.5476 -0.1295 -0.1831
  416TIP3    H122739   3.940   4.655  12.547  0.5740 -0.5761  0.0797
  416TIP3    H222740   4.078   4.714  12.524  0.5481 -0.3015  0.5990
  417TIP3   OH222741   3.270   2.850   2.698 -0.4358  0.1912  0.3404
  417TIP3    H122742   3.285   2.781   2.762 -1.4546  0.3289  0.7356
  417TIP3    H222743   3.182   2.882   2.716 -1.1464 -0.4293 -1.7616
  418TIP3   OH222744   2.145   4.622  15.478  0.4875  0.5480 -0.5860
  418TIP3    H122745   2.197   4.586  15.406 -0.1895 -1.1673 -0.2657
  418TIP3    H222746   2.166   4.567  15.553 -1.3137  0.1955 -0.3060
  419TIP3   OH222747   0.628   6.178  12.670  0.2322 -0.2760  0.5171
  419TIP3    H122748   0.562   6.116  12.640 -1.0910  0.7966  1.0861
  419TIP3    H222749   0.595   6.264  12.643  0.6455  0.4161  2.0526
  420TIP3   OH222750   1.358   4.545   3.000  0.3086 -0.1433 -0.4969
  420TIP3    H122751   1.449   4.550   2.971 -0.1865  2.0124 -1.9079
  420TIP3    H222752   1.342   4.630   3.042 -1.0623 -0.4723 -0.3231
  421TIP3   OH222753   3.059   2.459   3.626 -0.3257  0.1470  0.0826
  421TIP3    H122754   3.029   2.516   3.697 -0.4573  2.5659 -1.7610
  421TIP3    H222755   3.047   2.512   3.547 -0.9755 -2.7213 -1.8644
  422TIP3   OH222756   2.434   3.564  16.863  0.6814  0.2059 -0.0334
  422TIP3    H122757   2.529   3.553  16.870  0.7605 -0.6659 -1.9485
  422TIP3    H222758   2.420   3.657  16.881  1.4056 -0.2426  3.9839
  423TIP3   OH222759   5.294   1.970   3.006  0.2997  0.0477  0.4990
  423TIP3    H122760   5.263   1.904   3.069 -1.8070  0.1138 -0.3922
  423TIP3    H222761   5.388   1.953   2.998 -0.1916 -2.9798  0.1441
  424TIP3   OH222762   5.021   4.899   6.557  0.8597  0.0075 -0.0956
  424TIP3    H122763   5.055   4.812   6.580 -0.5871 -0.3384  0.8384
  424TIP3    H222764   5.064   4.920   6.474 -0.3146 -2.5355 -1.4748
  425TIP3   OH222765   1.641   0.605  13.737 -0.1288  0.1832  0.0269
  425TIP3    H122766   1.555   0.564  13.737  0.0300 -0.1648 -0.8434
  425TIP3    H222767   1.677   0.586  13.651  0.8132  0.3453  0.3706
  426TIP3   OH222768   2.560   2.599   2.356 -0.2195 -0.2036  0.6972
  426TIP3    H122769   2.525   2.687   2.373  1.2354  0.4221  0.6243
  426TIP3    H222770   2.493   2.556   2.302  0.2828  1.9018 -1.8034
  427TIP3   OH222771   3.073   4.157   6.064 -0.3624  0.2335 -0.2130
  427TIP3    H122772   3.104   4.083   6.011 -0.3955  0.7591 -0.9843
  427TIP3    H222773   2.987   4.177   6.029 -0.9077 -0.1809  0.8577
  428TIP3   OH222774   5.745   4.206   3.409  0.3269 -0.2886 -0.0553
  428TIP3    H122775   5.740   4.116   3.442  0.8524  0.4640  2.2458
  428TIP3    H222776   5.837   4.219   3.389  0.3204 -0.1322  0.0164
  429TIP3   OH222777   6.174   6.237  11.215 -0.2103 -0.1687 -0.8281
  429TIP3    H122778   6.172   6.252  11.310  0.3778 -0.1002 -0.8250
  429TIP3    H222779   6.253   6.186  11.200 -0.2154 -0.0382 -1.3028
  430TIP3   OH222780   2.099   6.031   2.966 -0.5954 -0.5307  0.5446
  430TIP3    H122781   2.021   5.982   2.994  0.4441 -0.7381  3.3557
  430TIP3    H222782   2.072   6.123   2.969 -1.3529 -0.6928 -0.7182
  431TIP3   OH222783   2.445   6.223  13.005 -0.1672 -0.2588  0.1361
  431TIP3    H122784   2.479   6.298  12.957  2.0052 -0.7536  0.7472
  431TIP3    H222785   2.372   6.190  12.952 -0.7496  1.8529 -0.4623
  432TIP3   OH222786   4.504   3.515  13.524 -0.4100  0.1953 -0.0293
  432TIP3    H122787   4.563   3.444  13.499 -0.4018  0.0416  0.4126
  432TIP3    H222788   4.513   3.580  13.455 -1.1190 -0.6441 -0.9442
  433TIP3   OH222789   4.087   1.470   2.186  0.1198  0.2319 -0.2899
  433TIP3    H122790   4.017   1.531   2.209 -0.5914 -0.0869 -1.5425
  433TIP3    H222791   4.167   1.524   2.184 -0.3415  0.9151 -0.4368
  434TIP3   OH222792   4.575   1.752  16.511  0.2909 -0.4288 -1.0525
  434TIP3    H122793   4.598   1.839  16.479  2.0840 -0.8092 -0.8748
  434TIP3    H222794   4.629   1.739  16.588  0.3041 -1.8250 -1.2628
  435TIP3   OH222795   0.638   6.695  12.422  0.0302 -0.3687 -0.5043
  435TIP3    H122796   0.651   6.621  12.362  2.3134 -0.7729  0.3848
  435TIP3    H222797   0.659   6.660  12.508  0.1221  1.0628  0.0872
  436TIP3   OH222798   3.299   6.437  15.211  0.0702  0.3415  0.3879
  436TIP3    H122799   3.279   6.411  15.301 -0.1447  0.0193  0.2477
  436TIP3    H222800   3.308   6.355  15.164  0.0658  0.5125  0.0865
  437TIP3   OH222801   2.261   2.396  15.232  0.3516 -0.4650 -0.0684
  437TIP3    H122802   2.295   2.307  15.218  0.8758  0.0755 -2.6256
  437TIP3    H222803   2.171   2.393  15.199 -0.4080 -0.5496  1.8810
  438TIP3   OH222804   2.925   4.014  13.902  0.2127 -0.4030  0.3494
  438TIP3    H122805   3.008   4.001  13.948  0.8990  1.8674 -0.0963
  438TIP3    H222806   2.951   4.026  13.810 -0.5779  0.4359  0.2224
  439TIP3   OH222807   2.721   0.046   4.394  0.2284  0.4903  0.1309
  439TIP3    H122808   2.646   0.027   4.337 -0.5372  1.5370  0.7608
  439TIP3    H222809   2.760  -0.039   4.411 -0.2751  0.0200 -0.9365
  440TIP3   OH222810   0.906   6.087  16.667 -0.3634  0.1931 -0.1344
  440TIP3    H122811   0.990   6.115  16.630 -0.7017 -1.1877 -2.1143
  440TIP3    H222812   0.910   6.114  16.759  3.1198 -1.6398  0.4202
  441TIP3   OH222813   4.500   4.736   2.605  0.1519  0.6659  0.4178
  441TIP3    H122814   4.534   4.819   2.570 -1.8227  2.2179  1.8855
  441TIP3    H222815   4.454   4.696   2.532  0.9497  0.9587 -0.2630
  442TIP3   OH222816   4.661   4.095  14.281  0.0935  0.0306  0.4241
  442TIP3    H122817   4.656   4.180  14.237 -0.5681 -0.8894 -1.4075
  442TIP3    H222818   4.577   4.053  14.261  0.6515 -1.2860  0.7414
  443TIP3   OH222819   2.576   4.003   2.417 -0.1792  0.3261 -0.1447
  443TIP3    H122820   2.514   4.075   2.424 -0.9727 -0.2190 -1.2915
  443TIP3    H222821   2.522   3.924   2.429  1.0904 -0.1787  4.4942
  444TIP3   OH222822   0.480   1.517  16.004 -0.1318  0.0937 -0.4300
  444TIP3    H122823   0.507   1.458  15.934  0.8536 -0.8800  0.7183
  444TIP3    H222824   0.562   1.555  16.037 -0.2756 -1.3165  1.7497
  445TIP3   OH222825   6.729   4.865   3.346 -0.1050 -0.6010  0.5868
  445TIP3    H122826   6.707   4.949   3.306 -0.7004 -0.3267  1.4572
  445TIP3    H222827   6.824   4.859   3.339 -0.1298 -0.2098 -0.1603
  446TIP3   OH222828   3.041   2.775  13.980 -0.2319 -0.3276  0.3402
  446TIP3    H122829   3.079   2.718  13.913 -1.1749 -1.6184  0.8705
  446TIP3    H222830   3.113   2.833  14.005  0.8023 -1.3607 -0.1170
  447TIP3   OH222831   2.061   5.584  15.956 -0.1094  0.9198 -0.2748
  447TIP3    H122832   2.137   5.560  15.903 -0.8113  2.1175 -1.9269
  447TIP3    H222833   1.993   5.522  15.929 -0.3860  1.3529 -0.5977
  448TIP3   OH222834   0.301   4.776   0.153 -0.2447  0.4978 -0.4636
  448TIP3    H122835   0.256   4.825   0.084 -0.7981  1.8163  0.7853
  448TIP3    H222836   0.271   4.685   0.142 -1.2739  0.9084 -1.1943
  449TIP3   OH222837   1.678   6.461   3.204  0.3005 -0.2400 -0.9136
  449TIP3    H122838   1.654   6.387   3.148  0.2055 -1.7122  0.9641
  449TIP3    H222839   1.729   6.422   3.275 -0.1959  1.4165  0.4177
  450TIP3   OH222840   3.650   2.259  13.365 -0.2049  0.1381  0.1369
  450TIP3    H122841   3.556   2.273  13.372 -0.3611 -1.1032  0.7661
  450TIP3    H222842   3.686   2.301  13.443 -0.4417 -0.9162  0.8399
  451TIP3   OH222843   4.173   0.050  16.178 -0.2176 -0.5022  0.3330
  451TIP3    H122844   4.200   0.010  16.261  0.3981 -2.1683 -0.6362
  451TIP3    H222845   4.129  -0.020  16.130 -1.7927  0.8103 -0.2297
  452TIP3   OH222846   0.139   4.796   5.495  0.4740 -0.1281  0.1360
  452TIP3    H122847   0.178   4.721   5.540 -1.7492 -1.0622  0.6762
  452TIP3    H222848   0.204   4.866   5.503  1.9151 -1.5069  1.0891
  453TIP3   OH222849   3.532   5.760  12.846 -0.2179  0.3561  0.1755
  453TIP3    H122850   3.550   5.852  12.826  0.7834  0.2859  0.7152
  453TIP3    H222851   3.547   5.752  12.940  1.2037 -0.6862 -0.1141
  454TIP3   OH222852   0.900   1.608   2.153 -0.6113 -0.5249 -0.9633
  454TIP3    H122853   0.925   1.684   2.100  0.3685 -1.0562 -1.3036
  454TIP3    H222854   0.968   1.543   2.134  0.4534 -0.3561  1.7848
  455TIP3   OH222855   6.093   4.184   2.746 -0.8669 -0.2220 -0.3957
  455TIP3    H122856   6.017   4.236   2.771 -1.0436 -1.2349  1.3393
  455TIP3    H222857   6.098   4.115   2.812  0.7220 -1.0356 -1.2965
  456TIP3   OH222858   0.662   4.528   1.985  0.2583 -0.3496  0.0487
  456TIP3    H122859   0.633   4.500   2.072 -1.2975 -0.3278 -0.4370
  456TIP3    H222860   0.685   4.447   1.940 -3.5603 -0.9860 -1.1116
  457TIP3   OH222861   1.879   4.846  15.778 -0.3511 -0.3165  0.0757
  457TIP3    H122862   1.946   4.912  15.794 -1.0270  0.4420 -0.1472
  457TIP3    H222863   1.918   4.764  15.807  0.3650  0.2401  0.7154
  458TIP3   OH222864   4.072   3.753   3.304 -0.2172 -0.1985 -0.2455
  458TIP3    H122865   4.050   3.801   3.225 -0.4696  0.4466  0.2118
  458TIP3    H222866   4.167   3.740   3.300 -0.0384  0.9833 -0.0168
  459TIP3   OH222867   2.455   1.025   4.618 -0.3252 -0.2895  0.2401
  459TIP3    H122868   2.470   1.103   4.564 -0.4351 -0.6643 -0.3361
  459TIP3    H222869   2.527   1.027   4.682 -0.3878  0.3401  0.3005
  460TIP3   OH222870   2.974   6.006  13.556  0.4346  0.0351 -0.3824
  460TIP3    H122871   2.988   6.058  13.476 -3.2660 -1.5692 -2.3177
  460TIP3    H222872   2.931   6.067  13.616 -0.4950  0.2126 -1.2078
  461TIP3   OH222873   5.741   3.079  13.699  0.2984 -0.0416  0.2879
  461TIP3    H122874   5.808   3.017  13.672 -0.2889 -0.7764  0.4861
  461TIP3    H222875   5.696   3.037  13.772  0.2294  0.8446  0.7807
  462TIP3   OH222876   5.973   1.072   3.063 -0.2621 -0.1159 -0.3627
  462TIP3    H122877   5.932   1.004   3.116 -1.8122  0.4910 -0.7163
  462TIP3    H222878   5.956   1.046   2.973 -0.0457  0.2457 -0.5097
  463TIP3   OH222879   3.354   1.575   4.230 -0.2067 -0.3915 -0.4771
  463TIP3    H122880   3.326   1.511   4.296 -1.3554 -0.3454 -0.8954
  463TIP3    H222881   3.322   1.659   4.264  0.1360 -0.2159 -0.5815
  464TIP3   OH222882   1.193   0.133  11.106  0.2281  0.6942  0.4494
  464TIP3    H122883   1.201   0.225  11.128  0.5000  0.7739  0.0450
  464TIP3    H222884   1.162   0.132  11.015 -0.3243  0.3848  0.6357
  465TIP3   OH222885   1.450   0.456  16.589  0.3040 -1.0746  0.0961
  465TIP3    H122886   1.495   0.533  16.554 -1.1987 -0.0718  0.2454
  465TIP3    H222887   1.440   0.476  16.683 -0.6214 -1.1592  0.0255
  466TIP3   OH222888   3.181   4.550   3.910  0.1775 -0.0492  0.0846
  466TIP3    H122889   3.138   4.629   3.880  0.3430 -0.0968 -0.2756
  466TIP3    H222890   3.177   4.556   4.006 -6.3130 -2.9251  0.5673
  467TIP3   OH222891   6.317   0.565  11.325 -0.0841 -0.4093 -0.3191
  467TIP3    H122892   6.244   0.584  11.266  1.1070 -0.3464 -1.8437
  467TIP3    H222893   6.356   0.651  11.343 -0.7199 -0.3751  0.9742
  468TIP3   OH222894   6.780   4.209  16.720 -0.1940 -0.1387  0.0015
  468TIP3    H122895   6.749   4.206  16.810 -0.0296  1.2394  0.1268
  468TIP3    H222896   6.838   4.133  16.711 -1.0627 -0.8992  0.7180
  469TIP3   OH222897   1.247   2.297   0.091  0.1568  0.2373 -0.0592
  469TIP3    H122898   1.215   2.243   0.163  2.0604 -1.2328 -0.2441
  469TIP3    H222899   1.329   2.256   0.064 -0.2677  0.9837 -2.8112
  470TIP3   OH222900   6.070   6.537  11.228  0.2634  0.0934 -0.2037
  470TIP3    H122901   6.045   6.547  11.136  1.3098  0.6047 -0.4490
  470TIP3    H222902   6.074   6.627  11.261  0.2656 -0.0681  0.2410
  471TIP3   OH222903   3.808   5.721  14.812 -0.0143 -0.2554  0.0025
  471TIP3    H122904   3.758   5.688  14.737 -1.4789  2.2578 -0.2192
  471TIP3    H222905   3.890   5.753  14.773 -0.2856  0.0073 -0.3645
  472TIP3   OH222906   4.668   6.502  15.594 -0.0709  0.4844 -0.2334
  472TIP3    H122907   4.730   6.545  15.652 -2.9143 -0.0013  3.4770
  472TIP3    H222908   4.595   6.563  15.586 -1.2155 -0.8561 -0.5001
  473TIP3   OH222909   4.995   6.023  12.708  0.0008 -0.1617  0.3018
  473TIP3    H122910   5.036   5.992  12.627 -0.2087  0.3084  0.0121
  473TIP3    H222911   5.040   5.975  12.777  0.3868 -0.3496 -0.0745
  474TIP3   OH222912   4.306   3.998  11.676  0.2630 -0.1062  0.3455
  474TIP3    H122913   4.228   4.048  11.651  0.4729 -0.1813 -0.4998
  474TIP3    H222914   4.378   4.059  11.667  0.6298 -0.7432 -1.5144
  475TIP3   OH222915   4.584   5.197  17.022  0.2475  0.2742 -0.1126
  475TIP3    H122916   4.658   5.142  16.995  0.0320 -0.2696  0.3879
  475TIP3    H222917   4.622   5.285  17.031  0.7248  0.0962 -0.3394
  476TIP3   OH222918   2.300   2.439   5.580  0.4435  0.5068  0.2584
  476TIP3    H122919   2.356   2.392   5.519 -0.5929 -0.1525 -0.2218
  476TIP3    H222920   2.247   2.370   5.622  0.0419  1.0942  0.7399
  477TIP3   OH222921   2.390   5.148   2.192 -0.5260 -0.2823 -0.2683
  477TIP3    H122922   2.420   5.144   2.102 -0.4294 -1.5486 -0.1973
  477TIP3    H222923   2.365   5.058   2.214  1.2616 -0.4092  1.5663
  478TIP3   OH222924   4.738   3.621  16.719  0.0312 -0.3683 -0.0885
  478TIP3    H122925   4.689   3.631  16.637  0.0711 -0.0737 -0.0764
  478TIP3    H222926   4.672   3.593  16.783  0.0867 -1.0614 -0.3264
  479TIP3   OH222927   2.760   3.091   4.750 -0.1817  0.2603 -0.0655
  479TIP3    H122928   2.703   3.146   4.697  0.6169  1.0464 -0.1281
  479TIP3    H222929   2.822   3.053   4.687  0.0250  0.2555  0.1381
  480TIP3   OH222930   2.995   6.472   3.892  0.4773  0.1283  0.6437
  480TIP3    H122931   3.037   6.555   3.913  1.8768 -0.5137  0.5174
  480TIP3    H222932   3.022   6.453   3.802 -2.0920  0.8463 -0.3779
  481TIP3   OH222933   0.647   3.379  16.750  0.2236  0.4769  0.1744
  481TIP3    H122934   0.639   3.341  16.837  1.1537 -0.9437 -0.3258
  481TIP3    H222935   0.609   3.314  16.691 -1.0271  1.7153 -0.4536
  482TIP3   OH222936   4.660   6.055   1.339 -0.3860 -0.4224  0.4556
  482TIP3    H122937   4.644   6.015   1.425 -1.9718 -2.4215 -0.6569
  482TIP3    H222938   4.754   6.048   1.326 -0.2529 -1.0159  1.6060
  483TIP3   OH222939   4.224   6.629  11.766 -0.5822  0.1875 -0.4159
  483TIP3    H122940   4.194   6.649  11.855 -2.8453 -1.4196 -0.7295
  483TIP3    H222941   4.239   6.715  11.726  0.3493  0.9481  1.4305
  484TIP3   OH222942   1.944   3.429  16.688 -0.3623 -0.1259 -0.2651
  484TIP3    H122943   2.023   3.457  16.734 -2.2046 -0.3776  3.4151
  484TIP3    H222944   1.908   3.510  16.652  0.7664  0.2175 -0.6530
  485TIP3   OH222945   3.433   1.966   0.325  0.0037 -0.4726  0.3258
  485TIP3    H122946   3.459   1.877   0.351  2.2539 -0.0197 -0.1580
  485TIP3    H222947   3.455   2.021   0.400 -0.8384 -0.2188  0.3987
  486TIP3   OH222948   4.763   0.222   5.084  0.1880 -0.4903  0.5022
  486TIP3    H122949   4.790   0.228   5.176 -0.2382 -0.2834  0.6148
  486TIP3    H222950   4.809   0.295   5.041 -0.9570  0.4830  0.8885
  487TIP3   OH222951   1.174   1.261   0.924  0.0126 -0.0240  0.5101
  487TIP3    H122952   1.114   1.188   0.905 -0.7076  0.6622  0.0939
  487TIP3    H222953   1.179   1.264   1.019 -0.7458 -0.0012  0.5598
  488TIP3   OH222954   6.336   1.386   3.617  0.5177 -0.3561 -0.1022
  488TIP3    H122955   6.325   1.293   3.638  1.6832 -0.3102  0.7915
  488TIP3    H222956   6.275   1.432   3.675 -0.4636 -0.5768 -0.9313
  489TIP3   OH222957   4.815   2.565  16.780 -0.2821 -0.0169  0.6390
  489TIP3    H122958   4.896   2.514  16.782 -0.1563  0.1992  1.0293
  489TIP3    H222959   4.822   2.617  16.700  0.3824  0.6768  1.1383
  490TIP3   OH222960   4.369   1.857   6.053  0.2063  0.4303 -0.1679
  490TIP3    H122961   4.457   1.889   6.035 -0.4781  3.3317  1.0848
  490TIP3    H222962   4.382   1.778   6.104  2.1989  2.2335  2.3440
  491TIP3   OH222963   3.811   5.416   3.198  0.2965  0.2775 -0.2643
  491TIP3    H122964   3.741   5.400   3.136 -0.4570 -0.0242  0.6333
  491TIP3    H222965   3.842   5.328   3.223 -0.2518  0.3408  0.6963
  492TIP3   OH222966   5.253   6.187   0.290  0.2618  0.0408  0.1488
  492TIP3    H122967   5.220   6.217   0.375 -0.4349 -1.0581  0.2923
  492TIP3    H222968   5.304   6.108   0.311 -2.2934 -1.9745 -0.6636
  493TIP3   OH222969   1.707   5.326   4.503 -0.3046  0.4564 -0.5176
  493TIP3    H122970   1.712   5.236   4.472 -0.6692  0.1995  0.1650
  493TIP3    H222971   1.614   5.341   4.517 -0.4592  1.5202 -2.3103
  494TIP3   OH222972   4.299   3.433   2.366  0.0936  0.0725  0.9219
  494TIP3    H122973   4.226   3.372   2.370 -0.0919  0.1135 -0.9345
  494TIP3    H222974   4.365   3.388   2.314  0.2058  1.1758  0.0765
  495TIP3   OH222975   2.241   0.688  17.240  0.1846  0.9064 -0.1822
  495TIP3    H122976   2.166   0.629  17.236 -0.0422  1.1253  0.7169
  495TIP3    H222977   2.314   0.633  17.266  0.5347  0.5309 -1.8277
  496TIP3   OH222978   0.627   2.464  14.370 -0.1511 -0.0466 -0.2975
  496TIP3    H122979   0.640   2.457  14.276  0.7380 -0.9794 -0.1206
  496TIP3    H222980   0.636   2.558  14.389  1.1758 -0.0332 -0.9347
  497TIP3   OH222981   1.825   0.017  17.279 -0.2377  0.0211 -0.7026
  497TIP3    H122982   1.887   0.068  17.330 -0.7382 -1.0464  1.0401
  497TIP3    H222983   1.831   0.054  17.190  3.4013 -0.5354 -0.8357
  498TIP3   OH222984   1.507   0.422   3.443  0.1142  0.3293 -0.0707
  498TIP3    H122985   1.489   0.369   3.521  0.1544 -1.2896 -1.1060
  498TIP3    H222986   1.454   0.381   3.374  2.3736 -0.2461 -1.5873
  499TIP3   OH222987   2.232   5.396   2.254 -0.6498 -0.3069 -0.0736
  499TIP3    H122988   2.234   5.413   2.160 -2.6711 -1.8259 -0.4414
  499TIP3    H222989   2.277   5.312   2.265  0.4354  0.3169  0.4768
  500TIP3   OH222990   1.284   3.440  16.404  0.1281  0.3203 -0.0190
  500TIP3    H122991   1.243   3.358  16.375  1.0903  0.4640 -1.9918
  500TIP3    H222992   1.349   3.413  16.468 -0.5833 -0.2725  0.4736
  501TIP3   OH222993   3.637   6.013   2.843  0.5534  0.1425  0.6822
  501TIP3    H122994   3.731   5.993   2.847  0.5852  0.4088  1.9614
  501TIP3    H222995   3.594   5.928   2.843  0.7928  0.0096 -0.4216
  502TIP3   OH222996   0.036   2.771   5.421  0.0735  0.1317  0.6600
  502TIP3    H122997   0.086   2.848   5.395  0.1062  0.5928  2.0393
  502TIP3    H222998   0.084   2.734   5.495  0.1282 -1.3010 -0.0467
  503TIP3   OH222999   4.030   6.791  15.381  0.0280 -0.3937 -0.0338
  503TIP3    H123000   4.088   6.786  15.305  1.9725 -2.3257  1.4512
  503TIP3    H223001   4.020   6.885  15.397  2.3656  0.0389 -0.6684
  504TIP3   OH223002   4.316   0.679  14.472 -0.2073  0.0066 -0.3020
  504TIP3    H123003   4.332   0.773  14.478  0.1547 -0.1323  1.2690
  504TIP3    H223004   4.368   0.650  14.397  1.5415  0.6782  0.6225
  505TIP3   OH223005   5.824   1.108   5.441  0.0290 -0.1557 -0.0585
  505TIP3    H123006   5.794   1.162   5.367  2.9948 -0.3397 -1.5320
  505TIP3    H223007   5.916   1.129   5.450  0.4794 -2.4672  1.5980
  506TIP3   OH223008   6.058   2.841   5.833  0.2675 -0.4965  0.3091
  506TIP3    H123009   6.117   2.897   5.783 -0.0780 -1.0008 -0.6822
  506TIP3    H223010   6.092   2.844   5.923  0.3677  1.1381  0.2447
  507TIP3   OH223011   1.151   1.630  13.652  0.0728  0.3755 -0.2210
  507TIP3    H123012   1.128   1.644  13.560  0.3288  3.8010  0.0950
  507TIP3    H223013   1.091   1.687  13.700  1.5733  0.5704  1.5302
  508TIP3   OH223014   0.226   3.672   1.337 -0.6416  0.0478 -0.5291
  508TIP3    H123015   0.246   3.714   1.421  0.3218  0.8018 -1.1125
  508TIP3    H223016   0.197   3.744   1.281 -0.4794 -0.3247 -1.0919
  509TIP3   OH223017   3.272   3.775  14.703  0.2303  0.0300  0.3290
  509TIP3    H123018   3.321   3.773  14.621  1.4470  0.3987  1.0262
  509TIP3    H223019   3.238   3.686  14.712 -1.4692  0.4035 -1.4387
  510TIP3   OH223020   1.801   2.562  16.839  0.3639  0.4656  0.4342
  510TIP3    H123021   1.768   2.487  16.789 -0.7021  0.7728  0.6716
  510TIP3    H223022   1.726   2.619  16.850  0.9207  1.0713  1.1814
  511TIP3   OH223023   0.626   6.405   2.417 -0.2395 -0.0981 -0.1294
  511TIP3    H123024   0.648   6.448   2.334 -0.9329  2.3490  0.8539
  511TIP3    H223025   0.690   6.441   2.480 -0.6010 -0.8229  0.6695
  512TIP3   OH223026   2.970   4.075   1.212  0.3612 -0.4109 -0.6505
  512TIP3    H123027   2.957   4.093   1.305  0.4065 -2.1612 -0.2683
  512TIP3    H223028   2.933   4.151   1.167  2.1921  1.4684  0.8190
  513TIP3   OH223029   2.579   4.363   0.751 -0.0247  0.2741  0.4596
  513TIP3    H123030   2.496   4.327   0.720 -0.6504  1.1192  1.0628
  513TIP3    H223031   2.604   4.428   0.684  1.8130 -2.1094 -1.3390
  514TIP3   OH223032   2.036   3.554   0.498  0.1367 -0.4177  0.1885
  514TIP3    H123033   2.026   3.472   0.547 -0.1466  0.1716  1.1499
  514TIP3    H223034   2.074   3.615   0.562  1.4620 -0.1129 -0.8417
  515TIP3   OH223035   1.962   3.841   0.295  1.1028 -0.0063 -0.5874
  515TIP3    H123036   2.029   3.869   0.357  0.1118 -0.2198  0.6269
  515TIP3    H223037   1.958   3.912   0.230  1.4516  0.7239  0.1674
  516TIP3   OH223038   1.335   4.585  14.847  0.3256 -0.1769 -0.0166
  516TIP3    H123039   1.262   4.639  14.817 -0.6853 -1.5826 -0.1897
  516TIP3    H223040   1.320   4.574  14.941  1.5154  1.2571  0.3871
  517TIP3   OH223041   5.602   6.405   2.739 -0.0652  0.0602  0.5125
  517TIP3    H123042   5.591   6.411   2.644 -1.4614  1.7596  0.7201
  517TIP3    H223043   5.658   6.479   2.762 -1.7578  1.1723  1.2346
  518TIP3   OH223044   2.102   6.153   0.005  0.9581  0.0109  0.0556
  518TIP3    H123045   2.027   6.193  -0.039  1.2629 -0.7402 -1.2150
  518TIP3    H223046   2.099   6.187   0.094 -0.5357  0.4694 -0.1434
  519TIP3   OH223047   0.270   2.520   0.430  0.5073  0.8478 -0.2300
  519TIP3    H123048   0.258   2.613   0.449  0.9618  0.8214  0.2431
  519TIP3    H223049   0.308   2.518   0.342  0.4848  1.1118 -0.2474
  520TIP3   OH223050   5.493   6.611  14.486  0.0947 -0.4518 -0.4922
  520TIP3    H123051   5.500   6.534  14.429 -0.6457 -0.6185 -0.3703
  520TIP3    H223052   5.428   6.666  14.443  0.3624 -0.0530 -0.3913
  521TIP3   OH223053   1.812   2.585   4.623 -0.0305 -0.0638  0.1818
  521TIP3    H123054   1.903   2.613   4.622 -0.0734  0.0783 -0.1277
  521TIP3    H223055   1.790   2.576   4.715  0.4333 -0.5532  0.2457
  522TIP3   OH223056   6.686   5.787   0.077 -0.1716  0.0961 -0.2473
  522TIP3    H123057   6.768   5.824   0.045  0.1260  0.8977  1.3658
  522TIP3    H223058   6.677   5.705   0.029  2.3846 -0.8036  0.6260
  523TIP3   OH223059   4.572   5.864   1.649 -0.2206  0.2027  0.0420
  523TIP3    H123060   4.621   5.814   1.583  0.3566 -1.7335  1.8434
  523TIP3    H223061   4.576   5.810   1.728 -1.1779  2.2792  1.5941
  524TIP3   OH223062   0.708   5.726   2.503 -0.6193  0.3383  0.0364
  524TIP3    H123063   0.784   5.751   2.556 -0.3805 -0.0469 -0.1174
  524TIP3    H223064   0.658   5.667   2.558 -2.3467  2.7700  1.2462
  525TIP3   OH223065   2.578   5.201  11.309  0.3158  0.3607 -0.2727
  525TIP3    H123066   2.653   5.212  11.249 -0.1335 -0.0099 -0.9162
  525TIP3    H223067   2.617   5.164  11.388  0.8643  0.4607 -0.4859
  526TIP3   OH223068   3.814   4.642  16.429 -0.5205  0.0178 -0.3436
  526TIP3    H123069   3.798   4.573  16.365 -1.0129  0.1505 -0.3655
  526TIP3    H223070   3.895   4.616  16.472 -0.2089 -0.0931 -0.9908
  527TIP3   OH223071   6.681   6.199  10.658  0.2820  0.4107 -0.3210
  527TIP3    H123072   6.667   6.195  10.563 -0.5783 -0.9176 -0.1672
  527TIP3    H223073   6.608   6.252  10.691  0.9948  1.5158 -0.4451
  528TIP3   OH223074   5.595   2.786   3.354 -0.0741  0.0913  0.2037
  528TIP3    H123075   5.535   2.742   3.293 -1.5830  0.8429  1.1031
  528TIP3    H223076   5.547   2.863   3.383  1.2336  0.5632  1.1804
  529TIP3   OH223077   5.470   1.499   0.585 -0.0975 -0.3186 -0.1131
  529TIP3    H123078   5.501   1.472   0.671 -0.2468 -2.3061 -0.6371
  529TIP3    H223079   5.424   1.422   0.551  0.5647  0.1736 -2.2544
  530TIP3   OH223080   2.186   1.062   4.658 -0.1777  0.0685 -0.5006
  530TIP3    H123081   2.274   1.029   4.676  0.2110  1.2485 -0.1670
  530TIP3    H223082   2.128   0.993   4.689  0.5986 -0.0378  0.8038
  531TIP3   OH223083   5.142   4.749  16.291 -0.9060  0.0337 -0.3593
  531TIP3    H123084   5.170   4.730  16.201  0.4864  1.6421 -0.3209
  531TIP3    H223085   5.165   4.841  16.304 -0.6688 -0.2785  1.7857
  532TIP3   OH223086   1.332   1.638  12.049  0.1845  0.7394  0.0915
  532TIP3    H123087   1.401   1.600  11.993  1.2085  1.3158  0.9350
  532TIP3    H223088   1.296   1.563  12.096 -0.0238  0.3832 -0.6194
  533TIP3   OH223089   3.842   0.698  11.765 -0.1673 -0.0892  0.0048
  533TIP3    H123090   3.838   0.761  11.694 -0.4567  1.6327  1.4945
  533TIP3    H223091   3.929   0.710  11.803 -0.0227 -0.9709 -0.0210
  534TIP3   OH223092   6.389   2.318  11.979  0.5972 -0.4894  0.2904
  534TIP3    H123093   6.321   2.315  11.912  2.2731 -0.8840 -1.4767
  534TIP3    H223094   6.436   2.400  11.962  1.7815 -1.1718  0.1904
  535TIP3   OH223095   5.534   3.106  14.520 -0.6100  0.1461 -0.0405
  535TIP3    H123096   5.503   3.194  14.539  0.4330  0.7478 -0.9972
  535TIP3    H223097   5.602   3.118  14.453  0.4686 -1.2490  0.7303
  536TIP3   OH223098   1.402   1.331  13.523 -0.1533  0.2798  0.2129
  536TIP3    H123099   1.420   1.287  13.606  0.8593  3.1237  1.6517
  536TIP3    H223100   1.475   1.308  13.466  0.3819  0.1352  0.9518
  537TIP3   OH223101   0.279   6.409   4.024 -0.9153 -0.0113  0.5221
  537TIP3    H123102   0.218   6.385   3.955 -0.2776 -1.8034  0.5326
  537TIP3    H223103   0.356   6.355   4.009 -0.7182 -0.3988  2.5618
  538TIP3   OH223104   5.720   2.515  10.745  0.3218  0.2692 -0.4381
  538TIP3    H123105   5.681   2.430  10.722  1.5360 -0.7869  1.1131
  538TIP3    H223106   5.803   2.516  10.696  0.7846  0.0804  0.3332
  539TIP3   OH223107   4.261   5.815  10.762  0.4694  0.1137 -0.0593
  539TIP3    H123108   4.348   5.834  10.797  0.5766 -0.2535 -0.1204
  539TIP3    H223109   4.222   5.901  10.747  0.2121  0.2777  1.4735
  540TIP3   OH223110   3.995   1.761  16.733 -0.0658 -0.3540  0.6355
  540TIP3    H123111   3.919   1.797  16.688  0.9667 -0.5948 -1.3971
  540TIP3    H223112   3.988   1.666  16.723  0.5152 -0.3773  0.3813
  541TIP3   OH223113   2.788   2.423  14.580 -0.5208 -0.2043 -0.1988
  541TIP3    H123114   2.848   2.494  14.559 -0.2600 -0.0639  0.9120
  541TIP3    H223115   2.711   2.467  14.618 -0.0911 -0.5214  1.0919
  542TIP3   OH223116   0.775   4.833  13.370 -0.0138  0.1316  0.8031
  542TIP3    H123117   0.849   4.890  13.347 -0.8451 -0.2031 -3.3877
  542TIP3    H223118   0.699   4.890  13.365 -0.4753 -0.5074  0.4477
  543TIP3   OH223119   1.137   4.749  14.743 -0.8087  0.3115 -0.0301
  543TIP3    H123120   1.170   4.818  14.801  1.3945  0.2261 -1.0572
  543TIP3    H223121   1.161   4.778  14.655 -0.4426 -1.4237 -0.5417
  544TIP3   OH223122   0.486   6.134  15.761  1.1728 -0.0860 -0.4224
  544TIP3    H123123   0.407   6.135  15.815  1.6114 -0.6419  0.2484
  544TIP3    H223124   0.503   6.041  15.744  1.6891  0.0242 -0.5514
  545TIP3   OH223125   3.554   0.840  13.091  0.3640 -0.5400 -0.1688
  545TIP3    H123126   3.630   0.839  13.149  0.7832 -0.7397 -0.7113
  545TIP3    H223127   3.479   0.826  13.149  0.7372 -0.3091  0.3747
  546TIP3   OH223128   4.256   5.203   3.639  0.0233 -0.1678  0.1038
  546TIP3    H123129   4.315   5.128   3.632  1.1362  0.4147  2.3004
  546TIP3    H223130   4.177   5.168   3.680 -0.4511 -0.5743 -1.1077
  547TIP3   OH223131   2.506   6.516  16.506  0.0472  0.4439 -0.6308
  547TIP3    H123132   2.551   6.436  16.477  0.7252  0.7108 -0.3503
  547TIP3    H223133   2.486   6.563  16.425 -0.8809 -0.2759 -0.8329
  548TIP3   OH223134   5.875   3.923   1.961 -0.5888 -0.2707 -0.0242
  548TIP3    H123135   5.952   3.968   1.995 -0.0133 -1.7572  0.7090
  548TIP3    H223136   5.821   3.907   2.039 -0.9242 -0.6052 -0.3232
  549TIP3   OH223137   1.245   5.965  15.331  0.2645  0.4023  0.3417
  549TIP3    H123138   1.161   5.933  15.364 -0.5742  1.8815 -0.2542
  549TIP3    H223139   1.245   6.059  15.353  1.5421  0.5328 -0.1076
  550TIP3   OH223140   4.002   5.017   6.208 -0.3371 -0.3386  0.3236
  550TIP3    H123141   4.072   4.955   6.228 -0.1364 -0.8857 -1.8693
  550TIP3    H223142   4.047   5.102   6.200 -0.1749 -0.4034  0.5332
  551TIP3   OH223143   2.463   0.615  10.931  0.8769  0.4053 -0.0720
  551TIP3    H123144   2.460   0.709  10.914  3.6512  0.5093 -0.4088
  551TIP3    H223145   2.556   0.594  10.934  0.4433 -1.8176  3.0189
  552TIP3   OH223146   2.852   4.376  12.961  0.5189  0.1562  0.2226
  552TIP3    H123147   2.860   4.449  12.900 -0.6228  1.3311  1.4268
  552TIP3    H223148   2.911   4.309  12.925 -0.8351  0.3648 -2.7258
  553TIP3   OH223149   1.701   0.205   0.276 -0.1886  0.2934  0.4758
  553TIP3    H123150   1.651   0.198   0.196  0.9528 -0.3755 -0.2129
  553TIP3    H223151   1.666   0.282   0.321 -0.8395  0.6718 -0.6606
  554TIP3   OH223152   0.128   1.720   2.038 -0.5228  0.1774 -0.5587
  554TIP3    H123153   0.052   1.663   2.042  1.0086 -1.9477  0.5113
  554TIP3    H223154   0.152   1.736   2.129  0.0933  1.1337 -0.8665
  555TIP3   OH223155   2.650   2.968   5.644 -0.2976 -0.2823  0.0383
  555TIP3    H123156   2.680   3.056   5.621  0.6062 -0.3384  0.9059
  555TIP3    H223157   2.617   2.976   5.734 -2.9523 -0.2397 -0.8611
  556TIP3   OH223158   2.675   0.164  15.220 -0.7670  0.3246 -0.2193
  556TIP3    H123159   2.611   0.198  15.283 -1.2861  0.8394 -1.0110
  556TIP3    H223160   2.622   0.124  15.151 -0.2431  0.7659 -0.8917
  557TIP3   OH223161   1.604   1.127  11.354  0.1646 -0.7744  1.2036
  557TIP3    H123162   1.531   1.065  11.357  0.4485 -1.1782  0.2070
  557TIP3    H223163   1.607   1.155  11.263 -1.2253  2.2808  1.9900
  558TIP3   OH223164   2.552   2.431  11.344 -0.6520 -0.1750  0.1849
  558TIP3    H123165   2.603   2.465  11.270 -1.3902 -0.0990 -0.2978
  558TIP3    H223166   2.556   2.336  11.334  0.4399 -0.2151  0.8717
  559TIP3   OH223167   2.542   3.089  11.886 -0.6071 -0.0715  0.2243
  559TIP3    H123168   2.590   3.017  11.927 -1.0794 -1.1588 -1.0687
  559TIP3    H223169   2.491   3.048  11.816 -1.1916  1.4675 -0.3053
  560TIP3   OH223170   1.638   0.208  13.930 -0.6499 -0.2613 -0.1226
  560TIP3    H123171   1.652   0.158  13.850 -1.7778 -1.2978  0.2976
  560TIP3    H223172   1.722   0.249  13.948 -0.1188 -0.7933 -1.3106
  561TIP3   OH223173   4.973   2.941   4.348 -0.4685  0.4902 -0.5952
  561TIP3    H123174   4.957   3.035   4.347 -0.5936  0.4725 -1.7075
  561TIP3    H223175   5.039   2.927   4.281 -1.6931 -0.4090 -1.6711
  562TIP3   OH223176   5.247   6.296  16.259  0.0737 -0.2781 -0.0353
  562TIP3    H123177   5.299   6.226  16.299  0.4460  0.8206  1.5105
  562TIP3    H223178   5.156   6.267  16.272  0.2049 -1.9381 -2.2560
  563TIP3   OH223179   0.274   4.556  15.259 -0.1197  0.0178 -0.0988
  563TIP3    H123180   0.268   4.461  15.248 -2.9862  0.0310  0.4867
  563TIP3    H223181   0.340   4.568  15.327 -0.0883 -1.5973  0.2061
  564TIP3   OH223182   6.723   3.564   5.017 -0.5083  0.6742 -0.3508
  564TIP3    H123183   6.759   3.583   4.930 -0.0564  0.1700 -0.2816
  564TIP3    H223184   6.660   3.634   5.033  1.4344  2.4110  0.1120
  565TIP3   OH223185   2.704   3.383   4.606 -0.5041  0.5939  0.6002
  565TIP3    H123186   2.678   3.363   4.517  0.9642  0.7626  0.1066
  565TIP3    H223187   2.640   3.338   4.661 -0.7630 -0.4576 -0.5292
  566TIP3   OH223188   1.054   6.613  16.306  0.0776 -0.1075 -0.1966
  566TIP3    H123189   1.090   6.557  16.375 -3.1541 -0.7405  1.2012
  566TIP3    H223190   1.109   6.691  16.306  1.1319 -0.7674  2.0506
  567TIP3   OH223191   2.803   1.017   5.677 -0.3370  0.0022 -0.3849
  567TIP3    H123192   2.889   1.040   5.711  0.9621 -2.1973 -1.8865
  567TIP3    H223193   2.751   0.996   5.755  0.6742  0.7913  0.5196
  568TIP3   OH223194   5.883   6.316   4.705  0.7188 -0.4466 -0.3779
  568TIP3    H123195   5.874   6.391   4.646  0.2798  0.3256  0.6321
  568TIP3    H223196   5.875   6.240   4.648 -0.4327  0.2645 -1.2245
  569TIP3   OH223197   6.591   4.960  15.142 -0.1893  0.3463  0.1192
  569TIP3    H123198   6.590   4.888  15.205 -1.1578 -0.4784 -0.8145
  569TIP3    H223199   6.666   5.014  15.169  1.4628 -1.7627 -0.0369
  570TIP3   OH223200   1.602   0.011   3.049  0.0407 -0.4803 -0.1533
  570TIP3    H123201   1.657  -0.019   2.977  1.1069 -1.4773  1.0287
  570TIP3    H223202   1.604  -0.060   3.113 -1.4567  0.0783  0.5613
  571TIP3   OH223203   1.037   5.421  11.584 -0.4845  0.4361  0.6379
  571TIP3    H123204   1.025   5.343  11.638 -0.4446  0.4517  0.6699
  571TIP3    H223205   1.132   5.428  11.574 -0.4534  0.8563  1.1920
  572TIP3   OH223206   4.836   0.937  13.179  0.4893  0.2671  0.1767
  572TIP3    H123207   4.921   0.980  13.188 -0.0650  1.6230 -0.8010
  572TIP3    H223208   4.850   0.849  13.215  2.8357 -0.2068 -1.6007
  573TIP3   OH223209   3.921   1.703  14.164 -0.2834  0.2234 -0.3477
  573TIP3    H123210   3.863   1.648  14.112  1.7217 -2.2169 -0.1642
  573TIP3    H223211   3.969   1.755  14.100 -1.2023  0.8120 -0.5899
  574TIP3   OH223212   2.477   2.604   4.008  0.2114 -0.0819 -0.1110
  574TIP3    H123213   2.542   2.641   4.068  1.8578 -1.7678 -0.7418
  574TIP3    H223214   2.529   2.561   3.940 -1.5984 -0.1308 -1.5414
  575TIP3   OH223215   0.166   1.023   4.703  0.7061  0.2039 -0.4606
  575TIP3    H123216   0.228   0.979   4.646 -0.5520 -1.1820 -0.8144
  575TIP3    H223217   0.118   0.952   4.747 -1.9763  1.1115 -1.6774
  576TIP3   OH223218   5.268   5.160   4.479 -0.4071 -0.2077 -0.3652
  576TIP3    H123219   5.270   5.197   4.390  1.4911 -1.8067 -1.0715
  576TIP3    H223220   5.238   5.070   4.466 -1.6148 -0.0130  0.8561
  577TIP3   OH223221   1.833   4.593  14.412  1.0184  0.3083  0.4792
  577TIP3    H123222   1.750   4.630  14.381  0.2255  0.8610  2.9642
  577TIP3    H223223   1.881   4.668  14.447  1.9005 -0.2351  0.4584
  578TIP3   OH223224   1.255   5.409  12.511 -0.1598 -0.2503 -0.3470
  578TIP3    H123225   1.161   5.414  12.526 -0.4177 -2.0826 -1.0818
  578TIP3    H223226   1.292   5.384  12.596 -0.4659 -0.6054 -0.3182
  579TIP3   OH223227   0.632   1.807  15.009 -0.2019  0.1639 -0.7242
  579TIP3    H123228   0.694   1.749  14.964 -0.6319  0.5393 -1.8285
  579TIP3    H223229   0.553   1.755  15.020 -0.0394  0.0124 -0.2041
  580TIP3   OH223230   0.166   3.604  17.144  0.4036 -0.1654 -0.1204
  580TIP3    H123231   0.083   3.558  17.131 -0.3949  0.8406  1.1697
  580TIP3    H223232   0.222   3.541  17.189 -0.7363  0.1218  1.8005
  581TIP3   OH223233   0.941   2.302   1.650  0.3169 -0.2435  0.3341
  581TIP3    H123234   0.917   2.377   1.596 -2.0154  0.1563  1.7887
  581TIP3    H223235   0.940   2.335   1.740 -0.4744 -1.9250  0.9871
  582TIP3   OH223236   6.692   6.001  11.642 -0.0824  0.3726  0.6351
  582TIP3    H123237   6.771   6.050  11.668  0.8728  1.7139 -3.9105
  582TIP3    H223238   6.726   5.919  11.606 -0.9510  0.1570  0.2877
  583TIP3   OH223239   2.633   4.168  15.685  0.1180 -0.2094 -0.4550
  583TIP3    H123240   2.654   4.132  15.598 -1.0821 -0.7838 -0.5359
  583TIP3    H223241   2.699   4.130  15.743  0.3801 -0.5490 -0.9638
  584TIP3   OH223242   3.875   4.569  15.019  0.4387  0.6930  0.4912
  584TIP3    H123243   3.936   4.629  14.976  0.2764  0.8634  0.5006
  584TIP3    H223244   3.925   4.488  15.029  0.1502  0.3059 -0.9719
  585TIP3   OH223245   4.245   1.329  11.295 -0.1856 -0.2882  0.2518
  585TIP3    H123246   4.199   1.324  11.379 -2.2857 -0.5425 -0.8257
  585TIP3    H223247   4.176   1.352  11.232  2.0099  4.4947 -0.8459
  586TIP3   OH223248   0.913   0.088  14.283 -0.1876 -0.4039  0.4889
  586TIP3    H123249   0.875   0.029  14.348  1.1730 -0.4607  1.2532
  586TIP3    H223250   0.930   0.169  14.331  1.1789 -0.5686  0.3184
  587TIP3   OH223251   5.114   2.929   3.616  0.5647  0.4143  0.0098
  587TIP3    H123252   5.104   3.010   3.565  1.9268  0.2060 -0.6432
  587TIP3    H223253   5.048   2.870   3.580  0.7051  0.6787 -0.7023
  588TIP3   OH223254   0.246   6.148  14.114 -0.1264  0.5458  0.2255
  588TIP3    H123255   0.219   6.238  14.095 -1.0769  0.4493  0.9881
  588TIP3    H223256   0.335   6.156  14.147  0.3021  1.0498 -1.0192
  589TIP3   OH223257   4.236   4.941   4.415  0.1176  0.2534  0.0579
  589TIP3    H123258   4.241   4.849   4.387 -0.3317  0.1232  0.3932
  589TIP3    H223259   4.310   4.952   4.474 -0.1484 -0.0518  0.4531
  590TIP3   OH223260   2.178   0.915  13.062  0.2963 -0.5280  0.4494
  590TIP3    H123261   2.146   0.930  12.973  1.4859 -0.6793 -0.0300
  590TIP3    H223262   2.145   0.828  13.085  0.0129 -0.5038  0.1380
  591TIP3   OH223263   3.124   5.651  11.903  0.2788 -0.2478 -0.2355
  591TIP3    H123264   3.183   5.576  11.909 -0.3736 -0.7126  0.4679
  591TIP3    H223265   3.182   5.727  11.904  0.8586 -0.6810  0.7867
  592TIP3   OH223266   6.739   2.504  14.621  0.4959  0.2908 -0.2062
  592TIP3    H123267   6.722   2.577  14.680  0.7056 -0.0244  0.2543
  592TIP3    H223268   6.731   2.426  14.677 -2.2804 -0.2412 -1.1949
  593TIP3   OH223269   4.328   4.235  13.693 -0.2620  0.5857 -0.0498
  593TIP3    H123270   4.413   4.276  13.679 -0.2618  0.0125 -2.1096
  593TIP3    H223271   4.293   4.278  13.771  0.9519  2.4065 -0.4409
  594TIP3   OH223272   6.635   5.041   1.531 -0.5108 -0.1551 -0.0933
  594TIP3    H123273   6.587   5.018   1.452 -0.9786  3.2932 -0.9690
  594TIP3    H223274   6.715   5.084   1.500  0.8501 -1.4735  1.3625
  595TIP3   OH223275   0.841   4.231  12.960 -0.2937  0.2397 -0.1521
  595TIP3    H123276   0.862   4.166  12.893 -1.4001  0.0824 -0.3634
  595TIP3    H223277   0.889   4.309  12.934  2.1349 -0.8132  0.8012
  596TIP3   OH223278   4.184   2.420   2.956 -0.7291  0.2346 -0.4607
  596TIP3    H123279   4.278   2.418   2.939 -0.3829 -3.0571  0.9963
  596TIP3    H223280   4.168   2.506   2.996  1.5524  1.0293 -1.1394
  597TIP3   OH223281   0.802   3.546  16.903 -0.5921 -0.3600 -0.2212
  597TIP3    H123282   0.744   3.481  16.864 -0.4474 -1.0711  0.7032
  597TIP3    H223283   0.861   3.571  16.832 -0.3361 -1.6147 -0.4767
  598TIP3   OH223284   1.668   1.804  16.515 -0.3028 -0.6186  0.3735
  598TIP3    H123285   1.601   1.741  16.489  0.5441 -1.0979 -0.7325
  598TIP3    H223286   1.704   1.769  16.596 -1.2031 -0.4920  0.8363
  599TIP3   OH223287   6.369   2.441  12.627 -0.6672  0.2326 -0.0309
  599TIP3    H123288   6.436   2.399  12.681 -1.6370 -1.1046  0.1769
  599TIP3    H223289   6.416   2.510  12.580  0.9848 -1.0846 -0.4064
  600TIP3   OH223290   0.623   3.142  14.479  0.1043 -0.4350 -0.3443
  600TIP3    H123291   0.678   3.209  14.519  0.1611  0.2512 -1.5414
  600TIP3    H223292   0.649   3.061  14.523  2.5075 -0.2443 -1.2613
  601TIP3   OH223293   0.122   1.002  13.264 -0.1245  0.3065  0.1552
  601TIP3    H123294   0.065   1.043  13.329 -1.1921 -2.1912  0.9328
  601TIP3    H223295   0.188   0.955  13.315  1.0236  0.9358 -0.6851
  602TIP3   OH223296   0.627   5.341   0.298  0.5525 -0.0570  0.6684
  602TIP3    H123297   0.567   5.270   0.323 -0.2689 -0.6045 -2.3692
  602TIP3    H223298   0.613   5.409   0.364 -2.3716 -0.7585  0.9009
  603TIP3   OH223299   4.087   3.057   2.977 -0.5605  0.1998  0.5575
  603TIP3    H123300   4.128   3.141   2.996  0.4070 -0.3237  0.8279
  603TIP3    H223301   4.043   3.033   3.058 -0.3660  0.1846  0.6594
  604TIP3   OH223302   6.200   1.408  12.524 -0.1101  0.3858  0.0155
  604TIP3    H123303   6.235   1.497  12.524  1.2555 -0.1276 -0.3258
  604TIP3    H223304   6.124   1.413  12.466  0.3884  1.1661 -0.5995
  605TIP3   OH223305   4.947   5.247   5.291  0.2356  0.0692 -0.7439
  605TIP3    H123306   4.939   5.214   5.381 -0.9673 -0.3117 -0.9739
  605TIP3    H223307   5.025   5.302   5.293  1.4376 -1.5548  0.0418
  606TIP3   OH223308   6.285   2.959  10.470 -0.3748 -0.4357  0.3077
  606TIP3    H123309   6.318   3.038  10.428 -1.2867 -0.1091  0.1785
  606TIP3    H223310   6.303   2.889  10.407 -2.2183  0.1297 -0.9272
  607TIP3   OH223311   2.750   3.317   6.414  0.1969  0.4324 -0.2304
  607TIP3    H123312   2.727   3.359   6.497 -0.1148  1.0265 -0.6151
  607TIP3    H223313   2.817   3.373   6.376 -1.0463  1.2447 -1.2981
  608TIP3   OH223314   2.980   0.993   5.033 -0.6488  0.0067  0.4089
  608TIP3    H123315   3.039   0.918   5.018 -0.8561 -0.2147  0.6809
  608TIP3    H223316   2.940   0.974   5.118 -3.8384 -1.7068 -1.3041
  609TIP3   OH223317   3.221   3.983   5.066  0.3534  0.4174 -0.3087
  609TIP3    H123318   3.172   3.919   5.118 -0.5275  1.5426  0.2794
  609TIP3    H223319   3.310   3.979   5.102  0.1542 -0.0106  0.1551
  610TIP3   OH223320   3.232   0.016   3.636  0.2335 -0.6773  0.4847
  610TIP3    H123321   3.234   0.071   3.558  2.4706 -0.8335  0.3631
  610TIP3    H223322   3.226  -0.074   3.603  2.3071 -0.8304  0.3422
  611TIP3   OH223323   1.963   0.500   2.746 -0.1024  0.4761 -0.9866
  611TIP3    H123324   2.055   0.496   2.722 -0.0777  0.4444 -0.8902
  611TIP3    H223325   1.963   0.541   2.832 -0.1002 -0.3580 -0.5729
  612TIP3   OH223326   0.853   2.828  12.093 -0.4108 -0.0229  0.0216
  612TIP3    H123327   0.792   2.900  12.081  0.6908  0.9645  0.1887
  612TIP3    H223328   0.926   2.866  12.141 -0.2774 -1.5108  1.0617
  613TIP3   OH223329   4.742   0.128  12.726  0.2605  0.0190  0.0532
  613TIP3    H123330   4.826   0.124  12.681  0.5109 -1.2237  0.5797
  613TIP3    H223331   4.735   0.043  12.771 -1.5785 -0.1792 -0.5324
  614TIP3   OH223332   6.527   4.762   4.629 -0.2458  0.2408 -0.4625
  614TIP3    H123333   6.532   4.718   4.545 -0.1190 -0.2209 -0.2149
  614TIP3    H223334   6.457   4.826   4.619 -1.0763 -0.6570 -0.5305
  615TIP3   OH223335   4.432   2.873   4.529 -0.0496 -0.1784  0.2588
  615TIP3    H123336   4.487   2.799   4.504  3.4270  2.1185  0.4778
  615TIP3    H223337   4.438   2.934   4.455  0.6399  1.6104  1.7078
  616TIP3   OH223338   3.666   1.315  10.960 -0.5386 -0.5702 -0.3566
  616TIP3    H123339   3.584   1.337  11.005 -1.3326 -1.1371 -1.4826
  616TIP3    H223340   3.697   1.399  10.926 -0.9924 -0.4402 -0.4640
  617TIP3   OH223341   5.293   5.595  12.728 -0.2312  0.2920  0.0280
  617TIP3    H123342   5.240   5.673  12.739 -1.6998 -0.8272  1.3305
  617TIP3    H223343   5.250   5.547  12.657  0.1885  0.2684 -0.2153
  618TIP3   OH223344   1.324   6.678   3.161 -0.0618  0.0045 -0.3235
  618TIP3    H123345   1.240   6.646   3.195 -1.0270  1.7232 -0.9076
  618TIP3    H223346   1.300   6.725   3.080  1.5451  0.0697 -0.7946
  619TIP3   OH223347   1.049   3.274   0.672 -0.4597  0.7156  0.4796
  619TIP3    H123348   0.985   3.330   0.627  1.2907  1.2569 -1.5046
  619TIP3    H223349   1.124   3.332   0.688  0.0891 -0.2402  1.4795
  620TIP3   OH223350   2.724   3.954   2.185  0.0363  0.0107 -0.2336
  620TIP3    H123351   2.664   3.994   2.248 -0.6745  0.1327 -0.9629
  620TIP3    H223352   2.685   3.973   2.100 -0.5899 -2.5567 -0.6183
  621TIP3   OH223353   1.231   1.540  15.104 -0.1116 -0.4561 -0.1952
  621TIP3    H123354   1.161   1.492  15.059 -0.1762  0.4923 -1.1690
  621TIP3    H223355   1.301   1.546  15.039  0.4436 -0.4308  0.3937
  622TIP3   OH223356   5.295   1.437  11.296  0.5282 -0.0223  0.3197
  622TIP3    H123357   5.245   1.402  11.223  2.0364 -1.2703 -0.1638
  622TIP3    H223358   5.307   1.529  11.275 -2.6394  0.6770  1.1053
  623TIP3   OH223359   0.426   1.704   1.072  0.2060  0.6596 -0.0185
  623TIP3    H123360   0.381   1.722   0.990 -1.8530  1.2893  1.1806
  623TIP3    H223361   0.433   1.608   1.076 -2.2750  0.4292  0.3175
  624TIP3   OH223362   0.392   1.379  17.184 -0.1526 -0.2600 -0.8215
  624TIP3    H123363   0.465   1.385  17.245 -0.0873 -0.5919 -0.8647
  624TIP3    H223364   0.375   1.470  17.157  0.5687 -0.2293 -1.1980
  625TIP3   OH223365   0.267   1.963  15.853  0.2164  0.3221 -0.0512
  625TIP3    H123366   0.313   2.047  15.864  2.0704 -0.6278 -0.1555
  625TIP3    H223367   0.284   1.938  15.763 -2.3068  0.8863 -0.7635
  626TIP3   OH223368   2.777   1.685   3.025 -0.2112 -0.1257  0.2432
  626TIP3    H123369   2.837   1.629   3.073 -1.4652 -1.4932  0.2783
  626TIP3    H223370   2.753   1.634   2.947 -2.1794 -0.1277  0.7923
  627TIP3   OH223371   3.248   1.630   1.742 -0.2189  0.0806  0.4683
  627TIP3    H123372   3.247   1.598   1.832  1.4894 -2.1037 -0.1991
  627TIP3    H223373   3.182   1.578   1.697  0.9180 -0.8874 -0.1220
  628TIP3   OH223374   0.984   4.467  12.897 -0.6107  0.1128  0.1232
  628TIP3    H123375   1.007   4.435  12.810 -0.4867  1.2082 -0.2615
  628TIP3    H223376   1.011   4.558  12.897  0.2681 -0.1029  1.6440
  629TIP3   OH223377   0.230   0.630   2.396  0.3859  0.3686 -0.1749
  629TIP3    H123378   0.197   0.633   2.306 -0.1032  0.7292  0.0136
  629TIP3    H223379   0.156   0.600   2.448  0.7331 -0.0562  0.0833
  630TIP3   OH223380   2.778   3.956  14.329 -0.3152  0.3435 -0.3143
  630TIP3    H123381   2.718   4.020  14.369  0.9137  2.6775 -1.9690
  630TIP3    H223382   2.861   4.003  14.322  0.8633 -1.7296 -0.9817
  631TIP3   OH223383   3.758   5.509  14.979 -0.6808  0.5695  0.0046
  631TIP3    H123384   3.806   5.538  15.056 -0.4677  0.3290 -0.0314
  631TIP3    H223385   3.768   5.581  14.916 -0.7339  0.7048  0.1522
  632TIP3   OH223386   6.520   3.855  12.501 -0.2322 -0.4103 -0.0290
  632TIP3    H123387   6.581   3.903  12.556  0.2722 -2.8594  1.7179
  632TIP3    H223388   6.433   3.882  12.532 -0.0656  1.6191 -1.2016
  633TIP3   OH223389   4.320   4.422   3.348  0.6970 -0.4584 -0.8090
  633TIP3    H123390   4.278   4.459   3.426  0.6326 -0.1701 -0.9803
  633TIP3    H223391   4.408   4.399   3.378  0.6225 -0.4941 -0.6112
  634TIP3   OH223392   3.938   2.777  17.109 -0.0376  0.6716 -0.1257
  634TIP3    H123393   3.888   2.706  17.149  0.3872  1.0417  1.1026
  634TIP3    H223394   3.911   2.777  17.018  0.6500 -1.6634 -0.3800
  635TIP3   OH223395   0.580   4.865  11.894  0.1895 -0.3635 -0.1178
  635TIP3    H123396   0.673   4.886  11.900  0.5528 -1.2737 -1.9535
  635TIP3    H223397   0.536   4.944  11.927  1.5865  0.5182 -0.2700
  636TIP3   OH223398   3.757   3.231   6.658  0.7543  0.2503 -0.4940
  636TIP3    H123399   3.673   3.192   6.680  1.6309 -1.3197  0.2651
  636TIP3    H223400   3.736   3.303   6.600 -1.0504 -0.6336 -0.9986
  637TIP3   OH223401   4.174   2.060  13.899  0.3981 -0.1062  0.2139
  637TIP3    H123402   4.208   2.148  13.915  0.2290  0.1620 -0.7993
  637TIP3    H223403   4.169   2.054  13.803  0.1295 -1.1127  0.2814
  638TIP3   OH223404   6.016   5.464  16.740  0.2684 -0.2139  0.3134
  638TIP3    H123405   6.061   5.381  16.727  1.4147  0.4336 -0.0130
  638TIP3    H223406   5.993   5.464  16.833 -0.5514 -1.2709  0.1296
  639TIP3   OH223407   6.685   0.877  15.692  0.4947 -0.9689 -0.0069
  639TIP3    H123408   6.691   0.881  15.788 -1.2313  0.5373  0.0781
  639TIP3    H223409   6.649   0.790  15.674 -0.1567 -0.8761  0.7782
  640TIP3   OH223410   3.629   3.984   1.427 -0.0891 -0.1235 -0.1732
  640TIP3    H123411   3.706   3.980   1.370 -0.1424 -1.4072 -0.1885
  640TIP3    H223412   3.556   3.961   1.369 -0.3640  0.2244  0.0371
  641TIP3   OH223413   5.132   1.256   1.020  0.4311 -0.5836  0.0274
  641TIP3    H123414   5.151   1.273   1.112 -1.2900  0.4499  0.2362
  641TIP3    H223415   5.203   1.199   0.991  1.4601 -0.2604  1.7666
  642TIP3   OH223416   0.674   6.571   3.368  0.2505  0.2005  0.0288
  642TIP3    H123417   0.712   6.649   3.409  2.3442 -0.3283 -0.7556
  642TIP3    H223418   0.697   6.500   3.428 -1.2987  0.0926  0.5370
  643TIP3   OH223419   1.418   2.548  10.900 -0.1992  0.2079 -0.5046
  643TIP3    H123420   1.396   2.578  10.812 -1.2332 -0.3401 -0.4493
  643TIP3    H223421   1.359   2.474  10.915  0.0606  0.2160  0.6038
  644TIP3   OH223422   1.784   5.692  15.718 -0.1556  0.1122 -0.3639
  644TIP3    H123423   1.723   5.760  15.691  1.6292  0.8678 -2.8611
  644TIP3    H223424   1.750   5.612  15.679 -0.8581  0.0410  0.3743
  645TIP3   OH223425   2.889   4.320   5.572 -0.1126  0.3461 -0.1703
  645TIP3    H123426   2.880   4.407   5.609 -2.2213 -0.0535  0.3633
  645TIP3    H223427   2.975   4.321   5.529  0.8633  1.9426  1.6959
  646TIP3   OH223428   2.722   0.227  15.747 -0.3573  0.0480  0.4842
  646TIP3    H123429   2.800   0.256  15.700 -1.6293  0.5405 -1.4289
  646TIP3    H223430   2.697   0.302  15.801 -1.0330  0.8986 -0.9704
  647TIP3   OH223431   4.743   6.228   4.501 -0.9358 -0.5723 -0.0527
  647TIP3    H123432   4.805   6.158   4.483 -2.6138 -2.2305  0.2795
  647TIP3    H223433   4.658   6.184   4.506 -1.9326  1.3577  1.1453
  648TIP3   OH223434   4.266   0.763   4.653  0.2768  0.3082 -0.4534
  648TIP3    H123435   4.195   0.766   4.589 -0.9725 -0.4415  0.8434
  648TIP3    H223436   4.254   0.842   4.706  1.8358  1.3902 -1.6234
  649TIP3   OH223437   1.655   2.201  12.104 -0.1458  0.2256 -0.1476
  649TIP3    H123438   1.694   2.113  12.109  0.3958  0.4985  0.5125
  649TIP3    H223439   1.720   2.259  12.143 -0.7488  0.8462 -0.0455
  650TIP3   OH223440   5.845   0.347   6.173  0.1659 -0.2504 -0.0502
  650TIP3    H123441   5.793   0.423   6.147 -1.0525 -1.5314 -1.5192
  650TIP3    H223442   5.786   0.273   6.161  1.0096 -1.3770  2.2444
  651TIP3   OH223443   6.194   5.794  10.299  0.5919 -0.2424 -0.5086
  651TIP3    H123444   6.152   5.869  10.341  2.5320 -0.0674  1.3331
  651TIP3    H223445   6.143   5.779  10.219 -0.9818  1.8422  0.0081
  652TIP3   OH223446   0.953   0.566  13.966  0.2123  0.1303 -0.3692
  652TIP3    H123447   0.968   0.660  13.963 -0.2132  0.1934 -0.6602
  652TIP3    H223448   0.932   0.542  13.876 -1.4678  0.0770 -0.0023
  653TIP3   OH223449   0.314   4.745   2.947  0.5153  0.4789  0.1407
  653TIP3    H123450   0.309   4.740   2.851 -0.3080 -0.2365  0.2187
  653TIP3    H223451   0.380   4.679   2.971  2.1271  1.9319 -0.0366
  654TIP3   OH223452   5.634   3.674   0.980 -0.8561 -0.2402  0.4443
  654TIP3    H123453   5.729   3.683   0.987 -1.1603  2.5966  3.3808
  654TIP3    H223454   5.618   3.582   0.999  1.2600 -0.4569  1.5844
  655TIP3   OH223455   2.776   1.666  16.247  0.1340  0.5950 -0.2433
  655TIP3    H123456   2.683   1.654  16.230  0.5388 -1.9324 -0.9413
  655TIP3    H223457   2.784   1.759  16.272 -2.4290  1.0335 -0.8427
  656TIP3   OH223458   6.039   1.640  13.593 -0.4306 -0.1147 -0.3627
  656TIP3    H123459   6.125   1.631  13.634 -0.2014  0.2363 -0.7659
  656TIP3    H223460   5.978   1.645  13.667 -0.1420 -0.6928 -0.0817
  657TIP3   OH223461   4.011   0.993   2.206  0.0452 -0.3597  0.3631
  657TIP3    H123462   4.074   0.967   2.138 -1.3624 -0.4367 -0.9713
  657TIP3    H223463   3.927   0.992   2.161 -0.4533  4.3751  0.7160
  658TIP3   OH223464   1.086   5.938  13.372  0.7243 -0.6002  0.4428
  658TIP3    H123465   1.115   5.857  13.331  1.5033 -0.8674  1.4612
  658TIP3    H223466   1.165   5.972  13.415  0.3650  0.6082  0.1778
  659TIP3   OH223467   0.431   5.962  10.659  0.2589 -0.6213  0.4430
  659TIP3    H123468   0.347   5.949  10.703 -0.2290 -0.3509 -0.3861
  659TIP3    H223469   0.445   6.056  10.662 -0.2443 -0.4818 -0.7721
  660TIP3   OH223470   1.481   4.554  16.964 -0.3280 -0.0733  0.1779
  660TIP3    H123471   1.572   4.582  16.959 -1.1202  2.6096 -0.8982
  660TIP3    H223472   1.442   4.609  17.032 -1.1545 -1.2484  0.7004
  661TIP3   OH223473   6.372   4.002  15.962 -0.6087 -0.4957 -0.3836
  661TIP3    H123474   6.339   3.983  16.050 -0.2936 -0.4346 -0.2520
  661TIP3    H223475   6.299   4.045  15.918 -0.2689  0.8605  0.3322
  662TIP3   OH223476   2.184   3.789  12.765 -0.0738  0.3082  0.5043
  662TIP3    H123477   2.226   3.816  12.683 -0.2003 -2.8619 -0.7434
  662TIP3    H223478   2.217   3.851  12.830  3.0012  0.7185 -1.2410
  663TIP3   OH223479   5.135   3.759   0.335  0.3393 -0.5441  0.6377
  663TIP3    H123480   5.132   3.694   0.405  0.5443 -1.1043  0.1422
  663TIP3    H223481   5.096   3.714   0.259 -0.4542  0.2584  0.5505
  664TIP3   OH223482   1.498   5.774  14.727  0.3173  0.0808  0.6654
  664TIP3    H123483   1.506   5.865  14.754  1.0405  0.1117  0.3548
  664TIP3    H223484   1.472   5.779  14.634 -1.8288 -0.0251  1.1936
  665TIP3   OH223485   1.254   5.138   2.238  0.3631 -0.1957  0.8148
  665TIP3    H123486   1.187   5.073   2.216  1.6920 -1.2638 -0.3108
  665TIP3    H223487   1.265   5.190   2.159 -0.2984  1.0646  1.5364
  666TIP3   OH223488   2.236   2.745  15.116 -0.5430  0.4865 -0.2877
  666TIP3    H123489   2.186   2.719  15.193 -0.4788 -1.1481 -0.7809
  666TIP3    H223490   2.175   2.737  15.043 -0.5995  2.0103 -0.4556
  667TIP3   OH223491   4.846   4.560  13.210  0.5453  0.3750  0.2916
  667TIP3    H123492   4.912   4.491  13.211  0.8322  0.5677 -1.7813
  667TIP3    H223493   4.767   4.518  13.244  1.3666 -0.2324  1.4923
  668TIP3   OH223494   5.426   2.322  13.804  0.1283 -0.1713 -0.3191
  668TIP3    H123495   5.374   2.357  13.875  0.8289 -0.4903  0.3662
  668TIP3    H223496   5.375   2.341  13.725 -0.2972  0.8472  0.1879
  669TIP3   OH223497   6.405   1.184   5.639  0.3887 -0.3930  0.0496
  669TIP3    H123498   6.492   1.198   5.602  0.2769 -0.0553 -0.0943
  669TIP3    H223499   6.354   1.146   5.568  0.6810 -1.5113  0.4300
  670TIP3   OH223500   2.101   6.771   1.103  0.0420 -0.0726  0.7373
  670TIP3    H123501   2.050   6.843   1.140 -1.6425 -0.9317  0.1992
  670TIP3    H223502   2.036   6.704   1.083  1.0099 -0.2294 -2.4018
  671TIP3   OH223503   4.177   6.151  12.174  0.2906  0.2188  0.3260
  671TIP3    H123504   4.224   6.071  12.198 -0.2697 -0.1882  0.0981
  671TIP3    H223505   4.174   6.202  12.255  0.3124 -0.1650  0.5706
  672TIP3   OH223506   6.078   5.326  14.147  0.0597  0.4943  0.5544
  672TIP3    H123507   6.048   5.247  14.191  0.7468 -0.5313 -0.7474
  672TIP3    H223508   6.095   5.298  14.057  4.4356  1.0480  1.0039
  673TIP3   OH223509   3.631   3.065   5.530  0.1907 -0.2791 -0.1730
  673TIP3    H123510   3.578   3.118   5.590 -0.4969 -1.8607  0.6995
  673TIP3    H223511   3.659   2.990   5.583 -1.2042 -2.2309 -2.0047
  674TIP3   OH223512   2.172   4.088   1.297 -0.1317  0.2820  0.2634
  674TIP3    H123513   2.149   4.002   1.263 -1.2357  0.8033 -0.3486
  674TIP3    H223514   2.089   4.135   1.302  0.5073  1.4499  0.2021
  675TIP3   OH223515   2.640   0.553   2.833  0.5564  0.4596 -1.1326
  675TIP3    H123516   2.706   0.601   2.883 -0.5281  1.2177 -0.3780
  675TIP3    H223517   2.649   0.463   2.863  0.7514  0.6889 -0.4628
  676TIP3   OH223518   1.826   1.137  11.164 -0.4438 -0.3062 -0.0818
  676TIP3    H123519   1.752   1.096  11.120  0.6270 -1.0464 -1.2461
  676TIP3    H223520   1.795   1.225  11.186 -0.9567  0.1786 -2.4945
  677TIP3   OH223521   5.441   0.903  16.378 -0.3926 -0.2709 -0.3340
  677TIP3    H123522   5.471   0.817  16.349  0.0012  0.1339 -1.1695
  677TIP3    H223523   5.464   0.962  16.306 -0.0306  0.6518  0.5131
  678TIP3   OH223524   4.534   5.551   1.715  0.2973 -0.2030  0.1011
  678TIP3    H123525   4.567   5.494   1.645  2.2657  1.4730 -0.4467
  678TIP3    H223526   4.609   5.605   1.739 -0.2243 -0.8363  3.7324
  679TIP3   OH223527   3.723   2.659   5.493 -0.5677 -0.4169  0.0805
  679TIP3    H123528   3.793   2.597   5.471  0.0127  0.0251  0.6245
  679TIP3    H223529   3.643   2.619   5.458  0.1061 -0.3800 -1.5898
  680TIP3   OH223530   0.344   3.110   5.166  0.0613  0.2972 -0.2374
  680TIP3    H123531   0.431   3.072   5.176 -0.3657 -0.2266  2.1508
  680TIP3    H223532   0.301   3.057   5.099  0.9076 -0.7667  0.0369
  681TIP3   OH223533   4.896   1.109   1.018  0.4977 -0.4945  0.2676
  681TIP3    H123534   4.859   1.134   0.933 -1.4763 -2.1310  0.5592
  681TIP3    H223535   4.983   1.150   1.019 -0.2179  1.2604 -1.6509
  682TIP3   OH223536   1.954   2.833  15.745 -0.0258 -1.0679  0.9078
  682TIP3    H123537   1.954   2.828  15.649  0.0064 -0.4422  0.8711
  682TIP3    H223538   2.045   2.846  15.768 -0.2646  0.9698  0.8835
  683TIP3   OH223539   1.862   6.217   5.666 -0.1374  0.1750  1.0401
  683TIP3    H123540   1.853   6.263   5.750  0.7070 -0.3600  1.4484
  683TIP3    H223541   1.943   6.166   5.676 -1.4902 -2.1353  0.9705
  684TIP3   OH223542   2.044   3.567  12.728 -0.1537 -0.0258 -0.2168
  684TIP3    H123543   2.105   3.640  12.722 -0.5722  0.2618 -1.0612
  684TIP3    H223544   2.079   3.513  12.799  0.1548  0.9855  0.4223
  685TIP3   OH223545   4.286   5.789  12.721  0.4818 -0.1406  0.3427
  685TIP3    H123546   4.255   5.790  12.630 -0.5249  2.0572  0.6413
  685TIP3    H223547   4.378   5.813  12.716  0.4689 -0.1862 -0.1080
  686TIP3   OH223548   1.974   2.012  14.291  0.1928 -0.2558  0.2715
  686TIP3    H123549   1.927   1.930  14.305 -2.1225  1.0392  0.4107
  686TIP3    H223550   2.055   2.001  14.341 -0.2905 -2.2358  0.7191
  687TIP3   OH223551   2.305   5.605  15.195  0.7318 -0.2020 -0.1721
  687TIP3    H123552   2.320   5.596  15.289  0.6708 -0.5723 -0.1948
  687TIP3    H223553   2.279   5.696  15.183 -1.8163 -0.7573  0.5362
  688TIP3   OH223554   0.606   4.206  13.898 -0.0105 -0.3493 -0.0470
  688TIP3    H123555   0.520   4.179  13.929 -0.3312  0.1254 -0.5190
  688TIP3    H223556   0.623   4.151  13.822  0.2260 -0.6254  0.1988
  689TIP3   OH223557   3.340   5.049  11.253 -0.4693  0.0370 -0.2334
  689TIP3    H123558   3.434   5.034  11.257 -0.7814 -1.9150  1.1289
  689TIP3    H223559   3.328   5.104  11.175  1.7873  0.5665 -0.2757
  690TIP3   OH223560   0.038   3.948  12.258 -0.5199 -0.4883  0.6527
  690TIP3    H123561   0.019   3.879  12.321 -0.7926 -0.9103  0.1116
  690TIP3    H223562   0.130   3.971  12.274 -0.3306 -1.2116  0.6077
  691TIP3   OH223563   1.391   0.074  10.378 -0.5524  0.1364 -0.0740
  691TIP3    H123564   1.299   0.062  10.353 -0.4678  0.1645 -0.4081
  691TIP3    H223565   1.406   0.007  10.445 -0.9868  0.5440  0.4361
  692TIP3   OH223566   2.402   4.743  11.862 -0.1401 -0.4365  0.0091
  692TIP3    H123567   2.389   4.663  11.811  1.5924  0.5502 -2.1198
  692TIP3    H223568   2.483   4.780  11.828  0.4773  0.9325  2.7232
  693TIP3   OH223569   4.126   5.852   1.400  0.6345  0.2313 -0.3658
  693TIP3    H123570   4.061   5.923   1.402  0.7552  0.5224 -3.0223
  693TIP3    H223571   4.154   5.848   1.309  2.3899 -1.7005  0.1824
  694TIP3   OH223572   3.970   0.986  16.887  0.4129  0.5780 -0.3843
  694TIP3    H123573   3.918   1.013  16.964  0.3838 -0.6866  0.0631
  694TIP3    H223574   3.911   0.929  16.838  0.3982  1.4597 -1.4331
  695TIP3   OH223575   0.570   1.720   1.600  0.1294  0.1300 -0.1687
  695TIP3    H123576   0.530   1.678   1.676 -0.8710  1.5890  0.1511
  695TIP3    H223577   0.515   1.694   1.526 -0.7432  1.1627  0.0913
  696TIP3   OH223578   0.836   5.173  11.432 -0.2131 -0.0438  0.3298
  696TIP3    H123579   0.931   5.178  11.439 -0.0867 -1.7978  0.3815
  696TIP3    H223580   0.804   5.231  11.501  0.7846  1.3813 -0.3600
  697TIP3   OH223581   1.148   1.444  15.520  0.5907 -0.3764  0.1643
  697TIP3    H123582   1.181   1.470  15.606 -2.3962  1.2136  0.9955
  697TIP3    H223583   1.195   1.498  15.458  3.5143 -2.2350  0.5915
  698TIP3   OH223584   1.575   5.694   3.148 -0.3686 -0.0330 -0.4034
  698TIP3    H123585   1.571   5.621   3.087 -0.6671  0.4995 -1.0351
  698TIP3    H223586   1.483   5.717   3.164 -0.2698  0.7911 -0.9447
  699TIP3   OH223587   3.865   0.580  15.841 -0.7641 -0.4064  0.8341
  699TIP3    H123588   3.933   0.600  15.906 -1.5493  0.6219  1.3501
  699TIP3    H223589   3.866   0.655  15.782 -0.7061 -0.9029  0.1982
  700TIP3   OH223590   4.660   0.228  16.700 -0.1053  0.1589 -0.1745
  700TIP3    H123591   4.696   0.261  16.618 -0.2843  1.4858  0.2610
  700TIP3    H223592   4.735   0.199  16.751  0.0117 -0.5986 -0.7679
  701TIP3   OH223593   1.725   3.393  13.308 -0.2116  0.3817  0.5272
  701TIP3    H123594   1.759   3.470  13.354 -0.4223  1.2514 -0.7028
  701TIP3    H223595   1.736   3.321  13.369  0.1158  1.3717  1.6702
  702TIP3   OH223596   0.279   0.123   4.249 -0.3942  0.0526 -0.2519
  702TIP3    H123597   0.274   0.186   4.177 -1.7899 -2.4324 -2.5022
  702TIP3    H223598   0.373   0.106   4.259 -0.2224 -0.4065 -2.3310
  703TIP3   OH223599   6.054   3.000  10.988 -0.0023 -0.3295  0.2517
  703TIP3    H123600   5.997   3.006  10.911 -1.0633 -3.9964  0.5737
  703TIP3    H223601   6.057   3.089  11.023 -2.0675  0.8170 -2.2099
  704TIP3   OH223602   0.650   2.101   1.457 -0.0065 -0.3303  0.0304
  704TIP3    H123603   0.591   2.053   1.399 -0.5727  1.1740 -0.6743
  704TIP3    H223604   0.685   2.172   1.403  0.6114  0.2188  1.1238
  705TIP3   OH223605   2.942   4.214  12.742  0.0367 -0.1023 -0.0906
  705TIP3    H123606   3.023   4.259  12.717 -0.1427 -0.2022 -0.8726
  705TIP3    H223607   2.906   4.182  12.660 -0.7022 -0.2257  0.2725
  706TIP3   OH223608   5.182   4.661   6.562 -0.4534 -0.2644  0.4883
  706TIP3    H123609   5.220   4.627   6.481 -0.6730 -0.1250  0.3249
  706TIP3    H223610   5.247   4.641   6.630 -0.9608 -1.8349  0.5553
  707TIP3   OH223611   5.231   5.177  14.348  0.4068 -0.0996 -0.0101
  707TIP3    H123612   5.256   5.101  14.296 -0.7293 -1.4543  1.3548
  707TIP3    H223613   5.136   5.180  14.344  0.4196  1.2266  0.0203
  708TIP3   OH223614   3.465   2.773   0.002  0.6955 -0.4312  0.2315
  708TIP3    H123615   3.455   2.758   0.096 -0.2315  0.6003  0.3184
  708TIP3    H223616   3.512   2.856  -0.005 -2.1971  1.3254 -0.1394
  709TIP3   OH223617   2.056   5.017  14.535  0.1583 -0.3784  0.0245
  709TIP3    H123618   2.050   5.113  14.542 -1.4728 -0.4207 -0.4485
  709TIP3    H223619   2.129   4.994  14.593 -0.9778  0.9305  2.1047
  710TIP3   OH223620   3.928   3.437   5.985  0.7581  0.0588 -0.4008
  710TIP3    H123621   3.910   3.353   5.944  0.5831 -1.2557  2.1370
  710TIP3    H223622   3.977   3.487   5.919  0.9114 -2.0368 -1.9583
  711TIP3   OH223623   5.052   3.379   2.691  0.0974 -0.2924  0.0736
  711TIP3    H123624   5.088   3.298   2.654  0.6677  0.7748 -1.8371
  711TIP3    H223625   4.960   3.378   2.664  0.1688 -0.1782 -0.1726
  712TIP3   OH223626   0.325   4.101  16.141  0.6359 -0.3307 -0.6246
  712TIP3    H123627   0.343   4.185  16.183  1.1883 -0.2714 -0.9670
  712TIP3    H223628   0.230   4.098  16.133  0.4676 -0.6105  1.1605
  713TIP3   OH223629   0.561   6.034   1.385  0.4507 -0.3060 -0.7700
  713TIP3    H123630   0.632   6.065   1.442  0.2776  0.0681 -0.7545
  713TIP3    H223631   0.604   6.018   1.300  0.6435 -0.5427 -0.6309
  714TIP3   OH223632   2.903   1.390   2.124  0.1576  0.5411 -0.1669
  714TIP3    H123633   2.850   1.343   2.189 -1.4310  0.2647 -1.5992
  714TIP3    H223634   2.909   1.330   2.050  0.9141  1.3283 -0.7641
  715TIP3   OH223635   1.022   1.052   2.003  0.3818 -0.2640 -0.6873
  715TIP3    H123636   1.014   1.033   2.096 -0.1128 -0.7874 -0.8344
  715TIP3    H223637   1.053   1.142   2.000 -1.0729  0.2964 -0.0279
  716TIP3   OH223638   4.261   2.773  15.395 -0.6978  0.0223 -0.4794
  716TIP3    H123639   4.313   2.778  15.314 -0.1652  2.1086 -0.0748
  716TIP3    H223640   4.291   2.848  15.447 -1.5956 -0.8155  1.3292
  717TIP3   OH223641   6.779   1.122   0.622  0.1432 -0.5365  0.7673
  717TIP3    H123642   6.704   1.062   0.619 -1.3320  1.2672 -0.3951
  717TIP3    H223643   6.740   1.208   0.634  2.0769  0.4323  0.4459
  718TIP3   OH223644   0.603   5.603  15.597 -0.0712 -0.3144 -0.0934
  718TIP3    H123645   0.560   5.520  15.620 -0.1554 -0.6721 -1.4364
  718TIP3    H223646   0.690   5.597  15.636 -0.4484 -0.5646  0.7320
  719TIP3   OH223647   5.172   1.348  14.310  0.2445  0.0774  0.2885
  719TIP3    H123648   5.185   1.316  14.399 -2.3597 -0.4288  0.5731
  719TIP3    H223649   5.121   1.428  14.320  3.3549  2.3729 -0.6357
  720TIP3   OH223650   1.769   0.686   1.781 -0.5162 -0.0204  0.5378
  720TIP3    H123651   1.686   0.659   1.743 -0.4888  0.3236  0.2254
  720TIP3    H223652   1.779   0.632   1.860  0.0353 -1.7044 -0.6186
  721TIP3   OH223653   1.211   3.513  15.507  0.1750 -0.1705 -0.6330
  721TIP3    H123654   1.130   3.563  15.494  1.1855  1.4328 -1.1169
  721TIP3    H223655   1.244   3.544  15.591  0.0839 -1.1487 -0.2247
  722TIP3   OH223656   6.655   1.865  14.591 -0.7829  0.1643 -0.3853
  722TIP3    H123657   6.728   1.914  14.553 -1.0182  0.2786 -0.6863
  722TIP3    H223658   6.660   1.778  14.551 -0.9749  0.2557 -0.6048
  723TIP3   OH223659   4.156   6.418   5.067 -0.5751 -0.5557  0.0180
  723TIP3    H123660   4.220   6.439   5.135 -0.3716 -0.6515 -0.1433
  723TIP3    H223661   4.207   6.415   4.986 -0.6870 -1.1566 -0.0372
  724TIP3   OH223662   5.800   4.097  11.825  0.5275 -0.2249 -0.2899
  724TIP3    H123663   5.830   4.140  11.905 -0.1306  0.0390 -0.1771
  724TIP3    H223664   5.793   4.168  11.761 -0.1511 -0.2242 -0.2244
  725TIP3   OH223665   6.205   2.456   0.035  1.0492  0.0740 -0.0158
  725TIP3    H123666   6.180   2.393  -0.032  0.0877  0.8785 -0.4371
  725TIP3    H223667   6.128   2.513   0.045  1.4029  0.3656  1.3088
  726TIP3   OH223668   6.001   3.179  10.460 -0.2831  0.5061 -0.4412
  726TIP3    H123669   6.088   3.144  10.482  0.3977  1.8633 -0.8829
  726TIP3    H223670   5.947   3.101  10.447  1.1637 -0.4102 -1.3198
  727TIP3   OH223671   5.458   4.055  12.220  0.2316 -0.1167  0.1203
  727TIP3    H123672   5.381   4.100  12.254  0.4528  0.9415 -0.7282
  727TIP3    H223673   5.423   3.991  12.158 -0.0207 -0.3477  0.4983
  728TIP3   OH223674   1.310   5.418   2.968  0.1904 -0.2641 -0.0922
  728TIP3    H123675   1.310   5.503   2.925 -1.2139 -0.5105 -0.6384
  728TIP3    H223676   1.231   5.418   3.022  0.0796 -1.2776 -0.2350
  729TIP3   OH223677   3.522   4.191   2.561 -0.1312  0.1257  0.2201
  729TIP3    H123678   3.539   4.107   2.518  1.8324 -0.5870  2.2135
  729TIP3    H223679   3.447   4.228   2.513  0.6546 -1.4817 -2.4342
  730TIP3   OH223680   5.644   2.257   0.616  0.5446  0.1788  0.0888
  730TIP3    H123681   5.680   2.237   0.530  0.1263 -1.0091  0.1600
  730TIP3    H223682   5.580   2.326   0.600  0.6645  0.1537 -0.5132
  731TIP3   OH223683   5.417   3.254   0.596 -0.0982  0.5133 -0.9889
  731TIP3    H123684   5.392   3.169   0.559 -1.2588  0.1601  0.4992
  731TIP3    H223685   5.335   3.302   0.606  0.4026  1.3384 -0.6783
  732TIP3   OH223686   3.044   4.876  11.020 -0.0475  0.1431  0.2037
  732TIP3    H123687   3.023   4.969  11.027  2.0974  0.7499 -0.7353
  732TIP3    H223688   3.057   4.861  10.926  0.0510 -1.0104  0.3812
  733TIP3   OH223689   4.020   5.648   0.538 -0.3652  0.0380 -0.7419
  733TIP3    H123690   4.051   5.604   0.617 -1.1999 -0.7085 -0.8079
  733TIP3    H223691   3.940   5.694   0.565 -0.1892  0.4753 -0.9601
  734TIP3   OH223692   0.697   4.354  15.546  0.3661 -0.1755 -0.1665
  734TIP3    H123693   0.731   4.442  15.532  1.6635 -0.4409  1.1297
  734TIP3    H223694   0.687   4.347  15.641 -2.8986 -0.3180 -0.3927
  735TIP3   OH223695   4.287   4.557  17.205  0.0389  0.9759  0.4669
  735TIP3    H123696   4.356   4.555  17.271  0.2311 -0.8962  0.2615
  735TIP3    H223697   4.207   4.537  17.253  0.0444  0.5083  0.2886
  736TIP3   OH223698   6.466   6.163   2.025  0.2320  0.1411 -0.2050
  736TIP3    H123699   6.536   6.117   1.979 -0.8273 -2.6763  0.7800
  736TIP3    H223700   6.478   6.139   2.117 -1.1583  0.7956  0.1738
  737TIP3   OH223701   0.776   1.365  16.059  0.4564  0.3097 -0.1806
  737TIP3    H123702   0.790   1.359  16.154 -0.7948  1.5093  0.0978
  737TIP3    H223703   0.682   1.352  16.047  0.3965  1.4568 -1.1278
  738TIP3   OH223704   0.430   2.837  16.925 -0.3011  0.0716  0.3722
  738TIP3    H123705   0.421   2.832  17.020  0.1502  1.2366  0.4896
  738TIP3    H223706   0.475   2.920  16.909  0.6625 -0.6366 -0.7939
  739TIP3   OH223707   6.781   3.673   4.743 -0.5247  0.4247 -0.0244
  739TIP3    H123708   6.842   3.636   4.679  0.5464  2.4512 -0.2315
  739TIP3    H223709   6.695   3.659   4.704  0.0038  0.1578 -1.1311
  740TIP3   OH223710   1.691   2.088  13.592 -0.1210 -0.8015 -0.3097
  740TIP3    H123711   1.675   2.009  13.644  2.2456  0.3056  2.4266
  740TIP3    H223712   1.614   2.143  13.608  0.0975 -0.9124  1.2880
  741TIP3   OH223713   0.152   6.214  15.114  0.8437  0.8054 -0.1251
  741TIP3    H123714   0.073   6.185  15.158  0.2727 -0.7221 -2.0200
  741TIP3    H223715   0.165   6.304  15.144  0.6318 -0.1521  3.2250
  742TIP3   OH223716   5.923   4.452  13.268 -0.1320  0.4554  0.0956
  742TIP3    H123717   5.925   4.391  13.342  1.7639 -0.5015 -0.6641
  742TIP3    H223718   5.870   4.408  13.202 -0.8809  0.7944  0.4682
  743TIP3   OH223719   3.838   1.078  14.608 -0.5260 -0.1572 -0.0591
  743TIP3    H123720   3.908   1.105  14.549  0.6303  0.8259  1.6822
  743TIP3    H223721   3.828   0.984  14.592 -0.1800  0.0474 -1.6975
  744TIP3   OH223722   0.843   0.068  12.082  0.4839  0.1697  0.4164
  744TIP3    H123723   0.763   0.055  12.032  0.1807  1.4691  0.5205
  744TIP3    H223724   0.823   0.141  12.141  0.9040 -1.1210  2.2729
  745TIP3   OH223725   0.647   4.991  11.518  0.9259  0.4849  0.1339
  745TIP3    H123726   0.721   5.035  11.478  0.5557  0.5110 -0.5359
  745TIP3    H223727   0.609   5.056  11.578  1.9996  0.1549  1.2179
  746TIP3   OH223728   3.208   2.915  14.760  0.0466 -0.3767 -0.6890
  746TIP3    H123729   3.212   2.828  14.721 -0.3578  0.4996 -2.7878
  746TIP3    H223730   3.181   2.899  14.851  0.6249 -2.4537 -0.8306
  747TIP3   OH223731   6.650   4.794   6.548  0.4715  0.3210 -0.3357
  747TIP3    H123732   6.681   4.765   6.462  0.1806 -0.4917 -0.1815
  747TIP3    H223733   6.569   4.744   6.562  0.3611  0.6622  0.2834
  748TIP3   OH223734   1.423   5.529   4.984  0.0528  0.1750  0.5841
  748TIP3    H123735   1.351   5.590   5.003  0.8386  0.7431  1.9357
  748TIP3    H223736   1.391   5.476   4.911 -0.4848  2.5294 -1.0032
  749TIP3   OH223737   2.259   4.360   0.357 -0.5865 -0.2720  0.3984
  749TIP3    H123738   2.223   4.387   0.441 -0.7814 -1.5786  0.7605
  749TIP3    H223739   2.345   4.323   0.378 -0.7043 -0.7496  0.0501
  750TIP3   OH223740   6.255   1.148   2.636  0.8843 -0.0820 -0.6776
  750TIP3    H123741   6.176   1.202   2.644  0.1935 -0.8483 -2.0395
  750TIP3    H223742   6.326   1.212   2.626  0.2898  0.6086 -0.6081
  751TIP3   OH223743   3.863   5.146  12.857 -0.5690  0.3718  0.4348
  751TIP3    H123744   3.836   5.173  12.769 -0.7339 -0.7501  0.1108
  751TIP3    H223745   3.884   5.053  12.847  5.1527  1.3161  0.2316
  752TIP3   OH223746   6.527   0.273   4.547 -0.7937 -0.1559  0.4308
  752TIP3    H123747   6.511   0.348   4.489  0.5270 -0.0135  0.2254
  752TIP3    H223748   6.505   0.196   4.495  0.5767 -0.0417 -0.3634
  753TIP3   OH223749   6.662   1.222   3.650  0.4405 -0.1991 -0.2491
  753TIP3    H123750   6.689   1.281   3.719  0.6066  1.0692 -1.3638
  753TIP3    H223751   6.693   1.263   3.569 -0.4082 -1.2480 -1.1464
  754TIP3   OH223752   4.510   1.424   0.362 -0.0841  0.3796 -0.6309
  754TIP3    H123753   4.569   1.351   0.383  0.4122  1.0959  0.5931
  754TIP3    H223754   4.427   1.383   0.339  0.7775 -0.6404 -2.0358
  755TIP3   OH223755   4.191   5.413  12.070 -0.3332 -0.0953  0.5844
  755TIP3    H123756   4.197   5.485  12.007 -1.2278 -0.3021  0.2480
  755TIP3    H223757   4.279   5.407  12.108 -0.0388  0.6549  0.0484
  756TIP3   OH223758   2.192   0.181   0.340  0.5041 -0.9738 -0.0527
  756TIP3    H123759   2.203   0.264   0.294  0.5299 -0.4138  0.9477
  756TIP3    H223760   2.218   0.199   0.430 -0.7287 -1.7237  0.4821
  757TIP3   OH223761   2.506   6.754   6.437  0.1175  0.0285 -0.2680
  757TIP3    H123762   2.462   6.817   6.494 -0.9571 -0.7897 -0.1666
  757TIP3    H223763   2.446   6.680   6.431  0.9024 -0.5668 -1.2089
  758TIP3   OH223764   4.906   1.300   3.360  0.1122 -0.0356 -0.0902
  758TIP3    H123765   4.981   1.252   3.326  1.2678 -0.4346  2.6999
  758TIP3    H223766   4.915   1.388   3.325  2.5358  0.2080  0.9507
  759TIP3   OH223767   2.187   3.624   5.204 -0.4531  0.0748  0.0602
  759TIP3    H123768   2.210   3.532   5.211 -0.2710 -0.0543 -1.7487
  759TIP3    H223769   2.237   3.667   5.274  1.1476 -0.9200 -0.4087
  760TIP3   OH223770   3.454   3.234   1.357 -0.3138 -0.3071 -0.7144
  760TIP3    H123771   3.483   3.159   1.305 -1.7425 -0.0909 -1.8910
  760TIP3    H223772   3.424   3.194   1.440  0.4965 -0.8322 -0.6615
  761TIP3   OH223773   4.735   5.288  14.510 -0.2499  0.4909  0.4598
  761TIP3    H123774   4.736   5.371  14.557  1.2979  0.8029 -0.0782
  761TIP3    H223775   4.713   5.223  14.578  0.4574  1.1012  1.2944
  762TIP3   OH223776   0.057   5.703   4.071 -0.1721  0.1533 -0.1641
  762TIP3    H123777   0.095   5.685   4.157 -0.6632 -0.4224 -0.0537
  762TIP3    H223778   0.110   5.652   4.010 -1.3985 -1.5829  0.1188
  763TIP3   OH223779   4.072   5.857   2.504 -0.3524  0.0034 -0.0697
  763TIP3    H123780   4.056   5.890   2.415 -0.1688  1.3187  0.3658
  763TIP3    H223781   4.167   5.846   2.509 -0.1626  1.6842  0.5311
  764TIP3   OH223782   1.675   6.202   3.065 -0.2757 -0.1894  0.1754
  764TIP3    H123783   1.618   6.126   3.062 -1.2025  0.5099 -0.5058
  764TIP3    H223784   1.741   6.180   3.131  0.4123 -2.2004 -1.0936
  765TIP3   OH223785   3.662   2.667  17.145  0.2196  0.7854  0.4088
  765TIP3    H123786   3.649   2.762  17.138 -1.7698  0.5357 -0.0536
  765TIP3    H223787   3.610   2.641  17.221 -1.1332 -0.1795 -0.7725
  766TIP3   OH223788   3.017   0.450  17.020 -0.6933 -0.0166  0.0281
  766TIP3    H123789   3.026   0.356  17.001 -1.1447  0.2100 -1.3935
  766TIP3    H223790   3.044   0.493  16.939  1.9503  1.2160  1.4323
  767TIP3   OH223791   4.830   1.293   1.295 -0.8619 -0.4546 -0.2996
  767TIP3    H123792   4.822   1.231   1.222  0.0704 -1.0915  0.1177
  767TIP3    H223793   4.817   1.240   1.373  0.3884 -0.2337  0.0812
  768TIP3   OH223794   5.928   4.478  13.610 -0.0906  0.2766  0.3140
  768TIP3    H123795   6.022   4.471  13.628  0.3808  3.4816 -0.2988
  768TIP3    H223796   5.920   4.552  13.550 -3.0221  0.1095  0.3422
  769TIP3   OH223797   4.529   3.794   1.328  0.1183  0.4130 -0.0034
  769TIP3    H123798   4.585   3.872   1.331 -0.2537  0.6555  0.7083
  769TIP3    H223799   4.581   3.730   1.280  0.4934  1.0432 -0.4575
  770TIP3   OH223800   4.431   5.741   4.494 -0.0911 -0.5774 -0.1472
  770TIP3    H123801   4.373   5.744   4.418  1.1443  0.8466 -1.1136
  770TIP3    H223802   4.422   5.653   4.529 -1.1648 -1.0739 -1.5893
  771TIP3   OH223803   6.150   0.990  15.177 -0.3310 -0.5777 -0.3948
  771TIP3    H123804   6.136   1.047  15.253  1.0447 -0.6188 -0.0803
  771TIP3    H223805   6.240   1.009  15.150 -0.9242 -0.3043 -2.2511
  772TIP3   OH223806   4.525   1.882  10.785 -0.0747 -0.3082 -0.2038
  772TIP3    H123807   4.590   1.868  10.716  0.1050 -1.3883  0.1630
  772TIP3    H223808   4.569   1.940  10.848  0.9997 -1.9033  0.5986
  773TIP3   OH223809   4.885   5.400   3.717 -0.0850 -0.0744  0.2843
  773TIP3    H123810   4.853   5.330   3.773  1.2119 -0.6890  0.2842
  773TIP3    H223811   4.897   5.359   3.631 -0.4933  0.4620 -0.0403
  774TIP3   OH223812   1.093   2.680   4.218  0.7038  0.0146 -0.4388
  774TIP3    H123813   1.172   2.703   4.170  0.0219  0.5057 -1.3664
  774TIP3    H223814   1.052   2.611   4.165  0.5807 -0.3487  0.1128
  775TIP3   OH223815   5.091   0.319   4.663  0.0101 -0.1607 -0.0725
  775TIP3    H123816   5.140   0.343   4.584  1.9680 -1.1925  0.7467
  775TIP3    H223817   5.003   0.300   4.632  0.2298  1.2646 -1.7219
  776TIP3   OH223818   0.551   6.018  16.909 -0.2184  0.6842  0.0807
  776TIP3    H123819   0.519   6.097  16.867 -0.1864  0.2471 -0.7894
  776TIP3    H223820   0.625   6.047  16.962 -0.3978  1.2800  0.0114
  777TIP3   OH223821   4.056   1.727   1.390  0.0739  0.0474 -0.0419
  777TIP3    H123822   4.048   1.802   1.332 -1.2713  1.2018  1.5420
  777TIP3    H223823   4.148   1.725   1.415 -0.0769  1.9617  0.8421
  778TIP3   OH223824   3.544   5.792   6.706 -1.1344 -0.0679 -0.1051
  778TIP3    H123825   3.604   5.801   6.631 -0.3570 -0.2613  0.4809
  778TIP3    H223826   3.489   5.716   6.684  0.4745 -1.4466  0.4220
  779TIP3   OH223827   2.050   4.460  16.236  0.1491  0.2013  0.8821
  779TIP3    H123828   1.975   4.432  16.289 -2.1219  1.0611 -1.6546
  779TIP3    H223829   2.082   4.379  16.197 -2.7685  0.2140 -1.9258
  780TIP3   OH223830   2.486   5.702  16.477 -0.6449  0.1430 -0.1239
  780TIP3    H123831   2.528   5.650  16.408  0.8433  0.8918  0.1715
  780TIP3    H223832   2.508   5.656  16.558  0.7933  1.2177  0.1536
  781TIP3   OH223833   2.864   0.775  14.437  0.0953  0.7537 -0.4704
  781TIP3    H123834   2.769   0.772  14.437  0.1063 -1.2930  0.4434
  781TIP3    H223835   2.885   0.856  14.484 -1.1918  0.9011 -0.1014
  782TIP3   OH223836   2.415   1.617   1.483 -0.0312  0.0472 -0.4613
  782TIP3    H123837   2.335   1.668   1.471 -0.7701 -1.0580 -0.4144
  782TIP3    H223838   2.462   1.626   1.400 -0.3214  0.5106 -0.5757
  783TIP3   OH223839   2.345   4.332   4.625 -0.0883 -0.3569 -0.1700
  783TIP3    H123840   2.356   4.240   4.650  0.7412 -0.3149 -0.3231
  783TIP3    H223841   2.402   4.342   4.549  1.2223  0.7183  0.9047
  784TIP3   OH223842   1.961   5.171   3.980  0.1231  0.7606  0.0275
  784TIP3    H123843   2.004   5.256   3.990 -1.1174  1.3967  0.1609
  784TIP3    H223844   1.932   5.170   3.888  0.4922  0.2999 -0.0871
  785TIP3   OH223845   0.769   4.001   0.254  0.1458  0.2410 -0.4158
  785TIP3    H123846   0.722   4.008   0.337 -0.5964 -3.2040 -0.3947
  785TIP3    H223847   0.839   3.938   0.271  1.1393  0.8768 -1.9495
  786TIP3   OH223848   2.433   3.263   0.016  0.3930  0.4808  0.1152
  786TIP3    H123849   2.359   3.253  -0.044 -1.2087  2.0024  1.7296
  786TIP3    H223850   2.477   3.178   0.013 -0.5398  0.0024 -1.9811
  787TIP3   OH223851   4.131   4.108   2.216 -0.4109  0.3725  0.4218
  787TIP3    H123852   4.109   4.195   2.183 -2.7212 -0.2600  0.1560
  787TIP3    H223853   4.102   4.048   2.148  2.2168 -0.6219  0.0637
  788TIP3   OH223854   5.530   4.253   2.635  0.1547 -0.1090 -0.2564
  788TIP3    H123855   5.442   4.288   2.648  0.1727  0.4327 -1.4816
  788TIP3    H223856   5.561   4.231   2.723 -0.8752  0.4863  0.2620
  789TIP3   OH223857   6.129   4.233  16.720 -0.3835  0.0935  0.2224
  789TIP3    H123858   6.039   4.202  16.715 -0.3536  0.1638 -1.3288
  789TIP3    H223859   6.122   4.328  16.726 -0.4126  0.1302 -0.3606
  790TIP3   OH223860   5.796   5.603  15.189  0.1094 -0.5635  0.2435
  790TIP3    H123861   5.877   5.653  15.195  1.0239 -1.3268 -3.5776
  790TIP3    H223862   5.728   5.666  15.212  1.5810  0.5267  1.9688
  791TIP3   OH223863   3.094   4.693   4.534  0.6637  0.1970 -0.1369
  791TIP3    H123864   3.078   4.785   4.514 -0.6108  0.4769  1.8911
  791TIP3    H223865   3.030   4.645   4.480  0.1644  0.6233  0.0712
  792TIP3   OH223866   6.502   4.243   5.842  0.1047  0.2119  0.1746
  792TIP3    H123867   6.421   4.192   5.845  0.8519 -1.0054  0.2317
  792TIP3    H223868   6.567   4.189   5.887  1.3988  0.3358 -1.4397
  793TIP3   OH223869   1.783   3.655   0.375  0.2248 -0.6647 -0.4175
  793TIP3    H123870   1.811   3.744   0.356  0.1017  0.0287  2.2558
  793TIP3    H223871   1.862   3.610   0.404 -0.0051 -0.9442 -0.2074
  794TIP3   OH223872   3.677   3.817  14.887  0.1400  0.1704  0.0483
  794TIP3    H123873   3.603   3.774  14.932  0.6919 -1.1117 -0.2254
  794TIP3    H223874   3.664   3.796  14.795 -0.5130  2.0806 -0.3385
  795TIP3   OH223875   3.751   5.544  11.781  0.8176  0.0961 -0.0156
  795TIP3    H123876   3.796   5.622  11.750  0.4566  0.4970  0.4663
  795TIP3    H223877   3.664   5.548  11.742  0.6396  0.1780  0.3857
  796TIP3   OH223878   4.437   0.390   4.463 -0.0109 -0.1470  0.1757
  796TIP3    H123879   4.467   0.312   4.510 -0.4391  0.2757  1.1706
  796TIP3    H223880   4.389   0.355   4.388 -0.2137 -0.8456  0.6198
  797TIP3   OH223881   2.365   2.528  10.733 -0.0507  0.1877  0.1751
  797TIP3    H123882   2.408   2.507  10.650 -4.0724 -1.1668 -1.8429
  797TIP3    H223883   2.414   2.479  10.799  2.4703  0.2281 -1.5707
  798TIP3   OH223884   2.537   4.546  13.438 -0.0643  0.3827 -0.2186
  798TIP3    H123885   2.604   4.587  13.382 -1.1301 -0.7219 -2.4236
  798TIP3    H223886   2.561   4.453  13.439 -0.8385  0.1850  0.0460
  799TIP3   OH223887   4.606   2.660  11.025  0.1609  0.2834  0.1174
  799TIP3    H123888   4.589   2.625  11.113  1.6478  1.1435  0.7893
  799TIP3    H223889   4.522   2.653  10.980 -0.2975 -1.4883  1.1279
  800TIP3   OH223890   0.006   4.130  14.710  0.1135 -0.1409  0.5817
  800TIP3    H123891  -0.035   4.215  14.728  1.6547  0.5312  1.0211
  800TIP3    H223892  -0.038   4.069  14.770 -0.0295  0.6215  1.2604
  801TIP3   OH223893   0.640   3.041   1.831  0.4674  0.3259 -0.0994
  801TIP3    H123894   0.685   3.117   1.869  1.0949 -0.1769  0.1907
  801TIP3    H223895   0.586   3.007   1.903  0.1141  0.5578 -0.2576
  802TIP3   OH223896   4.030   5.135   1.537  0.6105 -0.3380  0.0437
  802TIP3    H123897   4.025   5.183   1.454  0.7835  1.7054  1.1634
  802TIP3    H223898   3.963   5.174   1.592  3.7479  1.9832  2.5958
  803TIP3   OH223899   3.672   6.006   3.963  0.6339 -0.6113 -0.5072
  803TIP3    H123900   3.751   6.030   4.012 -0.4663 -0.0981  1.0976
  803TIP3    H223901   3.691   6.031   3.873  1.5921  1.3051  0.1764
  804TIP3   OH223902   1.464   3.125   5.038  0.2628 -0.3110 -0.5024
  804TIP3    H123903   1.546   3.125   4.988  1.7809 -1.2386  1.8363
  804TIP3    H223904   1.407   3.066   4.989  1.0426  0.1732 -2.0748
  805TIP3   OH223905   6.629   4.817   0.286 -0.0685  0.3366  0.5714
  805TIP3    H123906   6.546   4.773   0.269 -0.4164  1.7974 -2.0091
  805TIP3    H223907   6.693   4.746   0.297 -1.2397 -0.8028  0.1806
  806TIP3   OH223908   0.167   2.385   3.352 -0.2177 -0.0858  0.5222
  806TIP3    H123909   0.208   2.471   3.362  0.9953 -0.6367  0.4966
  806TIP3    H223910   0.076   2.399   3.375 -0.1157  1.2830  0.1700
  807TIP3   OH223911   2.897   5.230   1.064 -0.0032 -0.2266 -0.2781
  807TIP3    H123912   2.854   5.230   1.149  0.1719 -1.4536 -0.1794
  807TIP3    H223913   2.884   5.319   1.031  0.8663  0.6221  1.4975
  808TIP3   OH223914   2.996   0.832  14.195  0.1701  0.4388  0.1327
  808TIP3    H123915   2.965   0.826  14.285 -1.4680  0.8037 -0.3683
  808TIP3    H223916   3.077   0.782  14.194 -0.3187 -0.4422  1.5782
  809TIP3   OH223917   5.061   3.095  11.787 -0.0144  0.3648  0.0757
  809TIP3    H123918   5.067   3.173  11.731  0.9186  1.0286  1.0424
  809TIP3    H223919   5.115   3.117  11.863  1.1942 -1.6528 -0.1153
  810TIP3   OH223920   1.916   0.502   1.931  0.4461 -0.1480 -0.0588
  810TIP3    H123921   1.913   0.562   2.005 -0.2793 -1.0293  0.6597
  810TIP3    H223922   1.982   0.538   1.873  1.0013  0.5935  1.0047
  811TIP3   OH223923   1.993   1.427   4.468  0.2402  0.0593 -0.2299
  811TIP3    H123924   1.948   1.348   4.498 -0.9239  0.4499 -0.8698
  811TIP3    H223925   2.082   1.419   4.502  0.0458 -1.3561 -0.0083
  812TIP3   OH223926   6.529   2.402   1.413 -0.5292  0.5614 -0.5154
  812TIP3    H123927   6.554   2.326   1.466  2.1897 -0.3013 -2.7554
  812TIP3    H223928   6.558   2.477   1.464  1.6006 -0.2151 -0.4740
  813TIP3   OH223929   5.700   0.635   0.069 -0.3926 -0.0408 -0.0511
  813TIP3    H123930   5.660   0.722   0.073  1.6359  0.9220  2.4355
  813TIP3    H223931   5.764   0.641  -0.002  0.5425  0.9432  0.8401
  814TIP3   OH223932   5.750   4.990  13.567 -0.5872 -0.0295  0.1925
  814TIP3    H123933   5.786   4.953  13.487 -0.9703  1.7346 -0.8360
  814TIP3    H223934   5.740   4.914  13.626  0.2111 -1.2685 -1.2007
  815TIP3   OH223935   1.674   2.682   0.942 -0.4859 -0.4772 -0.1377
  815TIP3    H123936   1.768   2.690   0.925 -0.7979  1.6483 -1.1582
  815TIP3    H223937   1.639   2.643   0.862 -0.6434 -0.1268 -0.2365
  816TIP3   OH223938   5.925   0.140  15.500 -0.0314  0.1944 -0.0297
  816TIP3    H123939   5.887   0.105  15.419 -0.3375  0.6418 -0.0875
  816TIP3    H223940   5.929   0.235  15.485 -1.2871  0.4401  0.9570
  817TIP3   OH223941   3.467   1.111  15.605 -0.3162 -0.2167 -1.0600
  817TIP3    H123942   3.543   1.133  15.659 -0.9269  0.4900 -0.4436
  817TIP3    H223943   3.501   1.055  15.536  1.0025  1.0951 -1.5380
  818TIP3   OH223944   4.857   2.313   2.933 -0.4212  0.5514  0.0885
  818TIP3    H123945   4.930   2.368   2.904  0.5002 -1.4357 -1.5904
  818TIP3    H223946   4.780   2.350   2.888  0.0750  0.8817 -0.5053
  819TIP3   OH223947   3.032   2.642   0.699 -0.4898 -0.3455  0.1180
  819TIP3    H123948   3.092   2.715   0.688 -2.1976  1.0276 -0.5975
  819TIP3    H223949   3.042   2.590   0.619 -0.7204  0.2693 -0.3234
  820TIP3   OH223950   5.884   5.227  13.364 -0.2978  0.0143 -0.1489
  820TIP3    H123951   5.915   5.294  13.424 -0.4662  0.3141 -0.3939
  820TIP3    H223952   5.961   5.206  13.310  0.2209 -1.1991  1.0105
  821TIP3   OH223953   1.546   6.152   4.011  0.0529 -0.4770 -0.0520
  821TIP3    H123954   1.615   6.218   4.010  0.9866 -1.3330  1.7340
  821TIP3    H223955   1.488   6.178   4.083  0.3229 -1.4469  0.5447
  822TIP3   OH223956   3.386   4.344  13.676 -0.3271 -0.1668  0.0166
  822TIP3    H123957   3.394   4.437  13.654  1.4229  0.3479  2.4666
  822TIP3    H223958   3.309   4.339  13.731 -1.0860 -0.4042 -1.0352
  823TIP3   OH223959   2.656   4.215   4.634 -0.0519  0.4229 -0.2167
  823TIP3    H123960   2.648   4.275   4.560  3.5588  0.7630 -0.5113
  823TIP3    H223961   2.618   4.262   4.707  2.3306  3.0920 -0.5098
  824TIP3   OH223962   5.293   4.647  16.480 -0.2067  0.4260  0.3744
  824TIP3    H123963   5.238   4.682  16.410 -0.4819 -0.7864 -0.0279
  824TIP3    H223964   5.244   4.573  16.515 -0.0195  0.9298  1.7872
  825TIP3   OH223965   1.451   5.206  14.710 -0.5748 -0.1826  0.0733
  825TIP3    H123966   1.417   5.254  14.634 -1.1285 -0.7101 -0.0128
  825TIP3    H223967   1.391   5.228  14.781  1.9159  3.2990  1.4125
  826TIP3   OH223968   4.749   0.411  13.558 -0.7377 -0.2135  0.3332
  826TIP3    H123969   4.681   0.478  13.551 -0.1973  0.2529 -0.7134
  826TIP3    H223970   4.719   0.353  13.628 -1.6049  0.6754  0.7179
  827TIP3   OH223971   1.877   2.041  16.164 -0.7205  0.2513  0.0621
  827TIP3    H123972   1.909   2.109  16.104  0.9300  0.0795  0.6727
  827TIP3    H223973   1.888   1.959  16.115 -0.9853  0.2620 -0.0146
  828TIP3   OH223974   0.324   2.444   3.682  0.0695 -0.3496 -0.7688
  828TIP3    H123975   0.231   2.460   3.665 -0.3427 -0.9499  0.6923
  828TIP3    H223976   0.360   2.416   3.598 -0.4730  2.3477 -1.9857
  829TIP3   OH223977   5.063   4.884   2.983 -0.2606 -0.5404 -0.6265
  829TIP3    H123978   4.997   4.893   3.052 -0.1529  0.6240 -0.6655
  829TIP3    H223979   5.097   4.795   2.994 -1.6043 -1.0444 -0.4047
  830TIP3   OH223980   3.569   1.305   4.867 -0.5281 -0.2705  0.0758
  830TIP3    H123981   3.585   1.340   4.779  0.4135 -0.8261  0.0147
  830TIP3    H223982   3.656   1.281   4.899 -0.8192  0.2528  1.3045
  831TIP3   OH223983   5.947   4.005   5.520  0.6568 -0.1911  0.0265
  831TIP3    H123984   6.021   3.946   5.535  1.7959  1.0930 -0.3082
  831TIP3    H223985   5.967   4.082   5.573 -1.1272 -0.3205  0.9725
  832TIP3   OH223986   2.270   2.426  11.009  0.2175  0.5572 -0.1502
  832TIP3    H123987   2.356   2.466  10.993  1.0717 -0.6834  1.1031
  832TIP3    H223988   2.284   2.333  10.993 -1.5355  0.5720 -2.2242
  833TIP3   OH223989   4.106   4.626  12.216 -0.3736 -0.3418 -0.1753
  833TIP3    H123990   4.090   4.615  12.310 -1.6013 -1.5929 -0.4746
  833TIP3    H223991   4.171   4.696  12.210  1.0750 -1.4199  1.6830
  834TIP3   OH223992   0.808   1.387  14.197  0.1353  0.1717  0.3918
  834TIP3    H123993   0.717   1.366  14.220  0.6831 -0.0965  2.4459
  834TIP3    H223994   0.801   1.466  14.144 -1.3367 -0.3231 -0.2292
  835TIP3   OH223995   3.473   1.119  15.946  0.1884  0.0949  0.3663
  835TIP3    H123996   3.444   1.206  15.919 -1.1589 -0.3133  0.4240
  835TIP3    H223997   3.563   1.132  15.977 -0.6279  1.8407  2.2331
  836TIP3   OH223998   5.928   3.323  10.724  0.3592 -0.2338 -0.1207
  836TIP3    H123999   5.918   3.229  10.714 -0.0805 -0.3720  1.3794
  836TIP3    H224000   5.971   3.352  10.643 -0.7463 -1.4983 -1.1918
  837TIP3   OH224001   0.336   3.813  12.359  0.1289  0.5590  0.3095
  837TIP3    H124002   0.332   3.815  12.455 -0.3043  1.4549  0.2848
  837TIP3    H224003   0.420   3.854  12.338  0.4529 -0.0879  0.3078
  838TIP3   OH224004   0.148   0.533   2.121 -0.1039  0.5279 -0.0610
  838TIP3    H124005   0.239   0.524   2.094  0.4852  0.8771  1.7018
  838TIP3    H224006   0.121   0.444   2.144  0.2343  0.6276  0.7342
  839TIP3   OH224007   3.201   1.370   6.230 -0.0525  0.4141  0.5623
  839TIP3    H124008   3.125   1.312   6.227 -0.4734  0.8972  1.4241
  839TIP3    H224009   3.274   1.313   6.254  0.3874 -0.5198 -2.5495
  840TIP3   OH224010   1.193   5.062   4.879  0.4337 -0.0118  1.1320
  840TIP3    H124011   1.141   5.097   4.806 -0.9830 -0.9567  1.6531
  840TIP3    H224012   1.153   4.977   4.898 -0.3079  0.8982  4.0888
  841TIP3   OH224013   6.422   1.426  12.983 -0.0249 -0.1720  0.4656
  841TIP3    H124014   6.374   1.473  13.052  0.4380  0.9657  0.0449
  841TIP3    H224015   6.457   1.496  12.927  1.1022 -1.0129  0.0897
  842TIP3   OH224016   2.538   1.829  15.324 -0.0127  0.2727  0.2553
  842TIP3    H124017   2.611   1.777  15.292 -0.0144 -0.6076  1.6190
  842TIP3    H224018   2.510   1.881  15.248  1.1366 -0.3846 -0.6398
  843TIP3   OH224019   1.632   2.697   3.030  0.3789 -0.2074  0.2324
  843TIP3    H124020   1.619   2.683   2.936  1.0131 -0.4823  0.1774
  843TIP3    H224021   1.719   2.736   3.036 -0.5262  1.8856  0.5454
  844TIP3   OH224022   1.562   6.068   5.431  0.2787 -0.6097 -0.1348
  844TIP3    H124023   1.483   6.068   5.485  0.6016 -2.1632  0.4122
  844TIP3    H224024   1.599   6.156   5.442 -0.7730 -0.2308  0.4965
  845TIP3   OH224025   3.332   3.336   3.448 -0.3965 -0.1596 -0.1716
  845TIP3    H124026   3.324   3.372   3.536 -0.3264  0.1176 -0.2773
  845TIP3    H224027   3.272   3.388   3.394  0.0666  0.1266 -0.4197
  846TIP3   OH224028   3.793   3.031  14.300 -0.5497 -0.2068  0.1908
  846TIP3    H124029   3.752   3.110  14.266 -2.2129 -1.2337 -0.3259
  846TIP3    H224030   3.770   3.031  14.393  0.5752  0.5612  0.4841
  847TIP3   OH224031   6.314   0.101  16.977  0.0828  0.5537  0.3740
  847TIP3    H124032   6.281   0.125  16.891  2.6334  1.3879 -0.4665
  847TIP3    H224033   6.324   0.185  17.023 -1.6611  0.0924  1.7149
  848TIP3   OH224034   6.689   0.743  16.318  0.2150 -0.3238 -0.4139
  848TIP3    H124035   6.718   0.741  16.409 -1.0652  0.0991  0.0356
  848TIP3    H224036   6.607   0.793  16.321 -0.0155 -0.5959 -1.7470
  849TIP3   OH224037   0.038   4.976  15.757 -0.7683  0.0907 -0.5062
  849TIP3    H124038   0.041   4.999  15.664  0.0247  0.4715 -0.3881
  849TIP3    H224039   0.126   4.994  15.790 -0.9489 -0.3604  0.2469
  850TIP3   OH224040   2.217   3.359   4.827 -0.3395  0.2862 -0.4531
  850TIP3    H124041   2.216   3.437   4.772  0.4902  0.1524 -0.6674
  850TIP3    H224042   2.144   3.372   4.888  0.7102  1.9343  0.5113
  851TIP3   OH224043   5.466   3.351   3.295  0.1391  0.0025 -0.1982
  851TIP3    H124044   5.514   3.433   3.309 -0.3153  0.3103 -0.4053
  851TIP3    H224045   5.520   3.284   3.336  0.1954  0.4994  0.5585
  852TIP3   OH224046   2.181   1.689  15.784  0.7890  0.1041  0.3406
  852TIP3    H124047   2.103   1.673  15.730  0.4614 -0.1537  0.8806
  852TIP3    H224048   2.254   1.687  15.722  0.4745 -0.7345 -0.0167
  853TIP3   OH224049   1.832   5.875   1.863  0.3779  0.1229  0.3736
  853TIP3    H124050   1.829   5.967   1.835  2.5047 -0.0934 -0.7763
  853TIP3    H224051   1.868   5.878   1.952  2.1577  0.3769 -0.3027
  854TIP3   OH224052   2.163   0.865  16.867  0.4567  0.0908 -0.4254
  854TIP3    H124053   2.167   0.837  16.776 -1.2230 -3.3671  0.4180
  854TIP3    H224054   2.244   0.833  16.906 -1.1687 -3.5923  0.3808
  855TIP3   OH224055   0.243   4.674  15.916 -0.0120  0.0540  0.0948
  855TIP3    H124056   0.267   4.766  15.909  2.0780 -0.4422 -0.0366
  855TIP3    H224057   0.181   4.659  15.844  0.7595  1.0402 -0.8029
  856TIP3   OH224058   1.956   6.717  16.173  0.2246 -0.2878  0.2095
  856TIP3    H124059   1.996   6.736  16.258  2.0152  0.6713 -0.7839
  856TIP3    H224060   1.880   6.775  16.170  0.7631  0.4855  0.7339
  857TIP3   OH224061   4.059   5.702   5.229  0.0790 -0.1936 -0.0747
  857TIP3    H124062   3.971   5.727   5.201 -0.2217 -0.0920  0.9099
  857TIP3    H224063   4.090   5.777   5.281  0.7114 -0.2667 -0.3288
  858TIP3   OH224064   5.083   2.667   3.810 -0.1753 -0.2187 -0.6106
  858TIP3    H124065   5.178   2.662   3.797 -0.3673 -1.6602 -1.7244
  858TIP3    H224066   5.053   2.732   3.747  0.0149 -0.0688 -0.5477
  859TIP3   OH224067   0.566   4.366   0.348 -0.2733 -0.3450  0.0936
  859TIP3    H124068   0.644   4.396   0.394  0.5603 -0.6150 -1.0718
  859TIP3    H224069   0.547   4.280   0.386 -0.5522  0.1166  1.0068
  860TIP3   OH224070   1.698   5.533  11.488  0.2123 -0.0789 -0.4511
  860TIP3    H124071   1.781   5.579  11.501 -0.0432  0.1631  0.3801
  860TIP3    H224072   1.660   5.574  11.411  0.3397  0.5834 -0.1677
  861TIP3   OH224073   1.264   4.514  13.769 -0.0589  0.2039 -0.7129
  861TIP3    H124074   1.295   4.507  13.859  1.2112  1.2015 -1.0416
  861TIP3    H224075   1.288   4.602  13.741 -0.5351 -0.0378 -1.9920
  862TIP3   OH224076   6.335   0.582  13.138  0.3609  0.0661 -0.6211
  862TIP3    H124077   6.256   0.637  13.143  0.2702 -0.1337  3.3519
  862TIP3    H224078   6.398   0.635  13.088 -0.9148  2.1256 -0.1745
  863TIP3   OH224079   3.644   3.772   2.062 -0.0067  0.0757  0.2707
  863TIP3    H124080   3.677   3.861   2.049  1.5828 -0.3651  0.9170
  863TIP3    H224081   3.615   3.770   2.153  0.0364 -0.0867  0.2813
  864TIP3   OH224082   1.444   5.719  14.456 -0.7796  0.4440 -0.4187
  864TIP3    H124083   1.464   5.779  14.385 -0.2057  0.8266  0.0615
  864TIP3    H224084   1.507   5.647  14.445  0.6843  1.4423  0.8358
  865TIP3   OH224085   3.182   1.884  16.834 -0.8381  0.1721 -0.2543
  865TIP3    H124086   3.113   1.940  16.870 -0.8682  1.3549 -2.0065
  865TIP3    H224087   3.156   1.870  16.742 -0.8380 -2.7857  0.0934
  866TIP3   OH224088   6.362   3.882   2.490  0.2196 -0.0874 -0.2476
  866TIP3    H124089   6.291   3.891   2.554  0.7028 -1.9216  0.6392
  866TIP3    H224090   6.416   3.811   2.524  2.0905  0.7557 -1.2879
  867TIP3   OH224091   3.630   4.322  15.807  0.8093 -0.0780 -0.2101
  867TIP3    H124092   3.569   4.363  15.746  0.3538 -0.4739 -0.0293
  867TIP3    H224093   3.712   4.315  15.758  0.0303 -1.9016 -1.4049
  868TIP3   OH224094   4.808   6.157  13.415  0.0586 -0.7140  0.3831
  868TIP3    H124095   4.846   6.144  13.502  0.3466 -0.8424  0.2401
  868TIP3    H224096   4.881   6.140  13.355  1.6329  4.8650  0.1493
  869TIP3   OH224097   3.738   6.276  11.271 -0.1391 -0.4716  0.2163
  869TIP3    H124098   3.796   6.240  11.204 -0.6494 -1.2874  0.1947
  869TIP3    H224099   3.667   6.318  11.222  0.6017  0.8499  0.2382
  870TIP3   OH224100   0.217   5.940   5.374  0.5088  0.6048  0.2913
  870TIP3    H124101   0.176   6.017   5.414 -0.2863  0.2758  0.1327
  870TIP3    H224102   0.144   5.893   5.333  1.0971  0.1520 -0.2453
  871TIP3   OH224103   0.496   2.833   1.342  0.2189 -0.3173  0.7942
  871TIP3    H124104   0.514   2.892   1.415  0.3971 -1.0710  1.3624
  871TIP3    H224105   0.402   2.844   1.325 -0.2777 -1.6249  2.4669
  872TIP3   OH224106   3.145   6.640  13.212  0.2240 -0.0066  0.2552
  872TIP3    H124107   3.095   6.624  13.132 -0.5972 -0.5843  0.8655
  872TIP3    H224108   3.186   6.555  13.232  1.1137  0.3487  0.0030
  873TIP3   OH224109   3.611   0.644   2.094 -0.0526  0.1441  0.7253
  873TIP3    H124110   3.520   0.653   2.068 -0.1269 -1.3265  0.3926
  873TIP3    H224111   3.615   0.682   2.182 -0.9159  0.4804  0.6276
  874TIP3   OH224112   2.208   5.529  11.714  0.1124 -0.0639 -0.0776
  874TIP3    H124113   2.298   5.547  11.687  0.2446  0.1183  0.4775
  874TIP3    H224114   2.201   5.434  11.715  0.4401 -0.0832  0.3407
  875TIP3   OH224115   2.897   3.505   2.751  0.0990  0.5045 -0.1527
  875TIP3    H124116   2.827   3.566   2.772 -1.2801 -1.2659  0.7152
  875TIP3    H224117   2.865   3.420   2.783  1.8318 -0.7109 -1.4487
  876TIP3   OH224118   5.258   2.443  13.315 -0.7536 -0.0912 -0.0814
  876TIP3    H124119   5.313   2.377  13.275  0.2496  0.5134  0.2646
  876TIP3    H224120   5.260   2.422  13.409 -0.3238  0.4894  0.0467
  877TIP3   OH224121   1.508   2.848   4.390 -0.2918  0.3492  0.4672
  877TIP3    H124122   1.576   2.916   4.395 -0.1468  0.2400  0.0352
  877TIP3    H224123   1.467   2.862   4.304 -1.3170  0.8866  1.0186
  878TIP3   OH224124   1.112   5.468  17.292 -0.2592 -0.2612 -0.3627
  878TIP3    H124125   1.172   5.514  17.234  0.2972 -0.5785 -0.0509
  878TIP3    H224126   1.146   5.379  17.295  0.1794 -0.0637  1.0559
  879TIP3   OH224127   0.837   6.761   0.793  0.7867  0.3803  0.2316
  879TIP3    H124128   0.843   6.666   0.798  0.4794  0.3524  0.1221
  879TIP3    H224129   0.920   6.788   0.754  0.7102  0.1213 -0.1206
  880TIP3   OH224130   2.494   1.527   5.059  0.9082 -0.3400 -0.2033
  880TIP3    H124131   2.463   1.440   5.037  0.7549  0.1978 -2.3865
  880TIP3    H224132   2.568   1.542   5.000 -0.0512  1.5738 -1.0274
  881TIP3   OH224133   0.431   2.892   0.124  0.1280 -0.2537  0.4328
  881TIP3    H124134   0.456   2.816   0.073  0.2072  1.3280 -2.0712
  881TIP3    H224135   0.346   2.869   0.163 -1.2104 -0.7435 -2.5049
  882TIP3   OH224136   0.851   3.396   0.563  0.1187  0.1669 -0.5145
  882TIP3    H124137   0.822   3.472   0.512  0.0889 -0.5855 -1.6388
  882TIP3    H224138   0.790   3.393   0.638  0.2449  1.3551 -0.3445
  883TIP3   OH224139   6.237   4.498  15.640  0.0972  0.1389 -0.1562
  883TIP3    H124140   6.258   4.554  15.715  0.3292 -0.3372  0.1358
  883TIP3    H224141   6.141   4.492  15.641  0.0547  0.7343 -0.3403
  884TIP3   OH224142   3.039   3.560   1.724  0.0244  0.5823 -0.0483
  884TIP3    H124143   2.993   3.537   1.643 -0.7125  0.2681  0.4524
  884TIP3    H224144   3.081   3.644   1.704  0.2299  0.2946 -0.8979
  885TIP3   OH224145   1.970   1.997   1.002  0.0601 -0.1664  0.2628
  885TIP3    H124146   1.966   1.995   1.098 -0.4599  1.3904  0.3029
  885TIP3    H224147   2.062   1.982   0.982  0.5233  1.2577  1.1138
  886TIP3   OH224148   3.615   4.494   5.162 -0.7166  0.5691  0.4451
  886TIP3    H124149   3.613   4.531   5.073 -2.6607  1.6330  0.8809
  886TIP3    H224150   3.681   4.545   5.208  1.6147 -1.1245 -0.7681
  887TIP3   OH224151   2.711   6.499   5.640 -0.3455 -0.4044  0.2305
  887TIP3    H124152   2.633   6.463   5.599  0.1338  1.7359 -2.9620
  887TIP3    H224153   2.711   6.592   5.616  1.7508  0.3297  2.5175
  888TIP3   OH224154   5.518   2.866   5.367 -0.4006 -0.1351 -0.5502
  888TIP3    H124155   5.562   2.920   5.433 -0.1300 -0.5877 -0.3545
  888TIP3    H224156   5.588   2.813   5.329 -1.0735 -2.7823  1.5753
  889TIP3   OH224157   1.342   4.230   0.896  0.5488  0.0399 -0.4536
  889TIP3    H124158   1.246   4.232   0.893  0.5461  2.9250 -2.2118
  889TIP3    H224159   1.369   4.243   0.805  2.6068  0.1942  0.1377
  890TIP3   OH224160   0.956   3.478  14.297 -0.6513  0.4667 -0.1562
  890TIP3    H124161   1.004   3.405  14.337  1.4753  0.6714 -2.1194
  890TIP3    H224162   1.000   3.556  14.329 -1.1538  0.7697 -0.1965
  891TIP3   OH224163   5.119   0.758  12.289 -0.5787  0.0571  0.5201
  891TIP3    H124164   5.204   0.801  12.294 -0.5007 -0.0390  0.0530
  891TIP3    H224165   5.122   0.692  12.359 -0.3966  0.2772  0.7208
  892TIP3   OH224166   4.776   5.736   3.602 -0.0616  0.5596 -0.6796
  892TIP3    H124167   4.729   5.815   3.577 -1.6940 -0.0126  0.3438
  892TIP3    H224168   4.802   5.751   3.693 -0.0535  0.0914 -0.5976
  893TIP3   OH224169   2.296   2.361  13.329 -0.2115  0.5371 -0.4068
  893TIP3    H124170   2.344   2.443  13.328 -0.8774  0.9453 -2.1752
  893TIP3    H224171   2.230   2.371  13.261 -2.9271  0.0374  1.9867
  894TIP3   OH224172   1.265   2.791  15.113  0.4623 -0.5427 -0.1265
  894TIP3    H124173   1.214   2.815  15.190  0.4859 -0.7223 -0.0545
  894TIP3    H224174   1.207   2.736  15.061  0.5163 -0.5908 -0.1373
  895TIP3   OH224175   0.709   0.141  13.054  0.1049 -0.0657 -0.1343
  895TIP3    H124176   0.730   0.195  12.977  0.7070  0.1406  0.1669
  895TIP3    H224177   0.668   0.063  13.017  1.2720 -0.4126 -0.7566
  896TIP3   OH224178   0.232   5.625   5.976  0.0780  0.2835  0.6571
  896TIP3    H124179   0.290   5.671   6.037  0.5307  0.1605  0.3226
  896TIP3    H224180   0.224   5.537   6.013 -0.1940  0.4098  0.9014
  897TIP3   OH224181   0.249   0.623  14.331  0.1277  0.3374  0.5493
  897TIP3    H124182   0.244   0.707  14.286 -0.1692  1.2429  2.1798
  897TIP3    H224183   0.343   0.604  14.335  0.3141  1.3203  1.3926
  898TIP3   OH224184   1.945   2.610  11.561  0.0572  0.4421  0.1402
  898TIP3    H124185   1.866   2.618  11.614  0.0913 -1.3688  0.5350
  898TIP3    H224186   1.921   2.548  11.492  1.4941 -1.2760  1.0884
  899TIP3   OH224187   4.712   2.956   3.914  0.2705 -0.3500  0.3440
  899TIP3    H124188   4.655   3.010   3.969  0.1526  1.5914 -1.5397
  899TIP3    H224189   4.789   3.011   3.899  0.7053 -1.2059 -0.6257
  900TIP3   OH224190   6.273   3.561   3.357 -0.1955 -0.2869  0.2886
  900TIP3    H124191   6.208   3.498   3.327 -1.0573  0.2918  0.9014
  900TIP3    H224192   6.288   3.618   3.282 -0.0103 -0.7384 -0.0163
  901TIP3   OH224193   5.274   0.863   1.312  0.5221 -0.0665  0.1174
  901TIP3    H124194   5.234   0.829   1.392 -2.9872 -0.2147 -1.4908
  901TIP3    H224195   5.245   0.954   1.307  0.9619  0.0373 -0.8039
  902TIP3   OH224196   0.117   5.321   5.430 -0.2876 -0.8426  0.2269
  902TIP3    H124197   0.098   5.412   5.453  0.9817 -0.0946 -1.4613
  902TIP3    H224198   0.080   5.270   5.502  0.6144  1.1074  2.1997
  903TIP3   OH224199   0.750   3.598  12.163 -0.8112  0.3605 -0.1215
  903TIP3    H124200   0.799   3.538  12.107 -1.7133  0.2898 -0.8597
  903TIP3    H224201   0.808   3.615  12.236  0.4876  0.6424 -1.1884
  904TIP3   OH224202   5.685   5.233   5.042 -0.4676 -0.0600  0.5421
  904TIP3    H124203   5.687   5.154   5.096  0.4345  0.5259  1.3980
  904TIP3    H224204   5.736   5.297   5.091 -0.5458  0.8308 -0.4981
  905TIP3   OH224205   6.041   0.444  15.488 -0.1181  0.4958 -0.1578
  905TIP3    H124206   5.988   0.514  15.526 -1.0967 -1.0215  1.3936
  905TIP3    H224207   6.031   0.455  15.394 -2.4751  0.8371  0.0781
  906TIP3   OH224208   2.997   2.072  11.589 -0.3148 -0.1669 -0.3403
  906TIP3    H124209   2.942   2.136  11.635  0.9069 -0.4121  1.5643
  906TIP3    H224210   2.934   2.018  11.541 -1.5285  1.2004 -0.3668
  907TIP3   OH224211   5.208   1.819  13.452  0.1279  0.8038 -0.2408
  907TIP3    H124212   5.274   1.823  13.521 -0.8699  1.3352  0.6977
  907TIP3    H224213   5.259   1.816  13.371  1.3212 -0.1286  0.5112
  908TIP3   OH224214   0.359   1.475  14.584 -0.0621  0.3358  0.2465
  908TIP3    H124215   0.425   1.521  14.637  0.9624 -2.6668  1.8156
  908TIP3    H224216   0.276   1.507  14.618  0.5913 -0.4630  2.8538
  909TIP3   OH224217   5.597   1.026   4.112 -0.0766  0.2533 -0.4897
  909TIP3    H124218   5.628   1.099   4.166 -2.3445  0.1911  1.0305
  909TIP3    H224219   5.664   1.017   4.045  0.8009  3.0867 -0.1669
  910TIP3   OH224220   5.769   2.449   1.083  0.2533 -0.7509 -0.2570
  910TIP3    H124221   5.850   2.468   1.131  1.3111 -0.1539 -2.2102
  910TIP3    H224222   5.787   2.366   1.038 -0.5678 -1.0621 -0.0299
  911TIP3   OH224223   0.479   2.266   1.180 -0.2924 -0.1312 -0.2425
  911TIP3    H124224   0.564   2.273   1.223  0.5816  1.3644 -2.0963
  911TIP3    H224225   0.483   2.182   1.134  0.0222 -0.2365 -0.0306
  912TIP3   OH224226   5.921   6.823   0.214 -0.3925  0.4577  0.1837
  912TIP3    H124227   5.838   6.857   0.179 -0.7589 -0.0242  0.5651
  912TIP3    H224228   5.926   6.859   0.302 -0.6610 -0.2685  0.4978
  913TIP3   OH224229   4.259   1.657   5.752  0.5782  0.0334  0.2703
  913TIP3    H124230   4.196   1.590   5.727 -0.6000  0.8299  1.0350
  913TIP3    H224231   4.306   1.620   5.827 -1.0627  0.5736  1.6332
  914TIP3   OH224232   5.575   5.584  12.742  0.2191  0.0838  0.1286
  914TIP3    H124233   5.598   5.675  12.760  1.0776 -0.2411  0.7655
  914TIP3    H224234   5.481   5.585  12.729  0.1821  1.0280  0.4060
  915TIP3   OH224235   0.982   4.235  15.218 -0.3050 -0.2127 -0.0892
  915TIP3    H124236   0.898   4.274  15.194  0.2495  1.0544 -0.0337
  915TIP3    H224237   0.988   4.247  15.313  1.3251  2.6633 -0.4450
  916TIP3   OH224238   3.040   3.368  11.717  0.0777  0.0478 -0.1545
  916TIP3    H124239   2.999   3.377  11.803 -1.9285  2.4842 -1.2398
  916TIP3    H224240   3.024   3.277  11.692  0.3227 -0.5821  1.8198
  917TIP3   OH224241   4.945   1.097   1.750 -0.4954 -0.5166  0.3671
  917TIP3    H124242   4.968   1.111   1.841  0.6513 -0.9739  0.1724
  917TIP3    H224243   5.029   1.078   1.707 -1.2056 -2.0391 -0.4453
  918TIP3   OH224244   2.009   5.224   6.423 -0.2226 -0.1450 -0.7710
  918TIP3    H124245   1.951   5.259   6.356 -0.8153 -0.3244 -0.3570
  918TIP3    H224246   2.057   5.300   6.456 -1.4695  0.2851  0.0972
  919TIP3   OH224247   6.119   5.723   3.295 -0.6627 -0.7477 -0.9118
  919TIP3    H124248   6.198   5.675   3.318 -0.5720 -0.6216 -0.9545
  919TIP3    H224249   6.052   5.692   3.356  0.5524  2.5672  2.5159
  920TIP3   OH224250   2.224   1.631  11.618 -0.1789 -0.3884  0.0277
  920TIP3    H124251   2.313   1.664  11.601 -0.0859 -1.3201 -1.4651
  920TIP3    H224252   2.176   1.652  11.538 -1.1973 -0.2898  0.6593
  921TIP3   OH224253   3.594   6.827  16.309  0.0628  0.1072 -0.0789
  921TIP3    H124254   3.539   6.890  16.262 -1.6226 -0.7585  0.6452
  921TIP3    H224255   3.655   6.882  16.358  1.2977  1.0521 -2.5033
  922TIP3   OH224256   1.516   1.441  16.237  0.6020 -0.0941  0.3643
  922TIP3    H124257   1.508   1.479  16.325  1.9765 -0.5030  0.6961
  922TIP3    H224258   1.441   1.382  16.230 -1.0695  1.9503  0.1761
  923TIP3   OH224259   4.019   2.247   4.881 -0.0670  0.3514  0.6360
  923TIP3    H124260   4.038   2.208   4.796  0.2798  1.4773  0.1847
  923TIP3    H224261   3.946   2.195   4.915 -1.9035  1.4036 -1.4437
  924TIP3   OH224262   5.280   4.775   0.661 -0.5692 -0.0424  0.7688
  924TIP3    H124263   5.347   4.728   0.611 -0.2686  0.0462  1.0902
  924TIP3    H224264   5.327   4.814   0.734 -0.9143  0.3052  0.8067
  925TIP3   OH224265   0.777   0.368   0.098  0.6061  0.5257 -0.2894
  925TIP3    H124266   0.721   0.326   0.032  1.3012 -0.7703 -0.0835
  925TIP3    H224267   0.850   0.404   0.049  0.8153  0.0919 -0.2991
  926TIP3   OH224268   6.682   1.151   1.732  0.0399  0.5335  0.1728
  926TIP3    H124269   6.675   1.124   1.640  1.1697  0.1039  0.1993
  926TIP3    H224270   6.668   1.070   1.782 -0.3491  0.7222  0.3716
  927TIP3   OH224271   5.565   5.870  12.281 -0.2153 -0.3034  0.2632
  927TIP3    H124272   5.557   5.778  12.308  1.1532  0.1759  2.6068
  927TIP3    H224273   5.633   5.870  12.215 -1.6535 -1.1799 -1.2997
  928TIP3   OH224274   0.261   6.495  12.523 -0.2851 -0.4024  0.4894
  928TIP3    H124275   0.184   6.484  12.578 -1.2073 -1.7637 -0.9941
  928TIP3    H224276   0.264   6.589  12.504 -0.2632  0.0136  2.3102
  929TIP3   OH224277   4.302   6.324  14.905  0.0812  0.5061 -0.1600
  929TIP3    H124278   4.264   6.412  14.906  1.0533  0.9366  0.0378
  929TIP3    H224279   4.347   6.319  14.821  1.4456  0.8354  0.5320
  930TIP3   OH224280   6.664   2.880  16.028  0.0507 -0.7114  0.8229
  930TIP3    H124281   6.647   2.971  16.054  0.0955  0.2528 -2.1349
  930TIP3    H224282   6.754   2.864  16.056  0.0330  0.1235  1.4158
  931TIP3   OH224283   6.394   5.680   4.863 -0.0087  0.0473 -0.2254
  931TIP3    H124284   6.362   5.739   4.796  1.0788  0.3684 -0.4869
  931TIP3    H224285   6.329   5.610   4.867 -0.4243  0.3668 -1.1405
  932TIP3   OH224286   4.222   3.518  13.514 -0.2732 -0.5998 -0.5397
  932TIP3    H124287   4.317   3.500  13.514  0.2361  1.8120  0.1930
  932TIP3    H224288   4.203   3.542  13.424  0.2016  0.6592 -0.3170
  933TIP3   OH224289   4.036   1.011   0.753 -0.1367  0.0200  0.2100
  933TIP3    H124290   4.024   0.933   0.807  3.3486 -0.3884  0.5948
  933TIP3    H224291   4.025   1.084   0.814 -2.7588 -0.1028 -0.0195
  934TIP3   OH224292   1.669   1.878  16.238  0.2709  0.2487  0.4060
  934TIP3    H124293   1.686   1.855  16.329  1.4178  1.1790  0.4492
  934TIP3    H224294   1.719   1.958  16.224  0.8916 -0.4084 -1.3261
  935TIP3   OH224295   2.876   5.192  10.471 -0.1234  0.0946  0.6896
  935TIP3    H124296   2.940   5.221  10.407  0.2710 -1.8656  0.1422
  935TIP3    H224297   2.797   5.173  10.420 -0.3657  0.1717  1.0288
  936TIP3   OH224298   0.715   4.946   4.681 -0.2294  0.0045  0.5211
  936TIP3    H124299   0.737   4.865   4.634 -0.6056 -0.3653  0.9810
  936TIP3    H224300   0.629   4.970   4.648 -0.9898 -0.8540  1.7973
  937TIP3   OH224301   3.507   6.788   6.235 -0.5087  0.5497  0.5729
  937TIP3    H124302   3.589   6.791   6.186 -0.5641 -0.1203  0.4275
  937TIP3    H224303   3.517   6.712   6.293 -0.2472  1.5994  1.9553
  938TIP3   OH224304   1.479   0.111   5.694  0.0865 -0.0968 -0.1227
  938TIP3    H124305   1.495   0.020   5.718 -1.6727 -0.8015 -1.4468
  938TIP3    H224306   1.417   0.143   5.761  0.9455  0.2513  0.5246
  939TIP3   OH224307   4.232   2.760  17.090  0.3826  0.1496  0.1560
  939TIP3    H124308   4.292   2.829  17.116  0.6678  0.9237 -2.3216
  939TIP3    H224309   4.144   2.797  17.102  0.5130  0.5686 -0.1794
  940TIP3   OH224310   1.155   5.585   2.353  0.1682 -0.0047 -0.2835
  940TIP3    H124311   1.247   5.591   2.376  0.7541 -0.3718 -2.3326
  940TIP3    H224312   1.124   5.507   2.398  1.0992 -0.3845 -0.2806
  941TIP3   OH224313   0.821   5.711   4.524  0.2878  0.0625 -0.7750
  941TIP3    H124314   0.885   5.707   4.595 -0.4145  1.7045  0.0061
  941TIP3    H224315   0.851   5.784   4.469  0.2236 -0.4964 -1.5661
  942TIP3   OH224316   2.732   2.215   3.028  0.0571 -0.1361 -0.7617
  942TIP3    H124317   2.731   2.134   3.079 -2.0224  0.1201 -0.3149
  942TIP3    H224318   2.680   2.194   2.950 -1.1868  0.9778 -0.2601
  943TIP3   OH224319   5.342   0.839  14.726 -0.4674 -0.1024 -0.2560
  943TIP3    H124320   5.337   0.933  14.743 -0.2424 -0.2149  0.4770
  943TIP3    H224321   5.252   0.807  14.732 -0.5345  0.0489 -0.4422
  944TIP3   OH224322   5.549   2.116  13.975 -0.1223  0.0666 -0.2320
  944TIP3    H124323   5.469   2.160  14.004  0.1186 -0.8019  1.9239
  944TIP3    H224324   5.526   2.079  13.890 -1.6662  0.7257 -0.1383
  945TIP3   OH224325   2.625   2.327   1.575  0.4409 -0.2115  0.0218
  945TIP3    H124326   2.646   2.317   1.668  1.0662 -0.4123 -0.1393
  945TIP3    H224327   2.682   2.265   1.530  1.2091  0.9348 -0.6297
  946TIP3   OH224328   4.437   0.833   2.703 -0.0673  0.3139  0.3173
  946TIP3    H124329   4.391   0.801   2.780 -0.9808 -0.6674 -0.6071
  946TIP3    H224330   4.431   0.929   2.710  0.5868  0.2679  1.8655
  947TIP3   OH224331   3.878   6.023   0.422  0.3084  0.3579 -0.1012
  947TIP3    H124332   3.794   6.017   0.375  0.3822  0.9651 -0.3289
  947TIP3    H224333   3.894   6.117   0.428  2.6121  0.3221 -3.0602
  948TIP3   OH224334   4.575   3.123  17.096 -0.2032  0.5368 -0.2120
  948TIP3    H124335   4.633   3.050  17.075 -0.8987  0.5619 -2.5835
  948TIP3    H224336   4.632   3.189  17.136  1.4397  0.4622 -2.2092
  949TIP3   OH224337   2.877   4.390  12.514  0.0607  0.8881  0.3975
  949TIP3    H124338   2.891   4.460  12.578 -2.1422  0.3475  1.5590
  949TIP3    H224339   2.791   4.354  12.536  0.1700 -0.7385 -1.5607
  950TIP3   OH224340   2.253   3.883  16.505  0.9248  0.7886 -0.9972
  950TIP3    H124341   2.343   3.860  16.526  0.2108 -0.0316  1.4499
  950TIP3    H224342   2.204   3.870  16.586 -1.3297  1.7226 -2.0897
  951TIP3   OH224343   4.943   4.903   5.166 -0.2092 -0.6422  0.9019
  951TIP3    H124344   4.881   4.843   5.208 -0.4845  0.0188  1.4675
  951TIP3    H224345   5.027   4.885   5.208 -0.5728  0.3440  2.1340
  952TIP3   OH224346   1.203   2.027  13.103 -0.0476  0.3345 -0.8856
  952TIP3    H124347   1.256   2.081  13.163  0.6606 -1.1384 -0.1300
  952TIP3    H224348   1.252   2.028  13.021  0.5692 -0.0889 -0.5300
  953TIP3   OH224349   0.639   5.613   0.178  0.1008  0.5392 -0.5329
  953TIP3    H124350   0.627   5.529   0.223  0.8131  0.6121 -0.1961
  953TIP3    H224351   0.658   5.676   0.248 -1.3592  1.1901 -0.6841
  954TIP3   OH224352   6.409   5.725  16.386  0.0311  0.8671 -0.0696
  954TIP3    H124353   6.482   5.760  16.437  1.0507 -1.1875 -0.0199
  954TIP3    H224354   6.428   5.752  16.296 -1.2060  3.5763  0.3910
  955TIP3   OH224355   4.837   6.010   1.760 -0.0579  0.0908 -0.4840
  955TIP3    H124356   4.903   6.009   1.829  0.5187  2.0677 -0.9399
  955TIP3    H224357   4.808   5.919   1.753  0.4789 -0.3034  1.7462
  956TIP3   OH224358   5.207   6.138   4.033  0.0105  0.3946 -0.6323
  956TIP3    H124359   5.218   6.180   4.118  0.1622 -0.4297 -0.2280
  956TIP3    H224360   5.217   6.208   3.970 -0.5769  1.1125  0.0470
  957TIP3   OH224361   0.468   3.952  12.008 -0.2462 -0.0868 -0.3382
  957TIP3    H124362   0.468   4.039  12.049  1.8660 -1.8023  3.8918
  957TIP3    H224363   0.523   3.963  11.930  1.9654  1.9732  1.3604
  958TIP3   OH224364   5.625   2.630  11.620  0.1733  0.1036 -0.1458
  958TIP3    H124365   5.601   2.684  11.695  1.3332  1.4976 -0.7412
  958TIP3    H224366   5.697   2.576  11.652 -1.8244 -2.1864  0.8518
  959TIP3   OH224367   4.412   4.333  15.302 -0.1687 -0.9419  0.0988
  959TIP3    H124368   4.398   4.357  15.393  2.9775  0.6829  0.2845
  959TIP3    H224369   4.450   4.245  15.306  0.8186 -0.5079  0.4556
  960TIP3   OH224370   5.452   3.114   3.954 -0.3380  0.4777  0.0642
  960TIP3    H124371   5.428   3.026   3.927 -0.1614  0.1320  0.9945
  960TIP3    H224372   5.503   3.102   4.034 -2.8423  1.5260  1.9625
  961TIP3   OH224373   4.308   6.312   2.693 -0.0856 -0.5773  0.1498
  961TIP3    H124374   4.399   6.333   2.674 -0.2767  2.2128  1.7472
  961TIP3    H224375   4.271   6.287   2.609  1.1175  2.6661 -1.5485
  962TIP3   OH224376   0.365   5.188  10.941 -0.5073  0.0671 -0.3247
  962TIP3    H124377   0.360   5.143  10.857 -2.0891  0.3625 -0.4063
  962TIP3    H224378   0.325   5.274  10.926 -0.8872  0.1015  0.7446
  963TIP3   OH224379   5.925   5.678   4.838  0.2523  0.5098  0.6450
  963TIP3    H124380   5.919   5.763   4.797 -2.3491  0.3955  0.6573
  963TIP3    H224381   5.886   5.690   4.925 -0.1596 -0.6721  0.6459
  964TIP3   OH224382   2.862   3.238   0.209 -0.1214  0.2225  0.1456
  964TIP3    H124383   2.929   3.172   0.228 -2.3539 -3.2603 -2.7376
  964TIP3    H224384   2.783   3.205   0.252 -0.7572  2.5722  0.9182
  965TIP3   OH224385   4.414   4.749  12.612 -0.0731  0.4195 -0.1361
  965TIP3    H124386   4.342   4.808  12.589  1.5929  2.0521 -1.5203
  965TIP3    H224387   4.424   4.760  12.707 -1.9373 -0.2873  0.2006
  966TIP3   OH224388   5.192   4.201   0.881 -0.0373 -0.0395  0.1305
  966TIP3    H124389   5.122   4.255   0.919  0.6896  2.0839 -1.3404
  966TIP3    H224390   5.256   4.264   0.849 -0.0732 -1.5962 -3.5797
  967TIP3   OH224391   1.004   6.361  17.290  0.5719 -0.2900 -0.7674
  967TIP3    H124392   1.009   6.452  17.260  2.6689  0.0349  0.4078
  967TIP3    H224393   1.076   6.317  17.246 -0.8491 -1.6157 -1.8819
  968TIP3   OH224394   1.962   4.065  12.917 -0.2266 -0.3024  0.5453
  968TIP3    H124395   1.932   3.993  12.861  1.5664 -0.6902  0.0052
  968TIP3    H224396   1.983   4.135  12.856 -1.1427  0.4036  1.0095
  969TIP3   OH224397   3.304   3.824   6.089 -0.2754  0.2886 -0.0029
  969TIP3    H124398   3.227   3.845   6.036 -1.0841  1.4598  1.5612
  969TIP3    H224399   3.377   3.862   6.040 -1.0915  2.0873  0.0928
  970TIP3   OH224400   2.918   6.241   1.971  0.5039 -0.1342  0.0481
  970TIP3    H124401   2.958   6.190   2.042 -0.0345 -1.2734 -0.4405
  970TIP3    H224402   2.826   6.217   1.974  0.2169  0.8965 -0.1475
  971TIP3   OH224403   4.960   6.267  14.361 -0.0807  0.3357 -0.0903
  971TIP3    H124404   4.882   6.316  14.387  0.9230  1.2262  1.4148
  971TIP3    H224405   5.026   6.334  14.345  1.0490 -0.4627  1.0781
  972TIP3   OH224406   6.138   5.981  16.852 -0.1121 -0.3154  0.5068
  972TIP3    H124407   6.074   5.947  16.790 -2.0107  1.3615  1.4394
  972TIP3    H224408   6.115   6.073  16.862  2.3726  0.3107  1.0283
  973TIP3   OH224409   4.889   4.610  16.378 -0.1599 -0.0714 -0.3086
  973TIP3    H124410   4.957   4.675  16.359  0.3198 -0.0520  1.3491
  973TIP3    H224411   4.937   4.528  16.392 -0.7248 -0.7221 -1.9013
  974TIP3   OH224412   5.845   6.070   3.955 -0.5677  0.3047  0.2935
  974TIP3    H124413   5.889   6.154   3.946 -0.2746 -0.0619 -2.5071
  974TIP3    H224414   5.753   6.088   3.935 -0.5416  0.0098 -0.1140
  975TIP3   OH224415   5.117   0.462   0.668 -0.3989 -0.3093  0.2676
  975TIP3    H124416   5.140   0.507   0.586  1.3057  1.4434  1.6058
  975TIP3    H224417   5.037   0.505   0.697 -0.9487 -0.8616 -0.3828
  976TIP3   OH224418   3.949   6.171   4.753  0.1299  0.1063 -0.2288
  976TIP3    H124419   3.903   6.253   4.770 -0.8230 -0.2795 -0.8405
  976TIP3    H224420   3.971   6.137   4.839  1.0806  1.2957  0.0191
  977TIP3   OH224421   4.929   6.634  15.578  0.4912 -0.0592 -0.3684
  977TIP3    H124422   4.865   6.695  15.541 -0.3089 -0.9610 -0.5077
  977TIP3    H224423   4.942   6.568  15.510  0.0572 -0.9688  0.4090
  978TIP3   OH224424   3.740   0.211  12.887 -0.0376 -0.4235  0.3039
  978TIP3    H124425   3.813   0.259  12.927  0.3742 -0.6573 -0.1550
  978TIP3    H224426   3.670   0.214  12.953  0.0410  0.6507  0.3584
  979TIP3   OH224427   0.322   5.938   2.436  0.1854 -0.3381  0.1370
  979TIP3    H124428   0.327   5.875   2.508 -1.1900 -0.7928 -0.1290
  979TIP3    H224429   0.319   5.884   2.357  2.5483  0.1647 -0.3824
  980TIP3   OH224430   3.769   3.982  16.080  0.3754  0.4312  0.2908
  980TIP3    H124431   3.762   3.979  16.176 -1.5101  0.2937  0.1767
  980TIP3    H224432   3.696   4.036  16.052  0.6413  0.1027 -1.1241
  981TIP3   OH224433   1.677   0.155  10.385 -0.3822  0.9201  0.3096
  981TIP3    H124434   1.618   0.091  10.343 -0.5720  2.5641 -2.1118
  981TIP3    H224435   1.656   0.148  10.478 -2.0199 -0.9155 -0.1104
  982TIP3   OH224436   5.011   0.935   2.198  0.5450  0.8297 -0.2217
  982TIP3    H124437   5.105   0.951   2.198  0.3621  2.0590 -0.7725
  982TIP3    H224438   4.981   0.967   2.283  0.6205  0.4709 -0.0605
  983TIP3   OH224439   3.728   1.196  16.019  0.4783  0.2551 -0.6106
  983TIP3    H124440   3.745   1.200  16.113  0.3379 -0.6277 -0.5351
  983TIP3    H224441   3.814   1.197  15.978  0.6419 -1.2042 -0.3706
  984TIP3   OH224442   4.901   0.705  11.947  0.6109  0.0825  0.5454
  984TIP3    H124443   4.859   0.655  12.017  0.0846 -0.2993 -0.0332
  984TIP3    H224444   4.858   0.791  11.948 -0.9628 -0.6272 -0.7009
  985TIP3   OH224445   2.686   5.005   5.289 -0.3061  0.5427  0.0807
  985TIP3    H124446   2.601   4.999   5.247 -0.6445 -1.5228  0.8938
  985TIP3    H224447   2.679   4.945   5.364  2.2151 -0.6574 -0.5216
  986TIP3   OH224448   6.594   5.342   3.607 -0.3618 -0.8006  0.0029
  986TIP3    H124449   6.596   5.413   3.671 -1.3125 -0.5416 -0.2380
  986TIP3    H224450   6.656   5.277   3.640 -0.6184 -0.5321  1.0216
  987TIP3   OH224451   5.220   5.548   4.573 -0.0553  0.0153 -0.1958
  987TIP3    H124452   5.284   5.555   4.644 -0.4256  1.4866  0.0124
  987TIP3    H224453   5.178   5.463   4.587  0.5029 -0.1074  0.8140
  988TIP3   OH224454   6.335   3.388  11.586 -0.6398  0.1745  0.7356
  988TIP3    H124455   6.321   3.301  11.548  0.9478  0.6692 -1.2411
  988TIP3    H224456   6.426   3.386  11.616 -1.4821  0.2393  3.5047
  989TIP3   OH224457   3.189   1.179  11.874 -0.4019  0.3485  0.0209
  989TIP3    H124458   3.153   1.267  11.866  1.2106  1.0329 -0.2643
  989TIP3    H224459   3.273   1.184  11.828 -0.3593 -1.3905 -0.1414
  990TIP3   OH224460   1.314   4.625   0.560  0.6508 -0.6150  0.4749
  990TIP3    H124461   1.311   4.689   0.489 -0.1637  1.5549  2.3375
  990TIP3    H224462   1.405   4.627   0.591  0.8905 -1.2189 -0.1486
  991TIP3   OH224463   4.816   5.357   1.255  0.0899 -0.2825 -0.2468
  991TIP3    H124464   4.856   5.285   1.205  2.5509  1.0539 -0.3664
  991TIP3    H224465   4.724   5.357   1.227 -0.0945 -3.4917 -0.0405
  992TIP3   OH224466   3.720   6.683  12.500  0.3868  0.2905  0.0499
  992TIP3    H124467   3.693   6.755  12.557 -0.9379 -0.0904 -0.0619
  992TIP3    H224468   3.717   6.606  12.556 -2.2850 -0.3180 -0.7905
  993TIP3   OH224469   5.284   2.808  14.848 -0.3222 -0.5437  0.0870
  993TIP3    H124470   5.228   2.730  14.845 -1.4193  0.2477 -0.4943
  993TIP3    H224471   5.329   2.808  14.763  0.9165 -1.4034  0.7095
  994TIP3   OH224472   5.159   6.684  17.283 -0.1034 -0.3400  0.1509
  994TIP3    H124473   5.069   6.705  17.305  0.4873  0.8844  1.5674
  994TIP3    H224474   5.158   6.669  17.189 -1.2894  2.4996 -0.3849
  995TIP3   OH224475   6.290   4.370  12.959  0.5168  0.4896 -0.5938
  995TIP3    H124476   6.336   4.288  12.977  0.0329  0.0119 -1.4125
  995TIP3    H224477   6.351   4.421  12.906  0.2372 -0.0131 -1.4171
  996TIP3   OH224478   3.955   0.115   3.984 -0.2911  0.2788 -0.2184
  996TIP3    H124479   3.947   0.064   4.064  0.9593  0.4884  0.0562
  996TIP3    H224480   3.869   0.109   3.943 -0.1546 -2.1679 -0.2716
  997TIP3   OH224481   3.858   5.699  16.681  0.0134 -0.2197 -0.3066
  997TIP3    H124482   3.855   5.795  16.680 -0.0017 -0.2217 -0.4480
  997TIP3    H224483   3.766   5.672  16.678  0.0385 -0.2455 -1.0311
  998TIP3   OH224484   4.898   0.768  16.341 -0.2111 -0.0670  0.0971
  998TIP3    H124485   4.831   0.807  16.284  2.0201  2.3721 -1.0786
  998TIP3    H224486   4.973   0.753  16.283  1.6086  1.0038  2.0454
  999TIP3   OH224487   3.535   4.369  17.092  0.0384  0.3222  0.7419
  999TIP3    H124488   3.461   4.426  17.074 -0.0700 -0.0059  0.1347
  999TIP3    H224489   3.497   4.291  17.131  0.0030 -0.0598 -0.0366
 1000TIP3   OH224490   2.519   6.480  13.449 -0.5786  0.0191  0.9348
 1000TIP3    H124491   2.587   6.531  13.405 -0.6653  0.5692  1.4237
 1000TIP3    H224492   2.439   6.498  13.400 -0.3137 -0.9386  0.1191
 1001TIP3   OH224493   5.019   1.458   2.853 -0.3497 -0.5273  0.1590
 1001TIP3    H124494   5.053   1.547   2.861  1.1494 -1.1964  2.1854
 1001TIP3    H224495   5.079   1.415   2.793  1.0028 -1.0168  1.7775
 1002TIP3   OH224496   1.109   4.629  16.115 -0.0779 -0.1071 -0.0223
 1002TIP3    H124497   1.200   4.643  16.091 -0.4460  0.9508 -0.8715
 1002TIP3    H224498   1.102   4.661  16.205  0.5652 -1.0316  0.3764
 1003TIP3   OH224499   5.367   5.924  13.849  0.3099 -0.0860  0.5880
 1003TIP3    H124500   5.456   5.930  13.883 -0.0460 -2.7411  2.2669
 1003TIP3    H224501   5.322   5.865  13.910 -2.5115  0.8528 -0.4261
 1004TIP3   OH224502   6.622   4.705  12.532  0.1030  0.0439  0.3047
 1004TIP3    H124503   6.534   4.686  12.502  0.0853 -0.7264  0.8209
 1004TIP3    H224504   6.612   4.730  12.624  0.5242 -1.2200  0.7212
 1005TIP3   OH224505   5.046   2.319  14.821  0.3813  0.1035  0.1599
 1005TIP3    H124506   4.981   2.324  14.750  0.8751 -0.9389 -0.3859
 1005TIP3    H224507   4.993   2.322  14.901 -0.0939  2.9271 -0.1437
 1006TIP3   OH224508   6.209   4.753   2.271 -0.3028  0.2560  0.6994
 1006TIP3    H124509   6.270   4.745   2.344 -1.0277 -0.6961  1.2203
 1006TIP3    H224510   6.149   4.680   2.281 -1.5475  1.1695  0.2128
 1007TIP3   OH224511   5.200   6.654  15.631  0.0418 -0.4992  0.0872
 1007TIP3    H124512   5.107   6.649  15.612  0.1749  0.3259 -0.8811
 1007TIP3    H224513   5.208   6.623  15.721 -1.2871  0.2895  0.5078
 1008TIP3   OH224514   6.761   6.599   2.139  0.6478 -0.5663 -0.3504
 1008TIP3    H124515   6.785   6.557   2.056 -0.1978 -0.1502 -0.8120
 1008TIP3    H224516   6.666   6.610   2.134  0.7303  0.5111  0.1829
 1009TIP3   OH224517   0.280   2.822  15.589  0.0572  0.2406 -0.2858
 1009TIP3    H124518   0.323   2.908  15.593  0.4913 -0.0252  1.4679
 1009TIP3    H224519   0.333   2.766  15.644 -0.5406 -1.0397 -0.9695
 1010TIP3   OH224520   4.765   5.800  17.171  0.4125  0.3931 -0.1427
 1010TIP3    H124521   4.812   5.880  17.193  0.7498  0.0875  0.2718
 1010TIP3    H224522   4.826   5.749  17.119  0.1763  0.4282 -0.4602
 1011TIP3   OH224523   2.089   4.084   5.185  0.2853  0.4273  0.5558
 1011TIP3    H124524   2.136   4.027   5.245 -1.1173 -2.2434 -0.7217
 1011TIP3    H224525   2.090   4.037   5.102 -2.8424  1.1930 -0.0221
 1012TIP3   OH224526   5.320   6.249   2.624  0.3249 -0.1846 -0.4955
 1012TIP3    H124527   5.233   6.269   2.589  1.0243  1.5148 -1.3864
 1012TIP3    H224528   5.303   6.200   2.704 -1.5120  1.4522  0.1952
 1013TIP3   OH224529   0.672   3.161  15.281 -1.3634 -0.8958  0.4700
 1013TIP3    H124530   0.590   3.129  15.244 -0.1842 -2.7545 -0.7011
 1013TIP3    H224531   0.654   3.252  15.305 -2.5548  0.2297 -3.8575
 1014TIP3   OH224532   2.382   2.021  12.359  0.4797 -0.4719 -0.3216
 1014TIP3    H124533   2.401   2.093  12.419 -2.2023  0.4482 -0.4260
 1014TIP3    H224534   2.419   2.050  12.275  0.5800  0.1766 -0.0586
 1015TIP3   OH224535   2.784   3.942   1.721  0.0361 -0.3337  0.4825
 1015TIP3    H124536   2.835   3.872   1.681 -1.0854 -0.9130  0.0216
 1015TIP3    H224537   2.693   3.914   1.711 -0.3197 -0.3541  3.1906
 1016TIP3   OH224538   2.381   3.920  13.702 -0.2376 -0.0136 -0.5259
 1016TIP3    H124539   2.462   3.905  13.750 -0.0791 -0.3921 -0.9104
 1016TIP3    H224540   2.317   3.943  13.770  0.4859  1.6360 -0.3348
 1017TIP3   OH224541   1.308   0.949  12.574 -0.5100 -0.3971  0.0864
 1017TIP3    H124542   1.243   0.924  12.640 -0.7255  0.0519  0.0479
 1017TIP3    H224543   1.359   1.017  12.615  1.2325 -2.0857  0.8507
 1018TIP3   OH224544   2.629   1.487   2.864  0.2906  0.4709  0.0605
 1018TIP3    H124545   2.693   1.426   2.828  2.4385  2.0050  1.0516
 1018TIP3    H224546   2.564   1.431   2.907  0.5940 -1.1639 -1.4922
 1019TIP3   OH224547   5.948   3.728  12.490  0.0605  0.4490  0.0929
 1019TIP3    H124548   5.877   3.670  12.518 -2.0866  1.4196 -2.9285
 1019TIP3    H224549   6.025   3.670  12.485 -1.4684 -1.6479 -0.5762
 1020TIP3   OH224550   4.634   0.244  13.716  0.0724 -0.0941  0.6646
 1020TIP3    H124551   4.540   0.239  13.734  0.1523  2.0746  2.0197
 1020TIP3    H224552   4.670   0.167  13.760 -0.7951  0.5522  2.6696
 1021TIP3   OH224553   0.771   2.331  15.418 -0.3621  0.2561 -0.5223
 1021TIP3    H124554   0.769   2.361  15.327  0.4696  0.9538 -0.3301
 1021TIP3    H224555   0.679   2.319  15.441 -0.7169  1.9833 -0.8621
 1022TIP3   OH224556   3.364   4.719   4.155 -0.5597  0.2705 -0.3203
 1022TIP3    H124557   3.313   4.768   4.091  0.2018  0.0084 -1.1400
 1022TIP3    H224558   3.314   4.639   4.169 -0.9956  0.5630 -0.1857
 1023TIP3   OH224559   0.346   6.668  15.102 -0.5047  0.3404 -0.0636
 1023TIP3    H124560   0.385   6.652  15.016  0.5947  0.5915  0.3688
 1023TIP3    H224561   0.344   6.763  15.111  1.8189  0.3535  1.2027
 1024TIP3   OH224562   0.113   0.993   2.285 -0.7222  0.2406 -0.0447
 1024TIP3    H124563   0.121   1.073   2.235 -0.3176  1.0512  1.2616
 1024TIP3    H224564   0.136   0.923   2.224 -1.6632  1.0606 -1.3621
 1025TIP3   OH224565   2.260   1.382  11.537  0.1544  0.0553 -0.1668
 1025TIP3    H124566   2.299   1.336  11.611  0.5867  0.5551 -0.0747
 1025TIP3    H224567   2.232   1.466  11.573  0.6290  0.4221 -0.6214
 1026TIP3   OH224568   6.105   5.132   6.072  0.2056  0.2171 -0.4587
 1026TIP3    H124569   6.027   5.109   6.122  1.0577  0.0166  0.8185
 1026TIP3    H224570   6.086   5.218   6.036 -0.5260  0.2593 -0.0003
 1027TIP3   OH224571   3.362   4.985   3.680  0.1700  0.2191  0.3173
 1027TIP3    H124572   3.449   4.996   3.642  0.0707  0.5378  0.1736
 1027TIP3    H224573   3.329   5.075   3.688  0.1249  0.1493  0.9978
 1028TIP3   OH224574   6.203   4.585  13.244 -0.3678  0.8310  0.0906
 1028TIP3    H124575   6.116   4.545  13.240  0.4444 -0.9392 -1.3881
 1028TIP3    H224576   6.186   4.679  13.246 -2.3158  0.6387 -2.2381
 1029TIP3   OH224577   4.317   1.204  12.010  0.2398  0.0290  0.6758
 1029TIP3    H124578   4.395   1.212  11.956 -0.7559  0.8609 -0.7038
 1029TIP3    H224579   4.275   1.290  12.005 -0.4746 -0.2237  1.8674
 1030TIP3   OH224580   4.249   2.606   0.958 -0.0785  0.0574 -0.0612
 1030TIP3    H124581   4.191   2.536   0.930  0.5812  0.0191 -1.3799
 1030TIP3    H224582   4.210   2.638   1.040 -1.4231 -0.5843 -0.4280
 1031TIP3   OH224583   4.370   0.370  14.412  0.0171 -0.0911 -0.0174
 1031TIP3    H124584   4.420   0.449  14.392 -0.2695 -0.0203 -0.4823
 1031TIP3    H224585   4.378   0.316  14.333 -1.0148  0.1220 -0.2920
 1032TIP3   OH224586   3.129   0.026   6.860 -0.1343 -0.3324 -0.4961
 1032TIP3    H124587   3.118   0.015   6.954 -0.1880 -0.9031 -0.5691
 1032TIP3    H224588   3.059   0.086   6.835  1.2898  1.7506  0.1990
 1033TIP3   OH224589   5.275   0.372  12.852  0.8068 -0.6842 -0.8317
 1033TIP3    H124590   5.370   0.367  12.860  0.7389 -0.4449  0.2697
 1033TIP3    H224591   5.241   0.334  12.933 -0.0213 -0.1618 -0.9156
 1034TIP3   OH224592   2.560   0.715  16.426  0.4702 -0.5409  0.0489
 1034TIP3    H124593   2.561   0.788  16.488  0.9134 -0.3795 -0.1451
 1034TIP3    H224594   2.492   0.657  16.459 -0.5904  0.4307 -0.3273
 1035TIP3   OH224595   5.749   4.835   0.772  0.0048  0.3201 -0.5872
 1035TIP3    H124596   5.780   4.862   0.858 -2.3433  2.9287 -0.4062
 1035TIP3    H224597   5.815   4.869   0.711 -0.3759  2.1869 -0.0112
 1036TIP3   OH224598   0.652   3.402  14.043 -0.2903 -0.6100 -0.1271
 1036TIP3    H124599   0.622   3.452  14.119  0.2992 -1.1721  0.4934
 1036TIP3    H224600   0.574   3.354  14.014 -0.2996 -1.1710  0.7612
 1037TIP3   OH224601   0.435   0.471   0.380  0.1549 -0.1129  0.1146
 1037TIP3    H124602   0.392   0.491   0.463 -0.5900  0.8401 -0.4749
 1037TIP3    H224603   0.379   0.405   0.338  1.4778 -1.9587  1.1164
 1038TIP3   OH224604   3.013   4.367   0.670 -0.2660  0.1700 -0.2071
 1038TIP3    H124605   2.975   4.306   0.733  0.5889  0.3661  0.5126
 1038TIP3    H224606   2.944   4.431   0.654 -0.5544  0.0114  0.3846
 1039TIP3   OH224607   5.306   2.735  10.778  0.0306  0.0789 -0.4795
 1039TIP3    H124608   5.253   2.807  10.813  0.9535  0.5905 -0.1026
 1039TIP3    H224609   5.245   2.662  10.769 -0.6037  0.4659  0.5381
 1040TIP3   OH224610   1.378   5.621  16.255 -0.2060  0.2472 -0.5686
 1040TIP3    H124611   1.444   5.689  16.263  0.2444 -0.2252 -0.2088
 1040TIP3    H224612   1.314   5.656  16.193 -1.2263  2.0040  1.3262
 1041TIP3   OH224613   4.874   0.808  15.922 -0.3929  0.8128  0.3146
 1041TIP3    H124614   4.964   0.839  15.928  1.0269 -2.6109 -0.4356
 1041TIP3    H224615   4.874   0.726  15.972 -3.1788  0.8137  0.4746
 1042TIP3   OH224616   4.486   6.119   3.553  0.4328  0.4298  0.1173
 1042TIP3    H124617   4.456   6.049   3.610  0.6134  0.4294  0.2132
 1042TIP3    H224618   4.472   6.199   3.604  1.8565  0.3300  0.7177
 1043TIP3   OH224619   4.973   2.310   5.569  0.7191 -0.0855 -0.4500
 1043TIP3    H124620   5.027   2.371   5.620  1.2297 -0.2374 -0.7959
 1043TIP3    H224621   4.904   2.283   5.629  1.1297 -0.0201  0.0621
 1044TIP3   OH224622   0.692   4.043   1.719 -0.0387 -0.2585  0.2354
 1044TIP3    H124623   0.663   3.983   1.788  2.4254 -0.8933  0.8300
 1044TIP3    H224624   0.722   3.985   1.648  1.0083  0.2687  0.2210
 1045TIP3   OH224625   6.347   2.647  15.270 -0.5262  0.1163 -0.1557
 1045TIP3    H124626   6.339   2.641  15.365  1.3240  1.8207  0.1833
 1045TIP3    H224627   6.332   2.740  15.251 -2.0435 -0.3942 -1.7050
 1046TIP3   OH224628   6.364   3.044   0.778 -0.0325  0.1920  0.6022
 1046TIP3    H124629   6.309   3.073   0.850 -1.7381  0.2404 -0.6525
 1046TIP3    H224630   6.443   3.010   0.820 -0.3811  1.4504  2.3943
 1047TIP3   OH224631   5.791   5.531  13.042  0.2552 -0.1484  0.6394
 1047TIP3    H124632   5.781   5.578  12.959  0.6900  0.2283  0.7943
 1047TIP3    H224633   5.841   5.453  13.018  0.4111 -0.0230  0.5502
 1048TIP3   OH224634   0.898   1.655   3.449  0.1708 -0.1812  0.4877
 1048TIP3    H124635   0.820   1.687   3.404  0.6380 -0.5506 -0.6301
 1048TIP3    H224636   0.936   1.591   3.388  0.4816 -1.1921  1.6958
 1049TIP3   OH224637   4.354   4.019   0.258 -0.1134  0.7736  0.1198
 1049TIP3    H124638   4.361   4.108   0.294  0.4473 -0.1260  2.4021
 1049TIP3    H224639   4.300   3.972   0.321  0.0975 -0.6779 -0.7368
 1050TIP3   OH224640   4.955   4.659   3.716 -0.2044  0.0451  0.1133
 1050TIP3    H124641   4.994   4.745   3.701  0.3415 -0.0309  0.9943
 1050TIP3    H224642   4.959   4.615   3.631  0.8065  0.3776 -0.0244
 1051TIP3   OH224643   0.302   5.622  11.174  0.0401 -0.2896  0.4539
 1051TIP3    H124644   0.213   5.607  11.204  0.3225 -0.9331  1.0016
 1051TIP3    H224645   0.299   5.707  11.131 -1.1253 -0.8695 -0.6952
 1052TIP3   OH224646   2.298   6.211   4.717  0.4044  0.2624 -0.2162
 1052TIP3    H124647   2.367   6.171   4.771  0.2484 -0.3875 -0.4982
 1052TIP3    H224648   2.346   6.255   4.647  0.5565  0.2125 -0.1456
 1053TIP3   OH224649   2.787   6.358   0.435  0.0935 -0.1025  0.3704
 1053TIP3    H124650   2.857   6.327   0.492 -0.3521  1.2038  1.6924
 1053TIP3    H224651   2.726   6.404   0.494 -0.3564  1.3546 -1.1457
 1054TIP3   OH224652   0.084   1.417   4.082 -0.1757 -0.8256 -0.0662
 1054TIP3    H124653   0.094   1.424   4.177 -1.1505  2.5985 -0.0914
 1054TIP3    H224654   0.148   1.478   4.047 -0.0445 -1.8157 -1.6200
 1055TIP3   OH224655   0.096   4.632  12.943 -0.1249  0.0584  0.0084
 1055TIP3    H124656   0.171   4.626  13.002 -0.1916  0.8337  0.1882
 1055TIP3    H224657   0.068   4.723  12.950 -0.7544 -0.0944 -0.4638
 1056TIP3   OH224658   5.014   3.691  14.228  0.4496 -0.0248 -0.3923
 1056TIP3    H124659   5.003   3.647  14.313 -1.1506 -1.5859 -1.3324
 1056TIP3    H224660   4.950   3.761  14.228 -1.2562 -1.5072 -1.1605
 1057TIP3   OH224661   2.627   1.684   2.623 -0.0481  0.0129  0.2966
 1057TIP3    H124662   2.682   1.684   2.545 -2.5187 -3.0547 -1.6874
 1057TIP3    H224663   2.672   1.624   2.683 -1.3055 -3.0694 -1.5933
 1058TIP3   OH224664   4.003   1.630   4.816 -0.2817 -0.3180  0.1174
 1058TIP3    H124665   3.915   1.596   4.832 -0.4387  0.4086  0.8390
 1058TIP3    H224666   4.061   1.558   4.840 -0.6908 -1.2331 -1.4776
 1059TIP3   OH224667   1.210   2.316   3.340  0.0967  0.3588 -0.4162
 1059TIP3    H124668   1.135   2.279   3.386  0.2417  1.2895  0.6209
 1059TIP3    H224669   1.263   2.357   3.409  0.8595  0.8938 -1.2922
 1060TIP3   OH224670   2.208   3.094   4.923 -0.1069  0.2114 -0.1170
 1060TIP3    H124671   2.193   3.033   4.851 -0.4413 -0.7690  0.7419
 1060TIP3    H224672   2.210   3.180   4.882  0.0691 -0.3467 -1.3337
 1061TIP3   OH224673   4.029   3.655   4.763 -0.3994 -0.3525  0.0262
 1061TIP3    H124674   4.021   3.575   4.710 -1.0474  0.1506 -0.6441
 1061TIP3    H224675   3.939   3.682   4.779 -0.1974 -0.1784  0.9173
 1062TIP3   OH224676   2.154   5.084   5.597 -0.0620  0.2836 -0.2275
 1062TIP3    H124677   2.084   5.149   5.591  0.0858  0.6770  1.6373
 1062TIP3    H224678   2.110   5.000   5.586 -0.6345  0.5821 -0.2417
 1063TIP3   OH224679   2.210   1.666   0.818  0.0572 -0.3845 -0.3416
 1063TIP3    H124680   2.131   1.660   0.871  0.1826 -0.5591 -0.1737
 1063TIP3    H224681   2.275   1.706   0.876 -0.2756  1.0225 -0.8907
 1064TIP3   OH224682   0.146   5.917   0.060  0.5115 -0.6244 -0.6993
 1064TIP3    H124683   0.215   5.874   0.111 -0.6181 -0.7281  0.7922
 1064TIP3    H224684   0.194   5.970  -0.004  2.0625  0.5009  1.2487
 1065TIP3   OH224685   3.297   1.265   2.067 -0.4424 -0.6529 -0.1226
 1065TIP3    H124686   3.257   1.242   1.984  0.1248  0.4327 -0.7262
 1065TIP3    H224687   3.224   1.284   2.125 -0.8564  1.1604 -1.1653
 1066TIP3   OH224688   1.257   5.717  11.443 -0.5196  0.0763  0.0902
 1066TIP3    H124689   1.291   5.662  11.372  1.1729  0.7579  0.3424
 1066TIP3    H224690   1.261   5.661  11.520  1.3086  0.5423  0.3680
 1067TIP3   OH224691   3.950   3.299  11.478 -0.3001 -0.0350 -0.8158
 1067TIP3    H124692   4.032   3.290  11.526 -0.3138  1.1961 -0.5110
 1067TIP3    H224693   3.974   3.342  11.396 -0.8218  2.0869  0.0653
 1068TIP3   OH224694   5.270   6.574  16.293 -0.5565 -0.1602  1.0891
 1068TIP3    H124695   5.366   6.579  16.290 -0.4403 -1.7498  1.2715
 1068TIP3    H224696   5.250   6.484  16.267 -1.9055 -0.4332  2.9117
 1069TIP3   OH224697   0.357   6.702  11.455 -0.2028  0.0621 -0.1236
 1069TIP3    H124698   0.380   6.793  11.439  2.1656 -0.1867  1.3901
 1069TIP3    H224699   0.335   6.667  11.369  0.7339  1.5775 -1.0195
 1070TIP3   OH224700   2.237   1.895  11.236 -0.1766  0.3632  0.1289
 1070TIP3    H124701   2.279   1.975  11.269 -1.2040 -0.0741  2.7044
 1070TIP3    H224702   2.143   1.912  11.246 -0.4083 -1.2152  0.9315
 1071TIP3   OH224703   5.752   5.587  12.544 -0.0387  0.1508 -0.3259
 1071TIP3    H124704   5.820   5.649  12.568 -0.5002  0.8507 -0.7918
 1071TIP3    H224705   5.684   5.599  12.611  0.1621 -0.3322 -0.0326
 1072TIP3   OH224706   4.245   6.763  15.710  0.3306 -0.0351 -0.3370
 1072TIP3    H124707   4.163   6.765  15.760  0.1954 -0.2175 -0.5521
 1072TIP3    H224708   4.275   6.853  15.710 -0.6588  0.3251 -1.5753
 1073TIP3   OH224709   4.123   3.127  12.822  0.4324 -0.3137  0.2129
 1073TIP3    H124710   4.215   3.107  12.837  0.1805 -1.4633  0.3830
 1073TIP3    H224711   4.099   3.188  12.892  0.4443 -1.9837  1.7546
 1074TIP3   OH224712   1.805   3.025  12.027  0.2854 -0.1280 -0.2978
 1074TIP3    H124713   1.877   3.039  11.965  1.8733 -1.3725  1.1503
 1074TIP3    H224714   1.765   2.943  11.999  0.7067 -0.4515  0.0359
 1075TIP3   OH224715   4.493   5.441  15.401 -0.3464  0.3162  0.0250
 1075TIP3    H124716   4.441   5.373  15.444  0.0640 -0.5825 -0.8742
 1075TIP3    H224717   4.535   5.488  15.473  0.3368 -1.1636  0.6213
 1076TIP3   OH224718   0.350   5.332  14.101 -0.2115  0.0362  0.1648
 1076TIP3    H124719   0.319   5.313  14.012 -1.1600 -0.7830  0.6534
 1076TIP3    H224720   0.445   5.336  14.092 -0.2289 -1.0164 -0.7264
 1077TIP3   OH224721   0.300   3.946   4.982  0.4069 -0.2516 -0.4392
 1077TIP3    H124722   0.373   3.999   4.951 -1.1592  2.3911  0.1009
 1077TIP3    H224723   0.268   3.900   4.904 -0.1666  2.1425 -1.7070
 1078TIP3   OH224724   5.333   4.978   2.491  0.0124  0.7215  0.1545
 1078TIP3    H124725   5.292   4.893   2.502  0.9134  0.3908  1.0657
 1078TIP3    H224726   5.361   4.980   2.399 -0.5451  0.2929 -0.0279
 1079TIP3   OH224727   4.269   1.859  13.419 -0.0015 -0.3526  0.0051
 1079TIP3    H124728   4.224   1.922  13.362 -0.0167 -0.2992  0.0760
 1079TIP3    H224729   4.297   1.789  13.359  1.9640  0.7636 -0.4584
 1080TIP3   OH224730   3.051   0.606   0.608  0.6646  0.9113  0.0548
 1080TIP3    H124731   3.093   0.678   0.655  2.2461  0.9781 -1.3355
 1080TIP3    H224732   3.123   0.544   0.592  0.0270  0.5537 -1.5681
 1081TIP3   OH224733   3.352   2.099   5.219  0.4669  0.6999  0.0208
 1081TIP3    H124734   3.316   2.076   5.134  2.0895  1.1388 -0.8321
 1081TIP3    H224735   3.320   2.189   5.235 -1.7806 -0.1988  1.0414
 1082TIP3   OH224736   5.883   1.501   2.311 -0.0513 -0.0369  0.9099
 1082TIP3    H124737   5.838   1.452   2.242 -0.8065  1.8745 -0.0037
 1082TIP3    H224738   5.812   1.542   2.361  0.5784  0.9192  1.0392
 1083TIP3   OH224739   3.553   5.274   4.456 -0.6188 -0.1690  0.0226
 1083TIP3    H124740   3.603   5.315   4.385 -0.5742  0.0486  0.1783
 1083TIP3    H224741   3.590   5.311   4.536 -1.6527  0.7218  0.1137
 1084TIP3   OH224742   2.211   3.472   2.475  0.0498 -0.4634  0.0501
 1084TIP3    H124743   2.144   3.406   2.460  1.4708 -1.8804 -0.3327
 1084TIP3    H224744   2.274   3.430   2.534  0.9529  0.5491 -0.1510
 1085TIP3   OH224745   4.190   5.073  10.950 -0.2080  0.2143 -0.3640
 1085TIP3    H124746   4.169   5.018  10.874 -0.0712  0.9537 -0.9555
 1085TIP3    H224747   4.275   5.040  10.980  0.5878  1.0016 -1.6158
 1086TIP3   OH224748   5.968   6.031  16.313 -0.3762 -1.2078  0.0090
 1086TIP3    H124749   5.881   6.011  16.277 -0.8479  0.2012  0.3080
 1086TIP3    H224750   5.967   5.991  16.400 -1.2330 -0.1133  0.5281
 1087TIP3   OH224751   5.253   0.137   0.262  0.3702 -0.0652  0.0188
 1087TIP3    H124752   5.195   0.071   0.297 -1.7917  1.2927 -0.7755
 1087TIP3    H224753   5.284   0.186   0.338 -0.0579 -0.3930  0.4045
 1088TIP3   OH224754   0.923   5.288   2.626  0.3009 -0.3732  0.3193
 1088TIP3    H124755   0.966   5.363   2.666 -0.4452  1.7181 -2.4454
 1088TIP3    H224756   0.831   5.297   2.651  0.0512  0.2216 -0.7556
 1089TIP3   OH224757   1.522   1.511   0.549  0.1819 -0.4563 -0.1564
 1089TIP3    H124758   1.555   1.423   0.570  1.1068  0.2481  1.6071
 1089TIP3    H224759   1.454   1.527   0.615  0.9973  0.6550  0.4546
 1090TIP3   OH224760   5.761   1.715   0.585 -0.0472  0.1186  0.1817
 1090TIP3    H124761   5.713   1.677   0.511 -0.6188  0.4637  0.3667
 1090TIP3    H224762   5.755   1.809   0.570 -1.2932  0.2472  1.3512
 1091TIP3   OH224763   0.106   3.143  11.856  0.1290  0.3388  0.3258
 1091TIP3    H124764   0.083   3.159  11.947  0.6540  1.1466  0.3272
 1091TIP3    H224765   0.168   3.070  11.859  0.1874  0.4005  0.6291
 1092TIP3   OH224766   0.076   6.031  13.930  0.2747 -0.1679  0.7344
 1092TIP3    H124767   0.146   6.007  13.990  1.4573 -1.3840 -1.0661
 1092TIP3    H224768  -0.004   5.999  13.972  0.9506 -0.1453  2.0782
 1093TIP3   OH224769   3.249   1.826   4.299  0.2371  0.1469 -0.0596
 1093TIP3    H124770   3.168   1.860   4.336  0.1019 -1.2757  1.0758
 1093TIP3    H224771   3.246   1.851   4.207 -1.9019 -0.5523 -0.2363
 1094TIP3   OH224772   1.113   6.701  14.542  0.3089 -0.2199  0.2747
 1094TIP3    H124773   1.173   6.776  14.538 -1.0277  0.8314 -1.9116
 1094TIP3    H224774   1.026   6.740  14.542 -0.4102 -1.7755  0.2095
 1095TIP3   OH224775   1.918   6.312   5.268  0.4258  0.0879  0.6106
 1095TIP3    H124776   1.929   6.394   5.221 -3.2517  1.7145  2.1580
 1095TIP3    H224777   1.964   6.325   5.351 -2.3422  1.8961  2.0175
 1096TIP3   OH224778   5.265   1.883   1.782 -0.0140  0.2074 -0.1982
 1096TIP3    H124779   5.322   1.859   1.710  0.0597 -0.0464 -0.0561
 1096TIP3    H224780   5.185   1.916   1.741  0.1621  0.3844 -0.3952
 1097TIP3   OH224781   6.446   6.030  17.090 -0.5088 -0.3014  0.1931
 1097TIP3    H124782   6.379   5.969  17.120  0.5469 -1.2929  0.6105
 1097TIP3    H224783   6.496   5.981  17.024 -0.1586  0.3928 -0.0708
 1098TIP3   OH224784   2.391   3.282   1.601 -0.3582  0.0846  0.0931
 1098TIP3    H124785   2.375   3.238   1.685 -0.9557  1.1930  0.5853
 1098TIP3    H224786   2.326   3.245   1.542 -1.4798  0.9065  0.7487
 1099TIP3   OH224787   0.595   1.622   5.995 -0.5283 -0.7278 -0.4856
 1099TIP3    H124788   0.529   1.686   5.972 -1.5966 -0.8850  1.8543
 1099TIP3    H224789   0.603   1.628   6.091  1.0175 -2.4592 -0.4342
 1100TIP3   OH224790   4.695   1.439  11.654  0.1005  0.2800  0.0250
 1100TIP3    H124791   4.641   1.512  11.684 -0.6026 -0.7850  1.5583
 1100TIP3    H224792   4.745   1.414  11.732  0.9162 -0.3528 -0.6913
 1101TIP3   OH224793   5.895   1.203   4.276  0.3960 -0.3744  0.0882
 1101TIP3    H124794   5.949   1.216   4.198  0.7998 -0.5452  0.3375
 1101TIP3    H224795   5.956   1.170   4.342  0.3184  0.9716  0.8574
 1102TIP3   OH224796   3.106   5.833   5.162  0.4347 -0.2525  0.0750
 1102TIP3    H124797   3.091   5.761   5.224  0.0130 -2.2291 -2.1975
 1102TIP3    H224798   3.035   5.894   5.180  0.3082 -0.7713  1.5104
 1103TIP3   OH224799   3.679   3.845   3.702  0.5622 -0.3428  0.0822
 1103TIP3    H124800   3.752   3.793   3.736  0.1710 -0.6733  0.4327
 1103TIP3    H224801   3.616   3.847   3.774  0.3795  0.2430 -0.0909
 1104TIP3   OH224802   0.029   3.915  16.381 -0.0154 -0.5970  0.0367
 1104TIP3    H124803  -0.053   3.958  16.408 -0.1545 -1.1388  0.4824
 1104TIP3    H224804   0.098   3.972  16.414 -0.1706 -1.3179  1.7301
 1105TIP3   OH224805   2.862   4.276  16.014  0.3964 -0.0130  0.0974
 1105TIP3    H124806   2.840   4.216  15.943  1.8109 -3.5867  2.4321
 1105TIP3    H224807   2.786   4.272  16.072 -0.2237  1.9349 -0.4863
 1106TIP3   OH224808   1.976   3.999  14.399 -0.4435  0.2044  0.6230
 1106TIP3    H124809   2.020   3.929  14.447  0.1888  1.6815  2.3257
 1106TIP3    H224810   1.883   3.973  14.398 -0.1140 -1.0266  0.4986
 1107TIP3   OH224811   3.013   5.665  15.994 -0.3232 -0.0541 -0.5877
 1107TIP3    H124812   3.008   5.733  15.927  0.2930 -0.0641 -0.6488
 1107TIP3    H224813   3.087   5.690  16.049 -0.9984  0.1100  0.2720
 1108TIP3   OH224814   3.563   0.477  12.184 -0.3402 -0.3298 -0.2714
 1108TIP3    H124815   3.489   0.424  12.156 -0.8305  0.1118  0.1511
 1108TIP3    H224816   3.581   0.535  12.110  1.1419 -2.0280 -1.3128
 1109TIP3   OH224817   1.762   0.727  14.801 -0.1135  0.0560 -0.2008
 1109TIP3    H124818   1.784   0.738  14.708 -1.9874  1.6212 -0.5062
 1109TIP3    H224819   1.810   0.648  14.826  0.6912 -0.2569 -2.4054
 1110TIP3   OH224820   0.949   4.423  13.851 -0.2026  0.2525 -0.0912
 1110TIP3    H124821   1.018   4.425  13.784 -1.5415 -1.3568 -1.6223
 1110TIP3    H224822   0.985   4.367  13.920  0.1615 -0.3430 -0.7466
 1111TIP3   OH224823   4.787   5.858   3.150  0.3590 -0.1698 -0.0151
 1111TIP3    H124824   4.815   5.803   3.223  1.0351 -0.7635 -0.7050
 1111TIP3    H224825   4.836   5.825   3.074  0.6046  1.2197 -0.5051
 1112TIP3   OH224826   0.333   6.147   3.953 -0.1658  0.3611  0.2674
 1112TIP3    H124827   0.238   6.135   3.960 -0.6589  2.4683 -1.6993
 1112TIP3    H224828   0.370   6.061   3.975 -2.5113 -0.5668  0.8656
 1113TIP3   OH224829   2.365   3.135  13.766  0.0854 -0.0487  0.4726
 1113TIP3    H124830   2.320   3.055  13.792 -1.3541  1.2387  2.1846
 1113TIP3    H224831   2.339   3.199  13.832  2.9846  1.2784  0.4865
 1114TIP3   OH224832   1.275   2.673  16.426  0.1983  0.4975  0.0264
 1114TIP3    H124833   1.187   2.653  16.394  0.8759 -1.9460 -0.5261
 1114TIP3    H224834   1.267   2.673  16.521 -0.8578  2.9950  0.0328
 1115TIP3   OH224835   0.481   0.309  12.360 -0.8270  0.1400  0.1566
 1115TIP3    H124836   0.533   0.375  12.314 -0.0750  0.4029  1.3476
 1115TIP3    H224837   0.494   0.229  12.309  3.8203 -0.7909  2.2571
 1116TIP3   OH224838   1.033   4.794  10.453  0.5960  0.2694 -0.0467
 1116TIP3    H124839   1.038   4.743  10.372  1.0690  0.6203 -0.2455
 1116TIP3    H224840   0.945   4.831  10.454  0.5393  0.1367 -0.3256
 1117TIP3   OH224841   5.029   6.738  12.501  0.0922  0.0006 -0.1417
 1117TIP3    H124842   5.031   6.819  12.553 -0.3623 -0.9641  1.4383
 1117TIP3    H224843   4.989   6.764  12.418 -1.7174  1.0487  0.9953
 1118TIP3   OH224844   0.609   5.287   0.655 -0.0501  0.3080 -0.1626
 1118TIP3    H124845   0.520   5.324   0.663 -0.5373 -0.8502 -0.0551
 1118TIP3    H224846   0.606   5.234   0.576  0.6672  0.5558 -0.3590
 1119TIP3   OH224847   2.363   3.902   5.902  0.2760 -0.2977  0.1210
 1119TIP3    H124848   2.454   3.913   5.929  0.0144 -0.4362  1.0963
 1119TIP3    H224849   2.317   3.974   5.946  0.1890  0.9869 -1.9076
 1120TIP3   OH224850   3.752   4.215  10.765 -0.3743 -0.3285  0.0376
 1120TIP3    H124851   3.703   4.133  10.771 -0.3808 -0.2507  1.3772
 1120TIP3    H224852   3.740   4.256  10.850  1.8513 -0.2057  0.3590
 1121TIP3   OH224853   3.291   1.043   3.458 -0.6508  0.2721 -0.1257
 1121TIP3    H124854   3.206   1.033   3.416 -0.7137 -0.1057  0.0854
 1121TIP3    H224855   3.312   0.956   3.491  0.3729  0.0826 -1.2225
 1122TIP3   OH224856   0.237   5.001   5.886 -0.6065  0.0763  0.3703
 1122TIP3    H124857   0.155   5.047   5.901 -0.2328  0.9741 -0.2661
 1122TIP3    H224858   0.294   5.031   5.957 -0.9656 -0.9412  1.1187
 1123TIP3   OH224859   1.391   1.369   2.529  0.2778 -0.3663 -0.1568
 1123TIP3    H124860   1.454   1.296   2.526 -0.0675 -0.6557 -0.4590
 1123TIP3    H224861   1.421   1.423   2.602 -0.3533 -1.6199  1.0780
 1124TIP3   OH224862   0.492   2.938   2.070 -0.1373 -0.4150 -0.2920
 1124TIP3    H124863   0.499   2.843   2.063 -1.4234 -0.6919  1.5208
 1124TIP3    H224864   0.413   2.960   2.020 -1.3414 -0.6853  1.3774
 1125TIP3   OH224865   3.015   3.936   1.921 -0.4105  0.5326 -0.1957
 1125TIP3    H124866   2.922   3.960   1.924 -0.3319  0.7598  0.9102
 1125TIP3    H224867   3.045   3.966   1.835 -1.4728  0.0161 -0.7538
 1126TIP3   OH224868   1.346   0.739  13.215  0.1081 -0.7911 -0.5821
 1126TIP3    H124869   1.418   0.719  13.155 -1.2475 -1.4815 -2.0749
 1126TIP3    H224870   1.276   0.678  13.189 -2.4850  2.4766 -1.9570
 1127TIP3   OH224871   6.452   4.110  13.704  0.6334  0.1074  0.0462
 1127TIP3    H124872   6.386   4.176  13.725 -0.4503 -1.6459  2.6256
 1127TIP3    H224873   6.418   4.067  13.625 -1.4281 -0.7717  1.3317
 1128TIP3   OH224874   5.825   4.725  15.273  0.8056  0.2254 -0.0497
 1128TIP3    H124875   5.796   4.634  15.282 -0.8091  0.6584 -0.4953
 1128TIP3    H224876   5.844   4.753  15.363  2.1852 -0.7846  0.0114
 1129TIP3   OH224877   0.502   3.812   6.570 -0.1875 -0.3557 -0.4075
 1129TIP3    H124878   0.550   3.786   6.491  0.9282 -2.7209  0.9503
 1129TIP3    H224879   0.418   3.767   6.562 -1.1034  1.3742 -1.3261
 1130TIP3   OH224880   1.334   5.717  15.500  0.3084  0.2482 -0.5052
 1130TIP3    H124881   1.274   5.766  15.444  0.1771  0.0454 -0.5432
 1130TIP3    H224882   1.287   5.636  15.521  0.0919  0.5923  0.4149
 1131TIP3   OH224883   1.583   5.010  10.985 -0.0433  0.3466  0.4601
 1131TIP3    H124884   1.502   5.002  10.935  0.6472 -3.4852 -0.3595
 1131TIP3    H224885   1.620   5.094  10.959 -1.7064  0.2917 -2.3963
 1132TIP3   OH224886   5.582   5.463   6.354 -0.1119 -0.1901 -0.3212
 1132TIP3    H124887   5.607   5.495   6.267  0.5602  0.9254  0.2729
 1132TIP3    H224888   5.488   5.475   6.357 -0.3830 -1.6006 -1.4235
 1133TIP3   OH224889   4.066   2.433   2.687 -0.4805 -0.1769 -0.5878
 1133TIP3    H124890   4.131   2.388   2.634 -1.2521 -0.0101 -1.7049
 1133TIP3    H224891   4.107   2.441   2.774  1.1482  0.2787 -1.3563
 1134TIP3   OH224892   3.126   2.358   2.394  0.0639  0.1820  0.0271
 1134TIP3    H124893   3.072   2.336   2.470  0.0329  0.7769  0.1903
 1134TIP3    H224894   3.064   2.388   2.328 -0.5813 -5.1140 -2.2587
 1135TIP3   OH224895   1.960   4.506  11.858  0.5196 -0.4096 -0.4356
 1135TIP3    H124896   1.978   4.600  11.860  2.7278 -0.7785  0.7871
 1135TIP3    H224897   1.913   4.488  11.939  1.9852 -0.6243  0.4060
 1136TIP3   OH224898   1.686   5.138  13.075  0.1162  0.1478 -0.3743
 1136TIP3    H124899   1.773   5.153  13.037 -0.2769  1.1473 -0.9293
 1136TIP3    H224900   1.696   5.059  13.127  1.3881  0.2988 -0.3518
 1137TIP3   OH224901   6.079   3.436   3.858 -0.1497  0.4446 -0.1692
 1137TIP3    H124902   6.048   3.433   3.767  0.1442  1.6248 -0.3299
 1137TIP3    H224903   6.174   3.444   3.850 -0.0536 -0.2536  0.2637
 1138TIP3   OH224904   1.132   5.739   0.617  0.0472 -0.5904  0.0289
 1138TIP3    H124905   1.180   5.816   0.586  0.9623 -0.6851  1.1534
 1138TIP3    H224906   1.039   5.764   0.608  0.3215  0.7103  0.5422
 1139TIP3   OH224907   1.318   3.143  14.310  0.0670 -0.3160  0.0628
 1139TIP3    H124908   1.398   3.162  14.260  0.8595 -2.9662  0.1583
 1139TIP3    H224909   1.254   3.119  14.243 -0.7107  1.7563 -0.0098
 1140TIP3   OH224910   1.488   0.321  11.078 -0.4239  0.1774  0.1177
 1140TIP3    H124911   1.539   0.401  11.093 -1.1104  0.8221 -0.7946
 1140TIP3    H224912   1.403   0.353  11.046 -0.9378 -0.9064  0.3406
 1141TIP3   OH224913   1.985   4.044   5.756  0.0018  0.0928 -0.0376
 1141TIP3    H124914   1.906   4.047   5.810  0.5511 -0.8434  0.8512
 1141TIP3    H224915   2.052   4.086   5.810  0.8344 -1.8614  0.5524
 1142TIP3   OH224916   0.015   3.881   1.951 -0.0313 -0.1317 -0.2404
 1142TIP3    H124917   0.025   3.811   1.886 -0.9429 -1.8270  1.3688
 1142TIP3    H224918   0.095   3.933   1.941  0.8319 -1.5618 -1.2976
 1143TIP3   OH224919   4.891   4.009  10.936 -0.1920  0.8488  0.8634
 1143TIP3    H124920   4.953   4.074  10.903  0.2477  0.9426  1.8528
 1143TIP3    H224921   4.942   3.953  10.995 -1.1598  1.3285  2.2272
 1144TIP3   OH224922   5.134   0.976  17.041  0.4111 -0.7319 -0.0357
 1144TIP3    H124923   5.045   0.960  17.070 -0.2426  0.4815 -1.2850
 1144TIP3    H224924   5.128   1.054  16.986  1.8420 -1.9438 -2.0374
 1145TIP3   OH224925   5.192   4.002  14.184 -0.1865  0.3058  0.6132
 1145TIP3    H124926   5.097   3.988  14.184 -0.2340  0.3950  2.2280
 1145TIP3    H224927   5.202   4.097  14.176 -0.3792  0.6141  3.2940
 1146TIP3   OH224928   1.721   1.656  15.169  0.3341  0.0069  0.3586
 1146TIP3    H124929   1.690   1.594  15.103 -2.0092 -0.1068  1.4685
 1146TIP3    H224930   1.651   1.721  15.175  0.0051 -0.5189  3.4216
 1147TIP3   OH224931   2.054   4.397  17.259 -0.3801 -0.1542  0.0577
 1147TIP3    H124932   2.050   4.486  17.223  1.3839  0.0753  0.3744
 1147TIP3    H224933   1.997   4.346  17.201  0.0289  0.8120 -1.2401
 1148TIP3   OH224934   3.174   2.545  11.739  0.1865 -0.2495 -0.1925
 1148TIP3    H124935   3.134   2.475  11.689  0.8521 -0.4334 -0.4829
 1148TIP3    H224936   3.110   2.567  11.806  0.1660 -1.4882  0.2245
 1149TIP3   OH224937   4.679   5.081   1.742 -0.5801  0.0147  0.0003
 1149TIP3    H124938   4.730   5.030   1.679 -0.7343 -1.4976  1.0425
 1149TIP3    H224939   4.645   5.154   1.692  1.1410  0.0848 -1.1431
 1150TIP3   OH224940   3.023   0.069   7.112 -0.3007  0.5195  0.4120
 1150TIP3    H124941   2.935   0.090   7.081 -1.2919 -0.6902  2.2259
 1150TIP3    H224942   3.014   0.060   7.207  1.4235 -1.1649  0.4881
 1151TIP3   OH224943   1.195   6.362  11.064 -0.2525 -0.1977  0.1918
 1151TIP3    H124944   1.131   6.429  11.039 -0.2078  0.3246  1.4125
 1151TIP3    H224945   1.267   6.373  11.002 -1.7779 -1.5709 -2.0042
 1152TIP3   OH224946   4.607   6.568  16.657  0.2543  0.2952  0.0325
 1152TIP3    H124947   4.569   6.628  16.721  0.0072 -1.4959  1.6690
 1152TIP3    H224948   4.700   6.591  16.654  0.6018 -0.5165  2.2721
 1153TIP3   OH224949   3.995   4.200  13.088  0.0085  0.7640  0.2504
 1153TIP3    H124950   4.034   4.176  13.004  0.1325  2.2003 -0.1356
 1153TIP3    H224951   4.012   4.125  13.146  0.3862 -0.0129 -0.8498
 1154TIP3   OH224952   4.632   3.754  15.353  0.8967  0.4949 -0.1797
 1154TIP3    H124953   4.614   3.748  15.259  3.7393 -1.0148 -0.7162
 1154TIP3    H224954   4.613   3.667  15.387 -0.8062  1.2151  0.8692
 1155TIP3   OH224955   2.535   5.717   1.499  0.1475  0.5216 -0.0423
 1155TIP3    H124956   2.615   5.749   1.542  0.7875  1.4991 -1.8485
 1155TIP3    H224957   2.486   5.796   1.477 -0.7452 -0.0162 -0.0436
 1156TIP3   OH224958   2.699   6.044  11.449  0.3810 -0.7888  0.5886
 1156TIP3    H124959   2.624   6.016  11.396 -0.9437 -0.5918  2.2769
 1156TIP3    H224960   2.662   6.105  11.512  2.3410  0.8471  0.2511
 1157TIP3   OH224961   3.858   3.116  12.154 -0.2525  0.3235 -0.3545
 1157TIP3    H124962   3.924   3.134  12.220 -1.1056 -0.8085  0.8616
 1157TIP3    H224963   3.852   3.197  12.103  0.0860  1.4176  1.2627
 1158TIP3   OH224964   2.784   0.879   3.174  0.1833 -0.3996 -0.1693
 1158TIP3    H124965   2.709   0.930   3.145 -0.1322 -0.9772 -0.3759
 1158TIP3    H224966   2.860   0.934   3.153 -0.2241  0.7935  1.2659
 1159TIP3   OH224967   1.245   2.756   5.121 -0.4442 -0.2806 -0.6442
 1159TIP3    H124968   1.173   2.695   5.134 -1.4337  0.7697 -1.0640
 1159TIP3    H224969   1.225   2.799   5.038  0.9654 -0.3586 -1.0487
 1160TIP3   OH224970   3.981   5.062  14.894 -0.2931 -0.5101  0.2050
 1160TIP3    H124971   3.997   5.141  14.945 -0.7758  1.6050 -2.6730
 1160TIP3    H224972   3.899   5.027  14.928 -0.6587  0.8769  0.8057
 1161TIP3   OH224973   3.528   0.801   0.433 -0.2679 -0.0501  0.2562
 1161TIP3    H124974   3.559   0.891   0.421  1.2258 -0.4829  0.6892
 1161TIP3    H224975   3.433   0.809   0.436 -0.3028  1.2094 -2.1549
 1162TIP3   OH224976   0.041   3.607  12.945 -0.5281  0.1710  0.2215
 1162TIP3    H124977   0.017   3.568  12.862  0.5942  2.7727 -1.4482
 1162TIP3    H224978   0.132   3.633  12.934 -0.2179  0.2221  2.4374
 1163TIP3   OH224979   3.180   6.111  16.756  0.1950  0.1566 -0.7050
 1163TIP3    H124980   3.233   6.034  16.735 -1.0839 -1.1072  0.5237
 1163TIP3    H224981   3.243   6.183  16.759  1.8233 -1.2485  0.5134
 1164TIP3   OH224982   5.162   4.513   0.442  0.1231  0.0942 -0.2412
 1164TIP3    H124983   5.231   4.537   0.504 -0.7646  1.2980  0.3381
 1164TIP3    H224984   5.125   4.432   0.476  0.2147  0.2928  0.3373
 1165TIP3   OH224985   3.205   4.820   1.973  0.4641 -0.0132  0.2810
 1165TIP3    H124986   3.218   4.794   1.881  0.8710  0.8427  0.0806
 1165TIP3    H224987   3.150   4.751   2.010  0.0119 -0.1961 -0.6974
 1166TIP3   OH224988   0.361   0.972  13.678 -0.1641 -0.8184 -0.7127
 1166TIP3    H124989   0.275   1.012  13.665 -0.6512 -1.3875  0.5598
 1166TIP3    H224990   0.364   0.953  13.772  1.9443  0.5404 -0.4270
 1167TIP3   OH224991   2.502   4.355  14.695  0.7613  0.2583 -0.1024
 1167TIP3    H124992   2.438   4.287  14.673  1.5469 -0.7979  0.7714
 1167TIP3    H224993   2.496   4.418  14.623 -0.8078 -0.1326 -0.3484
 1168TIP3   OH224994   5.574   1.111   0.682 -0.3146 -0.3354 -0.0189
 1168TIP3    H124995   5.596   1.020   0.662 -1.9953 -1.0070  1.0256
 1168TIP3    H224996   5.652   1.160   0.656  0.7494 -2.0895 -0.3205
 1169TIP3   OH224997   3.153   1.029   2.300  0.0670  0.1040  0.2588
 1169TIP3    H124998   3.147   1.122   2.278  0.2661  0.2029  0.6070
 1169TIP3    H224999   3.156   1.028   2.396 -0.1688 -0.2752  0.2616
 1170TIP3   OH225000   3.642   2.410   0.714 -0.3299  0.4469  0.2439
 1170TIP3    H125001   3.560   2.415   0.666 -0.1888  1.4638  0.0873
 1170TIP3    H225002   3.617   2.384   0.803 -0.9618  1.9320  0.5244
 1171TIP3   OH225003   6.823   2.011   0.068  0.2404  0.2021 -0.1600
 1171TIP3    H125004   6.745   1.964   0.095 -0.1431  0.5997 -0.5523
 1171TIP3    H225005   6.798   2.103   0.070  0.8770  0.3733  0.2748
 1172TIP3   OH225006   3.959   3.408   4.182  0.2392 -0.0229  0.4315
 1172TIP3    H125007   3.888   3.350   4.153  0.8706 -0.2563 -0.6913
 1172TIP3    H225008   3.915   3.473   4.236 -0.9546  0.1691 -0.6970
 1173TIP3   OH225009   1.831   3.619   1.920 -0.2837 -0.0372  0.5362
 1173TIP3    H125010   1.839   3.525   1.909  1.7955  0.1897 -0.3802
 1173TIP3    H225011   1.858   3.635   2.011 -1.9143 -0.4204  1.1085
 1174TIP3   OH225012   2.255   4.299   3.877  0.2834  0.0934 -0.2713
 1174TIP3    H125013   2.275   4.377   3.929 -1.0046  0.0896  0.2625
 1174TIP3    H225014   2.326   4.294   3.813  0.5570  1.5081 -0.1052
 1175TIP3   OH225015   4.081   4.068  13.332 -0.1525  0.1128  0.7320
 1175TIP3    H125016   4.112   3.979  13.315  2.6440  1.6497 -4.3209
 1175TIP3    H225017   4.153   4.111  13.377  0.9382  0.9967 -1.6544
 1176TIP3   OH225018   4.615   4.922   0.389 -0.3713 -0.4941 -0.5084
 1176TIP3    H125019   4.689   4.864   0.408  0.6732  0.9905  0.1930
 1176TIP3    H225020   4.545   4.890   0.445  0.1259 -1.1523 -0.2391
 1177TIP3   OH225021   4.771   4.009  15.182 -0.3794 -0.9138 -0.4549
 1177TIP3    H125022   4.850   4.047  15.143 -0.8760  1.4583  0.6388
 1177TIP3    H225023   4.716   3.986  15.107  0.3619 -0.3055 -1.2098
 1178TIP3   OH225024   0.836   0.092   5.213  0.5842  0.2989  0.5558
 1178TIP3    H125025   0.915   0.120   5.261  0.3755  0.4546  0.8142
 1178TIP3    H225026   0.800   0.174   5.178 -0.4931  0.5010  2.0134
 1179TIP3   OH225027   3.524   1.896   4.451 -0.2969  0.0593 -0.1285
 1179TIP3    H125028   3.559   1.898   4.540 -1.4440  0.8587  0.3319
 1179TIP3    H225029   3.471   1.816   4.448  0.1735 -0.2505 -0.2748
 1180TIP3   OH225030   2.574   2.363  12.858 -1.1672 -0.5668 -0.5389
 1180TIP3    H125031   2.573   2.330  12.947 -0.7934  0.0842 -0.2909
 1180TIP3    H225032   2.654   2.415  12.852 -2.2381  1.1476 -0.5923
 1181TIP3   OH225033   5.669   0.207  12.219 -0.1931 -0.3664  0.5530
 1181TIP3    H125034   5.726   0.175  12.289  2.1445  1.0038 -0.6016
 1181TIP3    H225035   5.718   0.192  12.138 -1.7567  0.3010 -0.5893
 1182TIP3   OH225036   1.176   2.805   0.600 -0.2464  0.2512  0.0062
 1182TIP3    H125037   1.162   2.834   0.510  1.3977 -1.0593 -0.7374
 1182TIP3    H225038   1.092   2.770   0.627 -1.0685  1.6608 -0.6121
 1183TIP3   OH225039   6.363   2.641   6.076 -0.4803 -0.5663 -0.6308
 1183TIP3    H125040   6.290   2.636   6.013 -1.2805  0.9787  0.1305
 1183TIP3    H225041   6.432   2.687   6.029 -0.4307 -0.9512 -0.9439
 1184TIP3   OH225042   0.481   4.044  16.421  0.4301  0.6373  0.5057
 1184TIP3    H125043   0.397   4.025  16.380 -0.2058 -0.6049  2.3041
 1184TIP3    H225044   0.486   4.140  16.420 -0.6711  0.7097 -0.2402
 1185TIP3   OH225045   1.638   0.659  12.116  0.4056  0.4871  0.2213
 1185TIP3    H125046   1.554   0.626  12.148  0.2910  0.6015  0.0398
 1185TIP3    H225047   1.697   0.650  12.191  0.9291 -2.0371 -0.4247
 1186TIP3   OH225048   1.158   2.336   4.215 -0.2341 -0.7571 -1.0929
 1186TIP3    H125049   1.165   2.275   4.142  0.6235 -0.5365 -1.2058
 1186TIP3    H225050   1.244   2.377   4.220  0.0909 -1.5658  0.7555
 1187TIP3   OH225051   1.963   6.092  14.268 -0.9975 -0.0258  0.0169
 1187TIP3    H125052   1.938   6.017  14.215 -0.0346 -1.0939  1.0321
 1187TIP3    H225053   1.886   6.150  14.265 -2.0863 -1.4295 -0.0730
 1188TIP3   OH225054   0.876   2.389  17.223 -0.0616 -0.0086  0.0306
 1188TIP3    H125055   0.794   2.401  17.174  0.6230  1.9646 -0.7373
 1188TIP3    H225056   0.873   2.298  17.253 -0.9227 -1.0658 -2.9192
 1189TIP3   OH225057   5.234   3.566   2.570  0.0361  0.3816 -0.6876
 1189TIP3    H125058   5.152   3.548   2.617 -0.4191  0.2213 -1.5293
 1189TIP3    H225059   5.241   3.662   2.571 -0.2490  0.4031 -0.7613
 1190TIP3   OH225060   5.663   1.810   3.769 -0.2590 -0.5989 -0.9396
 1190TIP3    H125061   5.612   1.730   3.777 -1.6571  0.3219 -0.2952
 1190TIP3    H225062   5.680   1.820   3.675 -0.2780 -1.5051 -1.0398
 1191TIP3   OH225063   2.938   2.675  14.513 -0.3223  0.2200 -0.1034
 1191TIP3    H125064   2.850   2.700  14.485 -0.3442  1.0686  0.6710
 1191TIP3    H225065   2.995   2.699  14.440 -0.6987 -0.1188 -0.5146
 1192TIP3   OH225066   4.730   4.841  12.075  0.0148 -0.9236  0.4099
 1192TIP3    H125067   4.803   4.834  12.136  0.6687  0.4847 -0.1767
 1192TIP3    H225068   4.681   4.759  12.087  0.2221 -0.7900  2.6741
 1193TIP3   OH225069   5.411   2.856  14.587 -0.1587  0.2883 -0.2889
 1193TIP3    H125070   5.470   2.927  14.561 -0.1027 -0.0142 -1.0330
 1193TIP3    H225071   5.328   2.878  14.544 -0.3314  0.2545  0.0305
 1194TIP3   OH225072   2.191   3.568  16.689  0.6402  0.3497 -0.6030
 1194TIP3    H125073   2.208   3.661  16.700 -0.1104  0.8008 -2.7594
 1194TIP3    H225074   2.267   3.525  16.730 -0.2984  1.7123  2.9362
 1195TIP3   OH225075   6.327   5.754  12.457  0.4784  0.0485 -0.5104
 1195TIP3    H125076   6.271   5.691  12.503  0.8991 -2.2476 -2.8810
 1195TIP3    H225077   6.303   5.839  12.494 -1.5133 -1.2756  1.5167
 1196TIP3   OH225078   4.399   4.961  12.983 -0.6052 -0.7926 -0.4809
 1196TIP3    H125079   4.316   5.003  13.003 -0.6500 -1.2763  0.4224
 1196TIP3    H225080   4.405   4.889  13.046  1.4913  0.5296  0.9870
 1197TIP3   OH225081   5.072   2.614   3.399  0.4303  0.3702 -0.0617
 1197TIP3    H125082   5.021   2.562   3.338  0.0951  1.9246 -1.1602
 1197TIP3    H225083   5.163   2.599   3.373  0.2969  0.9239 -0.8926
 1198TIP3   OH225084   1.823   4.930  14.235 -0.5026 -0.7981 -0.1697
 1198TIP3    H125085   1.856   4.979  14.311  0.0349 -0.4330 -0.6294
 1198TIP3    H225086   1.897   4.928  14.174 -0.6642 -1.7986 -0.3496
 1199TIP3   OH225087   0.944   2.090   5.250 -0.2595 -0.5199  1.0106
 1199TIP3    H125088   0.861   2.063   5.288 -1.5027 -1.0523 -1.8114
 1199TIP3    H225089   0.933   2.183   5.231  0.9953  0.1795  3.3373
 1200TIP3   OH225090   5.781   4.427  13.842 -0.1238 -0.1955  0.2005
 1200TIP3    H125091   5.835   4.422  13.763  0.2446 -1.7391  0.5179
 1200TIP3    H225092   5.722   4.501  13.826  3.4680  3.1087  0.7395
 1201TIP3   OH225093   0.539   3.951   2.891 -0.1803  0.0842 -0.5546
 1201TIP3    H125094   0.512   3.938   2.982  1.6825  1.4336  0.2657
 1201TIP3    H225095   0.562   3.863   2.860 -2.0377 -0.5732 -0.1839
 1202TIP3   OH225096   4.002   3.142  12.380 -0.7931  0.5332  0.2502
 1202TIP3    H125097   4.084   3.092  12.380  0.1128  1.9582 -0.0404
 1202TIP3    H225098   3.974   3.142  12.471 -1.4863 -1.4913  0.0975
 1203TIP3   OH225099   4.842   1.714  12.898 -0.1663  0.0060 -0.0423
 1203TIP3    H125100   4.906   1.720  12.827 -1.9928 -1.1679 -1.9001
 1203TIP3    H225101   4.787   1.639  12.875 -1.2363 -0.0107  2.3038
 1204TIP3   OH225102   5.610   6.125   4.550 -1.1245  0.3869  0.3460
 1204TIP3    H125103   5.543   6.061   4.524 -0.8488  0.5369 -0.7424
 1204TIP3    H225104   5.576   6.209   4.522 -1.4785  0.7502  1.7717
 1205TIP3   OH225105   5.303   4.715  13.374 -0.0951  0.1399  0.8992
 1205TIP3    H125106   5.366   4.776  13.410 -1.1231  1.3348  0.7344
 1205TIP3    H225107   5.237   4.704  13.443 -0.7006  0.4033  0.3730
 1206TIP3   OH225108   3.808   2.239  12.526 -0.0852 -0.0580 -0.1852
 1206TIP3    H125109   3.889   2.271  12.486  0.3595 -2.5089 -1.4795
 1206TIP3    H225110   3.739   2.267  12.466  0.0662  0.1505 -0.2615
 1207TIP3   OH225111   0.738   4.986  12.229 -0.2345  0.4611  0.0142
 1207TIP3    H125112   0.720   4.896  12.203 -0.7415 -0.0615  1.9676
 1207TIP3    H225113   0.667   5.008  12.290  1.1258  1.3370  1.3717
 1208TIP3   OH225114   1.515   4.919   1.595  0.4535  0.7573  0.0038
 1208TIP3    H125115   1.483   5.009   1.593  1.5616  1.1592 -0.1922
 1208TIP3    H225116   1.501   4.890   1.685  1.9072  1.8057  0.5883
 1209TIP3   OH225117   2.016   3.654   1.656  0.1870  0.2468  0.0064
 1209TIP3    H125118   1.973   3.576   1.693  1.9804 -0.6148  0.3726
 1209TIP3    H225119   1.956   3.726   1.677 -0.2225 -0.6185  2.1356
 1210TIP3   OH225120   4.282   5.805  14.324 -0.4048 -0.3800 -0.1568
 1210TIP3    H125121   4.350   5.783  14.387  0.2036 -0.4783 -0.8358
 1210TIP3    H225122   4.203   5.762  14.357  0.0142 -0.8137  0.2879
 1211TIP3   OH225123   0.122   0.963  15.591 -0.6289  0.8650 -0.4355
 1211TIP3    H125124   0.098   1.046  15.550 -0.2984  1.2174  0.0859
 1211TIP3    H225125   0.038   0.924  15.615 -0.7803  1.0960 -0.5834
 1212TIP3   OH225126   5.879   5.049  11.458 -0.0018 -0.9609 -0.0972
 1212TIP3    H125127   5.870   4.954  11.454 -0.4228 -0.8999 -0.7418
 1212TIP3    H225128   5.973   5.065  11.452  0.0831 -1.3358  0.1605
 1213TIP3   OH225129   2.800   2.149  12.784 -0.2054  0.2041  0.6731
 1213TIP3    H125130   2.757   2.063  12.781  0.4036 -0.0686 -0.5822
 1213TIP3    H225131   2.812   2.173  12.693  1.1489  0.8683  1.0087
 1214TIP3   OH225132   0.339   3.113   1.913  0.1403  0.0226  0.4768
 1214TIP3    H125133   0.289   3.164   1.977 -1.4661  0.3720 -0.9603
 1214TIP3    H225134   0.276   3.094   1.843  0.9001 -3.2314  0.5118
 1215TIP3   OH225135   2.536   5.955   0.360 -0.3045 -0.3062  0.0630
 1215TIP3    H125136   2.485   5.945   0.441 -0.1579 -1.1694  0.0536
 1215TIP3    H225137   2.477   6.001   0.300  0.1564  1.9138  1.1860
 1216TIP3   OH225138   3.230   6.116  14.104  0.0597 -0.2697  0.0295
 1216TIP3    H125139   3.319   6.101  14.074 -1.1190 -0.8999 -3.6851
 1216TIP3    H225140   3.223   6.212  14.111  0.9867 -0.2140  0.4018
 1217TIP3   OH225141   5.822   4.467   0.359 -0.1042  0.5280  0.2471
 1217TIP3    H125142   5.795   4.375   0.350 -0.0259  0.4792  0.4941
 1217TIP3    H225143   5.895   4.476   0.297 -0.3323  0.5147 -0.0229
 1218TIP3   OH225144   0.804   5.558  13.557 -0.3936  0.4020 -0.5436
 1218TIP3    H125145   0.767   5.580  13.472  1.5909 -0.0257 -1.5843
 1218TIP3    H225146   0.797   5.462  13.562  1.5083  0.1778 -1.2913
 1219TIP3   OH225147   6.279   2.095   5.313  0.2695  0.0213  0.2167
 1219TIP3    H125148   6.364   2.110   5.356  0.7584  0.0790 -0.7315
 1219TIP3    H225149   6.285   2.004   5.281  0.3865  0.3508 -0.7272
 1220TIP3   OH225150   1.195   0.122   3.732  0.4495  0.1817  0.2553
 1220TIP3    H125151   1.171   0.109   3.640 -1.1376 -0.4258  0.7131
 1220TIP3    H225152   1.120   0.168   3.769 -2.0214 -4.8923  2.6147
 1221TIP3   OH225153   0.709   6.325  16.714  0.1847  0.2152 -0.6708
 1221TIP3    H125154   0.724   6.379  16.792 -0.5359  0.3770 -0.6366
 1221TIP3    H225155   0.617   6.302  16.719 -0.0122  0.7135 -1.7834
 1222TIP3   OH225156   6.174   6.004   2.051 -0.3597 -0.0054  0.2042
 1222TIP3    H125157   6.217   5.929   2.092  1.0957  1.4362  1.4418
 1222TIP3    H225158   6.123   6.044   2.121 -0.7492  0.4439 -0.3309
 1223TIP3   OH225159   1.821   3.867  12.793  0.2003  0.3596  0.2706
 1223TIP3    H125160   1.798   3.830  12.708 -0.7543  1.1794  0.1641
 1223TIP3    H225161   1.853   3.792  12.844 -0.2042 -0.3183 -0.4584
 1224TIP3   OH225162   5.235   5.248   4.737  0.1950  0.1406  0.3167
 1224TIP3    H125163   5.281   5.192   4.799  0.3131 -1.2735 -0.9942
 1224TIP3    H225164   5.271   5.223   4.652 -1.0417  0.9677 -0.4688
 1225TIP3   OH225165   6.467   4.408   2.557  0.1259  0.0635  0.0437
 1225TIP3    H125166   6.469   4.401   2.461  0.4241 -2.6488  0.1762
 1225TIP3    H225167   6.526   4.340   2.587 -0.7005  0.2205  2.1972
 1226TIP3   OH225168   4.168   0.505   3.149  0.0544 -0.4906 -0.1044
 1226TIP3    H125169   4.141   0.522   3.059 -2.0576 -2.5689  0.0073
 1226TIP3    H225170   4.104   0.552   3.203 -0.3770 -1.4490  0.2469
 1227TIP3   OH225171   0.014   5.057  10.746  0.9268 -0.0184  0.1198
 1227TIP3    H125172   0.017   4.964  10.770  0.9694 -0.1620 -0.4192
 1227TIP3    H225173   0.074   5.064  10.672  1.6488  0.6293  0.7491
 1228TIP3   OH225174   6.404   1.631   2.933 -0.0871  0.1482  1.2202
 1228TIP3    H125175   6.450   1.711   2.957 -0.4059  0.4479  0.8341
 1228TIP3    H225176   6.416   1.623   2.839  0.2521 -0.4597  1.3065
 1229TIP3   OH225177   3.464   6.089  14.881  0.0391  0.4979 -0.5346
 1229TIP3    H125178   3.419   6.014  14.843  0.5674  0.0655 -0.3207
 1229TIP3    H225179   3.541   6.052  14.924  0.0325  1.1013  0.0226
 1230TIP3   OH225180   6.579   0.320   3.864  0.0449 -0.4037 -0.6730
 1230TIP3    H125181   6.486   0.299   3.851 -0.1377 -0.9444  1.2189
 1230TIP3    H225182   6.624   0.236   3.861  0.2500 -0.3251  0.0185
 1231TIP3   OH225183   4.370   1.639   2.528 -0.4695  0.0338 -0.1639
 1231TIP3    H125184   4.327   1.723   2.513  1.3874  1.3547  1.4569
 1231TIP3    H225185   4.416   1.650   2.612  2.0765 -1.6083 -1.2179
 1232TIP3   OH225186   4.807   4.680  14.749  0.2899 -0.7298  0.3327
 1232TIP3    H125187   4.901   4.665  14.758  0.7156  1.1468 -0.5571
 1232TIP3    H225188   4.769   4.636  14.826  1.9322 -1.0621  1.0068
 1233TIP3   OH225189   1.806   1.596   2.536  0.6986 -0.7034 -0.4571
 1233TIP3    H125190   1.808   1.684   2.497  0.7804  0.3606  1.8048
 1233TIP3    H225191   1.889   1.588   2.582 -1.1092  0.0475  3.3318
 1234TIP3   OH225192   1.421   4.365   5.896 -0.3973  0.0824 -0.4506
 1234TIP3    H125193   1.449   4.438   5.950 -1.7082 -0.2082  0.6893
 1234TIP3    H225194   1.469   4.289   5.930  0.3422  0.2523 -1.0908
 1235TIP3   OH225195   1.363   1.872   4.343 -0.1832  0.0198 -0.4262
 1235TIP3    H125196   1.353   1.967   4.334 -0.0319  0.0690 -0.0876
 1235TIP3    H225197   1.450   1.853   4.307  0.5881  0.2693  1.2396
 1236TIP3   OH225198   0.668   3.512   4.549  0.4502 -0.4147 -0.4867
 1236TIP3    H125199   0.617   3.440   4.513 -0.8061 -0.9818  2.1646
 1236TIP3    H225200   0.664   3.498   4.644  1.1387  2.5061  0.0506
 1237TIP3   OH225201   6.169   6.031  13.279 -0.0894 -0.2998  0.2403
 1237TIP3    H125202   6.173   6.013  13.185 -0.9695  0.4620  0.0463
 1237TIP3    H225203   6.157   6.125  13.286  1.2979 -0.1541  1.1700
 1238TIP3   OH225204   2.716   3.266   5.002 -0.2341 -0.4841 -0.0877
 1238TIP3    H125205   2.743   3.207   5.073  0.4298 -0.2565 -0.1457
 1238TIP3    H225206   2.715   3.210   4.924 -1.1182 -0.7714  0.1203
 1239TIP3   OH225207   3.290   4.040  11.947  0.3065 -0.1806  0.4328
 1239TIP3    H125208   3.281   4.065  11.855 -0.9894 -0.2396  0.5161
 1239TIP3    H225209   3.377   4.003  11.954  1.3593  1.9735 -0.2634
 1240TIP3   OH225210   5.962   3.618  16.667 -1.1989 -0.1188  0.7239
 1240TIP3    H125211   6.036   3.587  16.718 -0.3017 -0.2992 -0.6213
 1240TIP3    H225212   6.001   3.657  16.589 -2.5115 -0.0374  0.0709
 1241TIP3   OH225213   0.260   2.530  11.922  0.0522  0.5091  0.3026
 1241TIP3    H125214   0.213   2.559  12.000  0.4383  2.4419 -0.1162
 1241TIP3    H225215   0.343   2.577  11.926  1.4802 -1.8562  0.3730
 1242TIP3   OH225216   1.278   0.310   0.349  0.1282  0.6032 -0.4713
 1242TIP3    H125217   1.356   0.256   0.362 -0.0961  0.7126  1.7734
 1242TIP3    H225218   1.205   0.248   0.354 -0.0432  0.8521  0.2034
 1243TIP3   OH225219   6.513   4.581   2.882  0.0636  0.3575  0.4643
 1243TIP3    H125220   6.526   4.626   2.799  0.7518  0.4289  0.6033
 1243TIP3    H225221   6.488   4.492   2.859  0.2589  0.3760  0.1811
 1244TIP3   OH225222   4.930   4.634   5.323  0.3729 -0.3056  0.3302
 1244TIP3    H125223   5.004   4.610   5.267 -0.3487 -1.3239 -0.2192
 1244TIP3    H225224   4.921   4.561   5.384  0.1766  0.0881  0.7799
 1245TIP3   OH225225   4.685   1.004  15.269 -0.0101  0.6298  0.2521
 1245TIP3    H125226   4.659   1.008  15.361 -0.9087 -2.2220  0.1998
 1245TIP3    H225227   4.780   1.012  15.271 -0.1033  1.7051  1.3092
 1246TIP3   OH225228   6.712   2.754  10.524 -0.0512 -0.3278 -0.4667
 1246TIP3    H125229   6.723   2.820  10.456  0.1900 -1.6767 -1.7982
 1246TIP3    H225230   6.800   2.716  10.534 -0.4546 -1.3383 -0.6868
 1247TIP3   OH225231   4.938   6.271   2.962  0.6544  0.6597 -0.2260
 1247TIP3    H125232   4.868   6.271   3.027  0.9416 -0.3953  0.1179
 1247TIP3    H225233   5.017   6.255   3.013  0.5228 -4.3395 -1.0324
 1248TIP3   OH225234   5.620   6.460  15.415 -0.1457  0.0838  0.0199
 1248TIP3    H125235   5.620   6.542  15.465 -1.0728  0.7624 -1.0537
 1248TIP3    H225236   5.528   6.438  15.403  0.0184  0.2151 -1.7870
 1249TIP3   OH225237   3.555   6.530  15.201 -0.3042 -0.0637 -0.3471
 1249TIP3    H125238   3.596   6.494  15.281  0.8343 -0.4158 -1.0680
 1249TIP3    H225239   3.465   6.497  15.204 -0.1133 -0.5416  0.5126
 1250TIP3   OH225240   4.944   0.360  14.792 -0.2447 -0.2177 -0.5007
 1250TIP3    H125241   4.873   0.355  14.728 -0.9921 -1.3131  0.3675
 1250TIP3    H225242   4.950   0.271  14.827  0.8001  0.1384  0.2592
 1251TIP3   OH225243   4.925   3.978   4.850 -0.0931 -0.3359  0.3447
 1251TIP3    H125244   4.875   3.931   4.917 -0.0014  0.1498  0.7642
 1251TIP3    H225245   5.017   3.960   4.870 -0.0806 -0.8572 -0.1522
 1252TIP3   OH225246   5.874   0.730   4.649 -0.1486 -0.1972  0.5717
 1252TIP3    H125247   5.878   0.748   4.743  0.2867 -0.2874  0.5700
 1252TIP3    H225248   5.825   0.804   4.613 -0.5649 -0.3025  0.9047
 1253TIP3   OH225249   3.737   1.461   2.847 -0.2864  0.0676 -0.0555
 1253TIP3    H125250   3.701   1.528   2.788 -1.7565 -2.0910 -1.7792
 1253TIP3    H225251   3.819   1.434   2.806 -0.8508 -0.7842 -0.6526
 1254TIP3   OH225252   3.872   1.270   3.951 -0.1019 -0.1887  0.1191
 1254TIP3    H125253   3.964   1.272   3.975  0.0038 -2.2624  0.0637
 1254TIP3    H225254   3.837   1.355   3.980  1.6701  0.3808  0.6743
 1255TIP3   OH225255   5.860   4.525  14.971  0.2168 -0.0670  0.3000
 1255TIP3    H125256   5.931   4.580  14.940  0.9251 -0.5164  1.0784
 1255TIP3    H225257   5.782   4.580  14.963  0.6439  0.4372 -0.5447
 1256TIP3   OH225258   4.224   1.238   5.120  0.2047 -0.1738 -0.0265
 1256TIP3    H125259   4.175   1.187   5.184  0.5644 -0.0842  0.3194
 1256TIP3    H225260   4.312   1.202   5.123  0.1345 -0.4388 -0.7577
 1257TIP3   OH225261   1.894   0.603  15.768 -0.1551 -0.0186 -0.3388
 1257TIP3    H125262   1.958   0.545  15.726 -0.1049  0.5487 -1.0690
 1257TIP3    H225263   1.892   0.574  15.859  0.9187 -0.2445 -0.3703
 1258TIP3   OH225264   3.707   4.350   4.754 -0.3117 -0.3654 -0.3781
 1258TIP3    H125265   3.741   4.428   4.797 -0.1116 -0.4468 -0.3864
 1258TIP3    H225266   3.761   4.341   4.675 -0.4558 -0.4056 -0.4724
 1259TIP3   OH225267   2.879   2.609  11.799 -0.6737 -0.4480 -0.3229
 1259TIP3    H125268   2.823   2.546  11.755 -1.5604  0.1288 -0.0469
 1259TIP3    H225269   2.877   2.687  11.743  0.0616 -0.5081 -0.4416
 1260TIP3   OH225270   4.304   2.439  15.468 -0.1369 -0.6696 -0.2700
 1260TIP3    H125271   4.356   2.475  15.540  0.2359 -0.3232 -0.7173
 1260TIP3    H225272   4.304   2.344  15.485  0.5278 -0.6604 -0.2001
 1261TIP3   OH225273   4.488   1.974   4.653  0.6216  0.3932  0.4684
 1261TIP3    H125274   4.479   1.941   4.743 -0.7871  0.2194  0.2909
 1261TIP3    H225275   4.451   2.062   4.656  0.1539  0.2194 -0.0280
 1262TIP3   OH225276   3.141   4.949   4.244 -0.5191  0.1124 -0.1360
 1262TIP3    H125277   3.204   5.014   4.275 -0.2980  0.3883 -1.1107
 1262TIP3    H225278   3.146   4.955   4.149 -0.0590 -1.7558 -0.2758
 1263TIP3   OH225279   4.944   5.254   3.234  0.5248 -0.0916 -0.1061
 1263TIP3    H125280   4.864   5.292   3.198  0.5438 -1.3947 -1.6334
 1263TIP3    H225281   4.919   5.221   3.320  0.3378  2.5978  0.9541
 1264TIP3   OH225282   0.961   3.433  13.557  0.1320 -0.2901 -0.0519
 1264TIP3    H125283   1.047   3.452  13.593 -0.3272  0.8481  0.4991
 1264TIP3    H225284   0.944   3.506  13.497  0.1643 -1.2742 -1.2863
 1265TIP3   OH225285   4.902   5.482  14.723  0.0462  0.0806 -0.1486
 1265TIP3    H125286   4.982   5.498  14.775 -0.1947 -0.1533  0.2959
 1265TIP3    H225287   4.925   5.512  14.635  1.0254 -1.0640 -0.3110
 1266TIP3   OH225288   2.854   3.194  11.570  0.1764  0.3173  0.1856
 1266TIP3    H125289   2.866   3.287  11.551  0.8612  0.4229  1.0840
 1266TIP3    H225290   2.861   3.151  11.484 -1.3201  1.1737 -0.4065
 1267TIP3   OH225291   4.301   3.857   2.665 -0.0537 -0.1565  0.3601
 1267TIP3    H125292   4.251   3.884   2.588  0.4301 -1.9216 -0.6223
 1267TIP3    H225293   4.315   3.763   2.653  1.4001 -0.1666  1.8197
 1268TIP3   OH225294   3.924   2.340  14.462 -0.3493  0.2481  0.1741
 1268TIP3    H125295   3.893   2.327  14.551 -1.2293  0.2343 -0.1248
 1268TIP3    H225296   3.955   2.254  14.435 -1.8458 -0.2127 -0.1770
 1269TIP3   OH225297   3.618   0.512  11.312  0.4173 -0.5552 -0.2027
 1269TIP3    H125298   3.564   0.584  11.281 -2.0133 -1.1472  2.2723
 1269TIP3    H225299   3.703   0.552  11.331  0.5889  0.6647 -2.9451
 1270TIP3   OH225300   6.239   1.645   1.435  0.3096 -0.2379 -0.3588
 1270TIP3    H125301   6.269   1.555   1.438  1.4076  0.1432  0.9007
 1270TIP3    H225302   6.311   1.696   1.474 -0.7859  1.0376  0.0654
 1271TIP3   OH225303   0.022   0.285  16.751 -0.4899 -0.2693  0.3966
 1271TIP3    H125304   0.064   0.351  16.806 -0.7437 -0.2916  0.6226
 1271TIP3    H225305  -0.043   0.244  16.809  1.2827 -2.3690  1.0139
 1272TIP3   OH225306   0.082   4.205  12.912  0.7138  0.1070 -0.0064
 1272TIP3    H125307   0.177   4.198  12.905  0.5984  0.1050 -2.1097
 1272TIP3    H225308   0.058   4.272  12.848 -0.8164 -1.0060 -0.6614
 1273TIP3   OH225309   4.539   2.493   0.511 -0.3475 -0.2041  0.0934
 1273TIP3    H125310   4.460   2.541   0.536  0.5715  2.1521 -1.2569
 1273TIP3    H225311   4.598   2.505   0.585 -0.0174  1.0887 -0.3510
 1274TIP3   OH225312   2.100   4.756  17.291  0.1696 -0.3807  0.4945
 1274TIP3    H125313   2.192   4.736  17.312 -0.3411 -0.4160  3.0887
 1274TIP3    H225314   2.088   4.846  17.320 -0.7264 -0.5501  0.6946
 1275TIP3   OH225315   4.750   3.250  15.008  0.4483  0.1224 -0.0533
 1275TIP3    H125316   4.764   3.179  15.070  2.0170 -1.1440 -1.7349
 1275TIP3    H225317   4.700   3.316  15.057 -0.1208 -1.6532  1.8812
 1276TIP3   OH225318   2.625   5.281   5.389  0.2785  0.0174  0.7101
 1276TIP3    H125319   2.577   5.363   5.382  1.0981  0.5636  1.3206
 1276TIP3    H225320   2.562   5.220   5.429 -0.5515  0.1338 -0.3643
 1277TIP3   OH225321   6.749   4.232   2.883  0.3195 -0.3294 -0.2332
 1277TIP3    H125322   6.674   4.224   2.941  1.5580 -1.3618  1.3040
 1277TIP3    H225323   6.796   4.309   2.913  0.5186 -0.3785 -0.4121
 1278TIP3   OH225324   4.937   5.927  16.124 -0.2541 -0.4776  0.2842
 1278TIP3    H125325   4.983   5.853  16.165  0.5864  0.9166  1.9714
 1278TIP3    H225326   4.879   5.886  16.061  1.3606 -2.4965 -0.0114
 1279TIP3   OH225327   1.269   1.955  14.741 -0.4125 -0.6052  0.5378
 1279TIP3    H125328   1.277   1.997  14.826  0.0024 -1.1255  0.7600
 1279TIP3    H225329   1.202   2.006  14.695  1.2951  1.4293  0.1164
 1280TIP3   OH225330   0.275   5.109  13.469 -0.2193  0.1615 -0.1030
 1280TIP3    H125331   0.274   5.174  13.539 -0.0196  1.1826 -1.0225
 1280TIP3    H225332   0.366   5.079  13.465  0.1677  1.3849 -1.0494
 1281TIP3   OH225333   5.159   1.824   1.470  0.0086 -0.4802  0.5883
 1281TIP3    H125334   5.097   1.897   1.458  0.6557  0.2879  1.7882
 1281TIP3    H225335   5.242   1.857   1.435 -0.1938 -1.4682 -0.9124
 1282TIP3   OH225336   3.249   2.618  16.554 -0.2342 -0.0274  0.5610
 1282TIP3    H125337   3.278   2.665  16.632  1.1957  0.3822 -0.1860
 1282TIP3    H225338   3.186   2.554  16.587  1.1609 -0.6207  2.2213
 1283TIP3   OH225339   4.734   2.053  15.382 -0.6605  0.1486  0.2767
 1283TIP3    H125340   4.708   1.991  15.451  0.3400  0.8556  1.3240
 1283TIP3    H225341   4.684   2.132  15.400  0.8558  0.9305  1.2794
 1284TIP3   OH225342   5.126   5.273  14.614 -0.1823  0.0062  0.2362
 1284TIP3    H125343   5.206   5.236  14.653  0.6683  1.0893 -0.4232
 1284TIP3    H225344   5.148   5.285  14.522 -1.0147  0.6034  0.1099
 1285TIP3   OH225345   0.667   4.079   4.244  0.0095  0.0226 -0.3953
 1285TIP3    H125346   0.572   4.064   4.243 -0.0372 -0.3231  2.0469
 1285TIP3    H225347   0.676   4.174   4.251 -0.0686  0.2092 -2.3767
 1286TIP3   OH225348   3.580   1.892   3.491 -0.2226  0.3954 -0.5374
 1286TIP3    H125349   3.544   1.968   3.536 -0.2092  0.4461 -0.6113
 1286TIP3    H225350   3.674   1.894   3.512  0.0723  1.3085 -1.8181
 1287TIP3   OH225351   2.794   1.335  14.874  0.4655  0.2826  0.4681
 1287TIP3    H125352   2.752   1.288  14.802 -0.1281  0.3067  0.7911
 1287TIP3    H225353   2.795   1.427  14.846 -0.5141  0.4113  0.8356
 1288TIP3   OH225354   4.455   2.364  10.935 -0.0920 -0.6157  0.2922
 1288TIP3    H125355   4.472   2.314  10.855  1.5175 -0.9154  0.7873
 1288TIP3    H225356   4.534   2.353  10.987  1.6545  4.6629 -0.6839
 1289TIP3   OH225357   2.554   2.523  14.262 -0.3725  0.5866  0.3526
 1289TIP3    H125358   2.529   2.433  14.241  1.1183  0.0843  0.5693
 1289TIP3    H225359   2.491   2.550  14.329 -0.5380 -0.4774  0.6499
 1290TIP3   OH225360   3.872   5.588   1.565  0.0423 -0.7138  0.0310
 1290TIP3    H125361   3.801   5.653   1.558  0.0102 -0.5108  1.8427
 1290TIP3    H225362   3.853   5.540   1.646 -0.7289 -4.0275 -1.9500
 1291TIP3   OH225363   0.214   2.535   2.631 -0.5371 -0.0306 -0.0611
 1291TIP3    H125364   0.149   2.589   2.677 -2.0626 -0.7473 -1.2923
 1291TIP3    H225365   0.192   2.445   2.657  0.6524 -0.2257  0.3212
 1292TIP3   OH225366   5.687   3.461   3.568 -0.5376 -0.0830  0.4731
 1292TIP3    H125367   5.675   3.433   3.659 -1.5023  0.8641  0.6502
 1292TIP3    H225368   5.776   3.434   3.547 -1.1097 -2.5700  0.8762
 1293TIP3   OH225369   5.437   2.505   5.252  0.0236  0.2894  0.1880
 1293TIP3    H125370   5.480   2.548   5.177 -0.5655 -0.3872 -0.5582
 1293TIP3    H225371   5.365   2.564   5.275 -0.8495 -0.2978 -0.9048
 1294TIP3   OH225372   4.789   5.048  13.318  0.1537  0.4077 -0.4124
 1294TIP3    H125373   4.866   5.051  13.262 -0.3046  2.7432 -1.0256
 1294TIP3    H225374   4.731   4.985  13.276  1.7723 -1.6171  0.2261
 1295TIP3   OH225375   2.761   2.873   3.717 -0.6585  0.0572  0.6764
 1295TIP3    H125376   2.712   2.849   3.639 -0.9985  1.0108  0.5841
 1295TIP3    H225377   2.849   2.839   3.702  0.4414  3.4358 -1.9287
 1296TIP3   OH225378   1.423   1.514  14.914 -0.2821 -0.5756 -0.3753
 1296TIP3    H125379   1.419   1.544  14.824 -0.3061  0.8483  0.0698
 1296TIP3    H225380   1.515   1.495  14.930 -0.2470 -0.6206 -0.6362
 1297TIP3   OH225381   2.838   2.391  13.808  0.1788 -0.0959 -0.4619
 1297TIP3    H125382   2.845   2.418  13.900  1.5935  0.0664 -0.5920
 1297TIP3    H225383   2.807   2.301  13.812  1.5900 -0.5844  0.2664
 1298TIP3   OH225384   3.051   4.232  16.886  0.8724  0.3199 -0.1752
 1298TIP3    H125385   3.136   4.187  16.879  1.0159  0.2016  1.7702
 1298TIP3    H225386   3.026   4.221  16.978  0.1028  2.8128 -0.0303
 1299TIP3   OH225387   0.492   3.041  14.859 -0.5696 -0.6741 -0.4077
 1299TIP3    H125388   0.454   2.954  14.848 -0.8940 -0.3713 -1.7552
 1299TIP3    H225389   0.566   3.043  14.798 -0.8710  0.1642 -0.7520
 1300TIP3   OH225390   5.163   5.131   0.875  0.0094  0.2876 -0.8367
 1300TIP3    H125391   5.248   5.126   0.919 -1.9092 -1.1084  3.2189
 1300TIP3    H225392   5.129   5.218   0.895 -0.6260 -0.1401  0.0189
 1301TIP3   OH225393   2.053   1.140   2.955  0.0910  0.6189 -0.4487
 1301TIP3    H125394   2.100   1.190   3.022 -0.5324 -1.3969  1.6490
 1301TIP3    H225395   2.102   1.058   2.948 -1.3624 -0.2860 -0.4651
 1302TIP3   OH225396   4.453   2.335  14.543 -0.1939  0.2162  0.0945
 1302TIP3    H125397   4.452   2.425  14.509 -0.9255  0.1300 -0.1282
 1302TIP3    H225398   4.467   2.281  14.465  0.3781  0.1386  0.2457
 1303TIP3   OH225399   3.223   1.944   4.042  0.3215  0.2291  0.0912
 1303TIP3    H125400   3.191   2.032   4.023  1.7184  0.6240 -0.5875
 1303TIP3    H225401   3.262   1.914   3.960  2.0199 -0.0363  0.9436
 1304TIP3   OH225402   4.860   0.316  16.204 -0.4127 -0.6123 -0.9021
 1304TIP3    H125403   4.930   0.260  16.237 -0.3058 -0.0824 -0.2007
 1304TIP3    H225404   4.822   0.267  16.131 -0.6511 -1.8285  0.0038
 1305TIP3   OH225405   2.382   0.599   1.955 -0.9263  0.1459 -0.3784
 1305TIP3    H125406   2.326   0.675   1.941 -1.3582 -0.0282  0.3623
 1305TIP3    H225407   2.394   0.596   2.050 -0.2264 -0.2245 -0.4727
 1306TIP3   OH225408   2.033   2.607   2.171 -0.2494  0.0265 -0.2790
 1306TIP3    H125409   2.110   2.658   2.144  0.9871  0.0782  2.8606
 1306TIP3    H225410   1.963   2.671   2.176  0.3292  0.6635 -0.1003
 1307TIP3   OH225411   4.556   2.575  11.277  0.1232 -0.1449  0.0197
 1307TIP3    H125412   4.572   2.549  11.368  1.2661  0.1194 -0.0854
 1307TIP3    H225413   4.493   2.647  11.283  0.4977  0.1387  0.6347
 1308TIP3   OH225414   6.376   2.594  13.701  0.0727  0.0749  0.0640
 1308TIP3    H125415   6.401   2.512  13.744 -1.1281 -0.4958 -0.3072
 1308TIP3    H225416   6.405   2.583  13.610  2.1968  1.1003  0.5476
 1309TIP3   OH225417   1.749   2.891  15.059 -0.1963  0.3781  0.0666
 1309TIP3    H125418   1.688   2.965  15.068 -1.6631 -0.9069  1.4685
 1309TIP3    H225419   1.693   2.818  15.034  1.2971 -0.2118 -1.7592
 1310TIP3   OH225420   2.510   6.750  12.308 -0.3805 -0.2807  0.1758
 1310TIP3    H125421   2.597   6.713  12.323  0.4430  1.8030  0.9235
 1310TIP3    H225422   2.469   6.751  12.394  0.1066  1.5903  0.4327
 1311TIP3   OH225423   0.699   6.573  11.633  0.5606 -0.0285  0.0747
 1311TIP3    H125424   0.768   6.569  11.566  0.5866  1.8614 -0.0644
 1311TIP3    H225425   0.746   6.559  11.715  0.7214 -1.1500 -0.1966
 1312TIP3   OH225426   0.240   1.423   4.708 -0.1206  0.0075  0.2551
 1312TIP3    H125427   0.153   1.404   4.674 -0.8017  2.0116  0.7440
 1312TIP3    H225428   0.239   1.390   4.798 -0.5698  0.4418  0.4172
 1313TIP3   OH225429   5.068   3.594  12.070 -0.2177 -0.3068  0.3140
 1313TIP3    H125430   5.114   3.677  12.059 -0.0812 -0.5779 -1.3070
 1313TIP3    H225431   4.977   3.619  12.087 -0.2892  0.1687 -0.7352
 1314TIP3   OH225432   5.484   5.971   4.193  0.1117  0.0226 -0.4135
 1314TIP3    H125433   5.555   6.004   4.138 -1.2967  0.1059 -2.2589
 1314TIP3    H225434   5.459   6.047   4.247  0.4115  0.4120 -0.8134
 1315TIP3   OH225435   2.931   2.485   1.180  0.1015  0.6069  0.6575
 1315TIP3    H125436   2.965   2.461   1.266  4.3814  0.9182 -0.7166
 1315TIP3    H225437   2.970   2.570   1.162 -1.1283  0.7869 -1.3938
 1316TIP3   OH225438   1.723   6.686  16.379 -0.3331  0.6298  0.0507
 1316TIP3    H125439   1.724   6.763  16.321  1.8415  0.9697  0.4543
 1316TIP3    H225440   1.684   6.718  16.460 -3.0960  0.2360 -1.0009
 1317TIP3   OH225441   4.791   5.690   5.585  0.4452 -0.4005 -0.2129
 1317TIP3    H125442   4.770   5.609   5.631 -0.2487  0.7398  1.5704
 1317TIP3    H225443   4.706   5.729   5.565  0.7448  0.9769  1.0136
 1318TIP3   OH225444   1.227   5.658   1.927  0.0911 -0.0195 -0.0513
 1318TIP3    H125445   1.160   5.670   1.994 -0.6686  1.9549 -1.0825
 1318TIP3    H225446   1.187   5.690   1.846  2.0099  0.5748 -0.8310
 1319TIP3   OH225447   6.234   3.583   5.485  0.2598 -0.0791 -0.4033
 1319TIP3    H125448   6.319   3.541   5.479  0.6981  0.7820 -0.4420
 1319TIP3    H225449   6.254   3.677   5.490 -0.7078  0.2019 -1.2667
 1320TIP3   OH225450   1.603   5.524   5.469 -0.6052  0.4094  0.1409
 1320TIP3    H125451   1.563   5.566   5.393 -0.7211  0.0446 -0.0018
 1320TIP3    H225452   1.695   5.548   5.465 -0.6803  0.6918  0.0886
 1321TIP3   OH225453   1.739   1.408   0.152 -0.5210 -0.8251  0.0162
 1321TIP3    H125454   1.714   1.362   0.232  0.8408  0.2505  1.0989
 1321TIP3    H225455   1.768   1.339   0.093  0.0809 -1.5083  1.0725
 1322TIP3   OH225456   3.260   2.561  13.708 -0.6324 -0.3845  0.3040
 1322TIP3    H125457   3.209   2.493  13.752  1.5268 -0.7333  2.4531
 1322TIP3    H225458   3.328   2.585  13.770  1.0399  1.0218 -1.8934
 1323TIP3   OH225459   5.515   1.329  15.946 -0.1361  0.0338 -0.2913
 1323TIP3    H125460   5.423   1.354  15.949 -0.6756 -1.8795  1.3207
 1323TIP3    H225461   5.534   1.315  15.853 -2.3195 -2.3072 -0.4630
 1324TIP3   OH225462   0.184   3.442   5.784 -0.2816  0.6412  0.0476
 1324TIP3    H125463   0.185   3.405   5.696  1.4258 -0.0291  0.3035
 1324TIP3    H225464   0.092   3.442   5.809 -0.7639  0.5081 -1.5886
 1325TIP3   OH225465   3.546   6.552  10.246 -0.0707  0.0258 -0.3550
 1325TIP3    H125466   3.561   6.462  10.220 -0.2167  0.4928 -2.2450
 1325TIP3    H225467   3.456   6.570  10.218 -0.4677  0.4186  1.0858
 1326TIP3   OH225468   5.570   1.856  14.546 -0.1662  0.3673  0.6092
 1326TIP3    H125469   5.537   1.946  14.544  0.8613  0.7655  0.5925
 1326TIP3    H225470   5.507   1.808  14.599 -1.2599  0.8699 -0.2000
 1327TIP3   OH225471   5.985   5.324   4.222  0.6088  0.0588 -0.4086
 1327TIP3    H125472   6.029   5.396   4.177  0.1065 -0.3267 -1.5750
 1327TIP3    H225473   5.932   5.366   4.290 -1.3198  1.0665 -2.3887
 1328TIP3   OH225474   3.796   5.914  12.923 -0.0937 -0.4112  0.2044
 1328TIP3    H125475   3.835   5.891  13.008 -0.2133 -2.1921 -0.1703
 1328TIP3    H225476   3.858   5.880  12.858 -0.7603 -0.4949 -0.4010
 1329TIP3   OH225477   1.112   3.364   2.175 -0.5115  0.5323 -0.5174
 1329TIP3    H125478   1.021   3.369   2.204 -0.6728 -1.5243 -0.5066
 1329TIP3    H225479   1.109   3.390   2.083 -1.0539  0.8222 -0.4194
 1330TIP3   OH225480   3.573   0.003  12.316  0.5866 -0.2158  0.0756
 1330TIP3    H125481   3.562   0.062  12.391  2.7804 -1.2542  1.3064
 1330TIP3    H225482   3.616  -0.074  12.353  1.1726 -1.0253 -2.1634
 1331TIP3   OH225483   4.545   2.411   4.134 -0.4944 -0.2275 -0.2700
 1331TIP3    H125484   4.632   2.417   4.173 -0.5911  1.5358 -0.2586
 1331TIP3    H225485   4.497   2.351   4.191  0.5883 -0.9229 -0.0620
 1332TIP3   OH225486   2.432   2.244  15.632 -0.5374 -0.4338  0.5940
 1332TIP3    H125487   2.342   2.221  15.658 -0.9900 -0.5698 -1.0134
 1332TIP3    H225488   2.440   2.213  15.542  0.4314  1.4118 -0.0195
 1333TIP3   OH225489   3.538   2.077   3.683 -0.3418 -0.4414  0.0938
 1333TIP3    H125490   3.614   2.105   3.734  0.1250  0.0834 -0.8571
 1333TIP3    H225491   3.511   1.995   3.723  0.2970 -0.2831  0.8811
 1334TIP3   OH225492   6.726   2.964   2.813  0.6484  0.2240 -0.3288
 1334TIP3    H125493   6.734   2.884   2.762 -2.8431  0.1466 -0.9999
 1334TIP3    H225494   6.783   3.027   2.768  3.2922 -1.7017  0.0943
 1335TIP3   OH225495   3.978   4.718   1.232 -0.5189 -0.2620 -0.4198
 1335TIP3    H125496   4.071   4.742   1.225 -0.8857  1.2065 -0.6844
 1335TIP3    H225497   3.941   4.741   1.147 -1.0189 -1.4383 -0.5366
 1336TIP3   OH225498   0.213   4.902   0.364  0.7247 -0.3142 -0.4373
 1336TIP3    H125499   0.254   4.871   0.283  0.6956  0.3809 -0.7243
 1336TIP3    H225500   0.253   4.988   0.379  1.7409 -1.0029  1.0264
 1337TIP3   OH225501   5.178   4.979  13.436 -0.5203 -0.0455  0.0492
 1337TIP3    H125502   5.109   4.914  13.422 -0.6341  0.0873 -0.0077
 1337TIP3    H225503   5.256   4.928  13.457 -0.3726 -0.2468 -0.9436
 1338TIP3   OH225504   0.753   1.353  13.203  0.2789 -0.0426 -0.6713
 1338TIP3    H125505   0.795   1.436  13.229 -0.0041  0.4214 -1.6365
 1338TIP3    H225506   0.768   1.295  13.277  1.9980  0.3332 -0.6698
 1339TIP3   OH225507   6.378   0.977  12.423 -0.0117  0.3381 -0.0962
 1339TIP3    H125508   6.372   1.022  12.338 -1.0147 -1.3585 -0.9886
 1339TIP3    H225509   6.450   0.915  12.412 -1.5011 -1.4091 -0.5382
 1340TIP3   OH225510   3.360   6.672  15.936 -0.1549 -0.7633 -0.4728
 1340TIP3    H125511   3.338   6.709  15.850  0.9294  0.0459 -0.4120
 1340TIP3    H225512   3.289   6.702  15.993  0.7302  1.3851 -0.3975
 1341TIP3   OH225513   5.446   4.642  12.851  0.9301  0.5767 -0.5206
 1341TIP3    H125514   5.470   4.568  12.907  0.6427 -0.8267 -2.1812
 1341TIP3    H225515   5.354   4.658  12.871  0.8983  0.2671 -0.4113
 1342TIP3   OH225516   6.651   4.615  15.157  0.0411 -0.3870  0.5732
 1342TIP3    H125517   6.745   4.618  15.138 -0.2900  0.3592 -1.1887
 1342TIP3    H225518   6.643   4.649  15.246  1.4669 -0.7340  0.8512
 1343TIP3   OH225519   6.519   4.639   0.674 -0.1166  0.0210 -0.0705
 1343TIP3    H125520   6.521   4.653   0.769  0.6178 -1.3987  0.1474
 1343TIP3    H225521   6.427   4.622   0.654 -0.1979 -0.2392  0.4911
 1344TIP3   OH225522   6.289   2.623  17.039  0.4689  0.2831  0.1377
 1344TIP3    H125523   6.289   2.534  17.074  1.1892  0.2781  0.1461
 1344TIP3    H225524   6.374   2.659  17.065  0.0558  1.0794  0.3962
 1345TIP3   OH225525   1.259   6.010  11.426  0.2613 -0.1119 -0.0524
 1345TIP3    H125526   1.274   5.918  11.404 -0.6627  0.0842 -1.6137
 1345TIP3    H225527   1.186   6.008  11.488 -0.5430 -0.3724 -0.9862
 1346TIP3   OH225528   0.959   3.755   4.844  0.0821 -0.2217 -0.5604
 1346TIP3    H125529   0.968   3.837   4.893 -0.5547  0.0877 -0.9512
 1346TIP3    H225530   0.954   3.782   4.753 -0.9854 -0.6299 -0.6276
 1347TIP3   OH225531   1.811   4.925  14.639 -0.5653  0.6184  0.2613
 1347TIP3    H125532   1.869   4.975  14.581  0.3231 -1.1678 -0.4626
 1347TIP3    H225533   1.769   4.992  14.693  0.6399  2.1378 -0.5711
 1348TIP3   OH225534   5.597   2.754  14.384 -0.6194 -0.4548  0.1069
 1348TIP3    H125535   5.521   2.732  14.439  0.1916  0.2932  1.5821
 1348TIP3    H225536   5.660   2.793  14.444  0.0470  1.0702 -1.4822
 1349TIP3   OH225537   5.974   3.181   1.232 -0.2808  0.0630 -0.2056
 1349TIP3    H125538   5.952   3.088   1.246  1.6602 -0.3559  0.3406
 1349TIP3    H225539   5.980   3.190   1.137 -0.6875 -0.3148 -0.2745
 1350TIP3   OH225540   2.045   2.876  16.257  0.0156  0.2851  0.2392
 1350TIP3    H125541   1.963   2.903  16.216  0.4933  0.1824 -0.8211
 1350TIP3    H225542   2.022   2.860  16.349 -1.3518 -0.6357 -0.2259
 1351TIP3   OH225543   0.260   3.697   6.477  0.3177  0.4196  0.0805
 1351TIP3    H125544   0.204   3.622   6.454  0.4062 -0.3811  2.2183
 1351TIP3    H225545   0.198   3.769   6.492  0.2544  0.9411 -2.3520
 1352TIP3   OH225546   5.067   4.164   4.691 -0.4944 -0.3305 -0.5159
 1352TIP3    H125547   5.028   4.160   4.604 -0.5881  0.9516 -0.5542
 1352TIP3    H225548   5.023   4.095   4.741 -0.5397 -0.9800 -1.4390
 1353TIP3   OH225549   3.652   6.188   3.060 -0.0343  0.0766  0.2883
 1353TIP3    H125550   3.569   6.235   3.046  0.1671  0.4824  0.4419
 1353TIP3    H225551   3.637   6.102   3.021 -1.5017 -0.8579  2.7021
 1354TIP3   OH225552   2.131   5.799   4.447 -0.0071 -0.1806 -0.0973
 1354TIP3    H125553   2.187   5.749   4.388 -1.3044  0.7028 -2.1982
 1354TIP3    H225554   2.042   5.775   4.423 -0.6088  0.9657  0.8416
 1355TIP3   OH225555   1.188   6.554  13.774  0.2601  0.1453 -0.2835
 1355TIP3    H125556   1.106   6.516  13.807  1.1675  1.8130  4.7712
 1355TIP3    H225557   1.165   6.645  13.753  0.7266  0.6764  1.3443
 1356TIP3   OH225558   3.156   1.539  15.545 -0.3211 -0.4764  0.2891
 1356TIP3    H125559   3.196   1.479  15.607  2.3151  0.4227 -0.4069
 1356TIP3    H225560   3.180   1.503  15.459 -1.9600 -0.4495 -0.2189
 1357TIP3   OH225561   5.431   0.127  11.452  0.0168  0.7407  0.4068
 1357TIP3    H125562   5.500   0.187  11.481  0.9240  0.6083 -1.3704
 1357TIP3    H225563   5.381   0.176  11.387 -0.2813  0.1446  0.1764
 1358TIP3   OH225564   2.186   1.403   1.360 -0.2738 -0.9242  0.0221
 1358TIP3    H125565   2.117   1.386   1.296 -1.1160 -2.5671  1.3077
 1358TIP3    H225566   2.265   1.417   1.307 -1.1928 -1.0004 -1.4079
 1359TIP3   OH225567   2.439   2.567  16.760 -0.4290 -0.5740 -0.1879
 1359TIP3    H125568   2.532   2.543  16.770 -0.1656 -0.4408 -1.9442
 1359TIP3    H225569   2.401   2.552  16.846  0.6930 -2.9968 -0.0403
 1360TIP3   OH225570   5.137   0.822  15.634 -0.1518  0.0356  0.2543
 1360TIP3    H125571   5.103   0.856  15.716  0.2021 -1.6707  1.1633
 1360TIP3    H225572   5.086   0.742  15.617 -0.7496  0.7474 -1.6151
 1361TIP3   OH225573   0.798   5.391   3.697  0.4260  0.4181  0.1462
 1361TIP3    H125574   0.800   5.481   3.664 -0.8440  0.8555  1.1800
 1361TIP3    H225575   0.846   5.340   3.631 -0.7675  1.4679 -1.6164
 1362TIP3   OH225576   2.533   5.170   0.177 -0.2637  0.1628 -0.1556
 1362TIP3    H125577   2.577   5.221   0.109  1.2862  1.1088  1.4600
 1362TIP3    H225578   2.580   5.087   0.179 -0.3076  0.1360 -0.2206
 1363TIP3   OH225579   2.743   1.931  17.197  0.2206 -0.2969 -0.2281
 1363TIP3    H125580   2.749   1.864  17.264  0.0701 -0.4294 -0.3465
 1363TIP3    H225581   2.729   1.883  17.115 -1.0359 -0.0799 -0.1652
 1364TIP3   OH225582   0.633   0.766  15.356 -0.4579  0.0721  0.4634
 1364TIP3    H125583   0.573   0.838  15.375 -0.0335  1.4407 -2.7712
 1364TIP3    H225584   0.575   0.694  15.331 -0.8262  0.1187  1.1588
 1365TIP3   OH225585   3.501   1.621  13.591  0.6725 -0.0222  0.4036
 1365TIP3    H125586   3.425   1.614  13.649  1.0458 -1.6308  0.7524
 1365TIP3    H225587   3.571   1.654  13.648  0.4409  0.6949  0.2765
 1366TIP3   OH225588   5.737   3.116   0.418  0.3931 -0.0059 -0.4127
 1366TIP3    H125589   5.728   3.045   0.482 -0.2262  1.3713  1.1019
 1366TIP3    H225590   5.829   3.112   0.390  0.9969  0.0395  1.4414
 1367TIP3   OH225591   2.007   5.718   0.416  0.9428  0.2571 -0.8042
 1367TIP3    H125592   2.017   5.791   0.477  0.4627 -1.0164  0.8797
 1367TIP3    H225593   2.031   5.754   0.331  2.4310  1.9014  0.2484
 1368TIP3   OH225594   4.279   1.510   5.219 -0.1733 -0.6848  0.5198
 1368TIP3    H125595   4.271   1.585   5.159  1.4245  0.1916  1.3280
 1368TIP3    H225596   4.253   1.435   5.167 -0.5538  0.2660 -0.7181
 1369TIP3   OH225597   3.086   4.021  17.167 -0.2584  0.2908  0.3596
 1369TIP3    H125598   3.075   3.936  17.123  0.7380 -0.8698  2.1990
 1369TIP3    H225599   2.999   4.042  17.200 -0.2281 -0.8672  1.2611
 1370TIP3   OH225600   0.908   5.305   0.257 -0.2632  0.2897 -0.1158
 1370TIP3    H125601   0.814   5.313   0.275 -0.1273 -0.1355  0.8386
 1370TIP3    H225602   0.949   5.369   0.315  0.1112 -0.2949  0.2701
 1371TIP3   OH225603   0.473   5.908   3.080  0.7998  0.0595  0.6057
 1371TIP3    H125604   0.378   5.911   3.090  0.7676  0.3365  0.2474
 1371TIP3    H225605   0.490   5.954   2.998  1.2718  0.3320  0.8517
 1372TIP3   OH225606   2.726   1.762   4.577 -0.3016  0.1611  0.0847
 1372TIP3    H125607   2.744   1.668   4.578  1.7078  0.5018  0.0620
 1372TIP3    H225608   2.707   1.784   4.668  0.0366 -0.1264  0.2269
 1373TIP3   OH225609   5.540   5.304  16.436  0.3736  0.2016 -0.0426
 1373TIP3    H125610   5.556   5.284  16.343 -0.0099 -2.2859  0.3516
 1373TIP3    H225611   5.628   5.313  16.473  0.5480  0.2929 -0.4688
 1374TIP3   OH225612   1.051   5.225   3.551 -0.0459  0.3319 -0.6948
 1374TIP3    H125613   0.976   5.239   3.493 -0.5969  1.1532  0.1716
 1374TIP3    H225614   1.028   5.147   3.602 -0.1354  0.3490 -0.7087
 1375TIP3   OH225615   3.614   0.058  11.516 -0.4290 -0.6082 -0.9924
 1375TIP3    H125616   3.703   0.089  11.535 -0.8197 -1.0591  1.9833
 1375TIP3    H225617   3.604   0.072  11.421  1.0067  4.1015 -0.7136
 1376TIP3   OH225618   1.507   5.120   5.327 -0.2221 -0.1337  0.5699
 1376TIP3    H125619   1.590   5.147   5.288  0.4284 -0.5484  1.6306
 1376TIP3    H225620   1.484   5.193   5.385 -0.2639 -0.3002  0.7639
 1377TIP3   OH225621   4.700   6.326  14.675  0.8074  0.0069  0.0815
 1377TIP3    H125622   4.606   6.323  14.690  0.9024  1.6504  1.3097
 1377TIP3    H225623   4.723   6.418  14.688  2.5232 -0.2829 -0.6186
 1378TIP3   OH225624   0.006   4.633  12.365  0.0195 -0.1213  0.1381
 1378TIP3    H125625  -0.035   4.674  12.441  0.9280 -0.9058  1.0888
 1378TIP3    H225626   0.096   4.614  12.394  0.8946  0.9726 -1.6529
 1379TIP3   OH225627   4.932   5.408  16.819 -0.8130 -0.5663 -0.1367
 1379TIP3    H125628   4.963   5.328  16.777 -2.1496 -1.3175  0.2587
 1379TIP3    H225629   4.855   5.381  16.870 -0.7865  0.8050  0.7002
 1380TIP3   OH225630   6.709   4.543   3.057  0.2228  0.2112 -0.5767
 1380TIP3    H125631   6.640   4.523   2.994 -0.5910 -1.7237  0.8238
 1380TIP3    H225632   6.672   4.611   3.112 -0.3261 -0.3255 -0.2667
 1381TIP3   OH225633   6.358   4.916   2.697  0.4659  0.0702 -0.2271
 1381TIP3    H125634   6.303   4.911   2.775  1.6141  0.1888  0.6292
 1381TIP3    H225635   6.368   4.825   2.669  0.9151 -0.0977  0.4286
 1382TIP3   OH225636   4.965   3.182  11.079 -0.0173 -0.2761  0.3553
 1382TIP3    H125637   4.888   3.239  11.072  0.0001 -0.3195 -0.2801
 1382TIP3    H225638   5.006   3.187  10.992 -0.1429 -1.4294  0.2148
 1383TIP3   OH225639   5.555   1.562   6.608  0.7467 -0.1800  0.3001
 1383TIP3    H125640   5.488   1.494   6.620 -0.0985  0.2378 -1.7085
 1383TIP3    H225641   5.507   1.638   6.575  2.1639  0.2192 -0.9437
 1384TIP3   OH225642   4.577   2.482   2.221  0.3512 -0.1706  0.4740
 1384TIP3    H125643   4.672   2.485   2.224  0.3483  0.4066  0.0544
 1384TIP3    H225644   4.557   2.390   2.202  0.9061  0.1730 -2.1115
 1385TIP3   OH225645   5.009   1.147   6.267  0.2660 -0.1664 -0.2383
 1385TIP3    H125646   5.103   1.133   6.279  0.6428  0.6969 -1.8688
 1385TIP3    H225647   4.990   1.227   6.315  0.3572 -0.3315  0.0771
 1386TIP3   OH225648   3.459   5.051   0.538 -0.2180 -0.4669  0.3029
 1386TIP3    H125649   3.374   5.079   0.571  0.2926  0.4103  0.9217
 1386TIP3    H225650   3.499   5.003   0.611  0.4593  0.5073  0.5874
 1387TIP3   OH225651   0.091   0.733   6.088 -0.7322 -0.3324 -0.2844
 1387TIP3    H125652  -0.005   0.740   6.086 -1.0000 -2.8811 -1.8947
 1387TIP3    H225653   0.108   0.653   6.138  0.4592 -0.5441 -0.9842
 1388TIP3   OH225654   0.253   5.123  13.871 -1.3843  0.0091 -0.1449
 1388TIP3    H125655   0.220   5.076  13.948 -0.2882 -0.8305 -0.1678
 1388TIP3    H225656   0.307   5.059  13.826 -1.0529  0.8648 -0.9820
 1389TIP3   OH225657   2.652   0.499   0.205 -0.0334  0.2602  0.1257
 1389TIP3    H125658   2.713   0.561   0.243  0.9190 -0.2026 -0.5981
 1389TIP3    H225659   2.707   0.427   0.173 -1.0712 -0.8452  0.7087
 1390TIP3   OH225660   3.235   1.509  13.742 -0.5308 -0.3214  0.1791
 1390TIP3    H125661   3.213   1.583  13.798  2.1373 -0.1389  1.1049
 1390TIP3    H225662   3.158   1.498  13.686 -1.4919  2.3684  0.8203
 1391TIP3   OH225663   0.205   3.775  11.038 -0.8335  0.0968 -0.0710
 1391TIP3    H125664   0.224   3.721  10.962 -1.0564 -0.3686  0.1997
 1391TIP3    H225665   0.119   3.814  11.019 -0.3766  0.8819 -0.5562
 1392TIP3   OH225666   5.809   3.105  17.163 -0.1251 -0.0706 -0.0069
 1392TIP3    H125667   5.830   3.197  17.175 -0.3749 -0.2365  2.1063
 1392TIP3    H225668   5.786   3.074  17.251  1.3019 -2.4884 -0.3982
 1393TIP3   OH225669   0.400   2.757   0.830  0.2561  0.1377 -0.1733
 1393TIP3    H125670   0.443   2.674   0.851 -1.5532 -0.8598 -0.2075
 1393TIP3    H225671   0.431   2.818   0.897 -1.6162 -1.6998  2.5652
 1394TIP3   OH225672   3.981   3.379  11.190  0.2802  0.1580  0.3424
 1394TIP3    H125673   3.986   3.466  11.229 -1.1918  0.8009 -0.7853
 1394TIP3    H225674   4.019   3.389  11.103 -1.1640  0.0686 -0.3351
 1395TIP3   OH225675   1.185   3.970  12.402  0.3791  0.1303  0.4213
 1395TIP3    H125676   1.152   3.997  12.316  4.4371  1.9361 -0.8187
 1395TIP3    H225677   1.199   4.051  12.450  1.7726 -0.5660  1.2734
 1396TIP3   OH225678   3.883   5.750  11.700 -0.0745  0.1635  0.1508
 1396TIP3    H125679   3.886   5.844  11.682 -0.3586  0.1641  0.0978
 1396TIP3    H225680   3.962   5.715  11.659 -0.1631  0.3258 -0.1658
 1397TIP3   OH225681   5.818   1.550   6.272 -0.0258  0.1351 -0.6246
 1397TIP3    H125682   5.765   1.621   6.308 -1.0620 -0.5616 -0.7270
 1397TIP3    H225683   5.908   1.583   6.275 -0.2186  0.6134  1.3683
 1398TIP3   OH225684   6.694   5.330   1.207  0.4557  0.0467  0.4488
 1398TIP3    H125685   6.757   5.266   1.239 -0.3452 -0.2482  1.5297
 1398TIP3    H225686   6.638   5.281   1.147  0.5271  0.0023  0.4190
 1399TIP3   OH225687   5.021   2.436   0.930  0.5178 -0.3429  0.1609
 1399TIP3    H125688   5.047   2.346   0.912  1.9701  0.4772 -2.3344
 1399TIP3    H225689   4.942   2.449   0.877  1.2594  0.2900 -0.8284
 1400TIP3   OH225690   5.381   5.458   0.080 -0.2171  0.3749 -0.1716
 1400TIP3    H125691   5.435   5.429   0.006 -2.2592 -0.8384 -1.2822
 1400TIP3    H225692   5.333   5.534   0.047 -1.0614 -0.1082 -0.0879
 1401TIP3   OH225693   4.465   2.955   2.755 -0.2396  0.2668  0.1668
 1401TIP3    H125694   4.402   3.019   2.723 -0.6498 -0.2803 -0.1450
 1401TIP3    H225695   4.548   2.982   2.718 -0.7933 -0.7078 -1.9255
 1402TIP3   OH225696   1.993   1.136   0.306 -0.0412  0.1066  0.2932
 1402TIP3    H125697   1.934   1.194   0.354  0.8005  2.3208 -1.2039
 1402TIP3    H225698   1.954   1.126   0.220  0.5017 -0.5003  0.1018
 1403TIP3   OH225699   3.471   6.466   3.594 -0.1618  0.1611 -0.4097
 1403TIP3    H125700   3.460   6.408   3.519 -0.1146  1.1712 -1.2263
 1403TIP3    H225701   3.564   6.490   3.593 -0.1494  0.1272  0.0038
 1404TIP3   OH225702   0.357   6.164   0.072 -0.0961 -0.5888 -0.2996
 1404TIP3    H125703   0.426   6.099   0.061 -0.8960 -1.5916  0.3201
 1404TIP3    H225704   0.363   6.219  -0.005  2.1668  0.1306  0.3119
 1405TIP3   OH225705   5.313   4.243  15.709 -0.3029  0.1130 -0.3174
 1405TIP3    H125706   5.324   4.286  15.793 -0.1816 -1.6692  0.6419
 1405TIP3    H225707   5.250   4.296  15.662 -0.2170  1.2622  0.8116
 1406TIP3   OH225708   4.502   5.522   2.561  0.2788 -0.1255 -0.7732
 1406TIP3    H125709   4.554   5.537   2.482  0.3385  1.6190 -0.4490
 1406TIP3    H225710   4.559   5.552   2.632 -0.3868 -0.1705 -0.2183
 1407TIP3   OH225711   5.814   0.476  10.901 -0.1911 -0.8820 -0.4243
 1407TIP3    H125712   5.742   0.414  10.912 -1.3692  0.7002  1.4101
 1407TIP3    H225713   5.798   0.543  10.968  2.6971 -0.1803 -0.3179
 1408TIP3   OH225714   2.824   2.108  12.311  0.5179 -0.1450  0.5918
 1408TIP3    H125715   2.826   2.153  12.395  0.7626 -2.0709  1.6883
 1408TIP3    H225716   2.775   2.027  12.328  0.7053 -0.6478 -1.0743
 1409TIP3   OH225717   5.863   1.749  14.737  0.5681  0.0732 -0.0453
 1409TIP3    H125718   5.776   1.713  14.752  0.9422 -0.8480  0.0354
 1409TIP3    H225719   5.875   1.815  14.805 -0.7272  1.4735 -1.1232
 1410TIP3   OH225720   4.667   2.838  13.670 -0.1261  0.2602 -0.0483
 1410TIP3    H125721   4.587   2.790  13.691  1.4634 -1.1389  3.6337
 1410TIP3    H225722   4.724   2.773  13.628  1.0431 -0.5114  2.5283
 1411TIP3   OH225723   4.918   0.862  12.664  0.3167 -0.1456  0.0504
 1411TIP3    H125724   4.874   0.793  12.714  0.5379 -1.2590 -1.2320
 1411TIP3    H225725   4.853   0.890  12.599  0.8040 -0.3951 -0.5617
 1412TIP3   OH225726   3.946   5.224  10.444  0.1296  0.2667 -0.4662
 1412TIP3    H125727   3.914   5.281  10.373 -0.9465 -0.8079 -0.8782
 1412TIP3    H225728   3.868   5.176  10.472  0.6875  0.1975  1.0131
 1413TIP3   OH225729   1.437   2.402   4.225  0.2728 -0.0210 -0.7925
 1413TIP3    H125730   1.443   2.487   4.269  0.6196 -0.6812  0.4879
 1413TIP3    H225731   1.522   2.391   4.182  1.5148 -1.1084  1.7496
 1414TIP3   OH225732   5.873   6.582  14.885 -0.2022 -0.9057  0.4896
 1414TIP3    H125733   5.858   6.583  14.791 -2.1605  1.2076  0.7327
 1414TIP3    H225734   5.862   6.490  14.910 -0.1321 -1.4199 -1.2546
 1415TIP3   OH225735   1.051   1.449  12.570 -0.4074 -0.7548  0.0410
 1415TIP3    H125736   1.070   1.373  12.515 -1.6628 -0.8183 -0.3386
 1415TIP3    H225737   1.069   1.524  12.513 -0.1980 -0.7864  0.0636
 1416TIP3   OH225738   1.964   4.197  11.413 -0.3626  0.0677  0.6082
 1416TIP3    H125739   1.897   4.233  11.470 -0.5741 -0.1468  0.4960
 1416TIP3    H225740   1.934   4.218  11.325 -0.5604 -0.5103  0.5362
 1417TIP3   OH225741   4.968   0.669   0.810  0.3583  0.0819  0.0426
 1417TIP3    H125742   4.913   0.727   0.863 -1.3010 -1.6036  0.2699
 1417TIP3    H225743   4.912   0.644   0.737  1.9942  0.8775 -1.5522
 1418TIP3   OH225744   6.273   6.372   5.920 -0.3506  0.7042 -0.0490
 1418TIP3    H125745   6.237   6.288   5.950 -1.6347  1.2372 -0.0098
 1418TIP3    H225746   6.219   6.438   5.964  1.0838  1.5803  0.4737
 1419TIP3   OH225747   3.518   2.284   3.515  0.3169 -0.5126 -0.3368
 1419TIP3    H125748   3.544   2.196   3.542 -0.6953 -0.1302  2.1351
 1419TIP3    H225749   3.429   2.294   3.549 -0.2461  0.8775 -2.0707
 1420TIP3   OH225750   4.793   5.498   2.066  0.3086 -0.0486  0.2959
 1420TIP3    H125751   4.878   5.454   2.055  0.3254  0.5394 -2.6151
 1420TIP3    H225752   4.730   5.427   2.073  0.5873 -0.6020 -2.0921
 1421TIP3   OH225753   5.414   0.604  14.187  0.2533 -0.5985 -0.0203
 1421TIP3    H125754   5.448   0.689  14.159  0.3398 -0.2096  1.2242
 1421TIP3    H225755   5.329   0.597  14.143  0.9244 -0.6009 -1.3984
 1422TIP3   OH225756   5.225   6.582   4.237 -0.3308  0.0516 -0.0049
 1422TIP3    H125757   5.213   6.498   4.193  0.8742 -0.2109  0.1280
 1422TIP3    H225758   5.293   6.626   4.187 -0.0888  0.4262  0.6440
 1423TIP3   OH225759   6.248   3.853   5.932 -0.5378  0.3814  0.0799
 1423TIP3    H125760   6.326   3.806   5.963  0.1572  1.5977  0.2481
 1423TIP3    H225761   6.193   3.863   6.009 -1.0155 -0.7460 -0.1014
 1424TIP3   OH225762   0.590   3.881   3.268  0.6177 -0.2120  0.2470
 1424TIP3    H125763   0.513   3.860   3.320 -0.2334 -0.7973 -1.1782
 1424TIP3    H225764   0.574   3.969   3.235  1.9711  0.8954  2.3216
 1425TIP3   OH225765   3.080   2.166  14.539 -0.1294 -0.1826  0.7595
 1425TIP3    H125766   3.097   2.095  14.477 -1.3517 -0.1469  0.3616
 1425TIP3    H225767   3.068   2.122  14.623  0.5773 -0.3169  0.7900
 1426TIP3   OH225768   2.577   4.743   3.454  0.6014  0.2540  0.0369
 1426TIP3    H125769   2.597   4.747   3.547 -1.1778 -0.9161  0.5430
 1426TIP3    H225770   2.654   4.779   3.410  1.5052  0.7540  1.9463
 1427TIP3   OH225771   1.409   1.251  15.546 -0.6035 -0.1749  0.5441
 1427TIP3    H125772   1.398   1.345  15.561  1.5554  0.3195 -0.5828
 1427TIP3    H225773   1.342   1.230  15.481  0.8840  1.3632 -1.6593
 1428TIP3   OH225774   2.997   6.198  10.863  0.0199 -0.0442  0.1792
 1428TIP3    H125775   2.954   6.125  10.819 -0.6509 -0.1667  1.0008
 1428TIP3    H225776   2.939   6.273  10.847  0.3006  0.1351 -0.0023
 1429TIP3   OH225777   1.724   1.838  16.867  0.0875  0.1594 -0.1080
 1429TIP3    H125778   1.643   1.800  16.902  0.9194 -1.7687 -0.1385
 1429TIP3    H225779   1.772   1.868  16.945  0.4087 -0.9767  0.1586
 1430TIP3   OH225780   3.118   1.475   0.227 -0.6021  0.3168 -0.0091
 1430TIP3    H125781   3.167   1.557   0.231  1.8561 -1.0577 -0.1330
 1430TIP3    H225782   3.141   1.438   0.142  0.0746 -1.4897  0.9121
 1431TIP3   OH225783   0.398   2.553   1.974  0.2369 -0.2446 -0.2863
 1431TIP3    H125784   0.326   2.612   1.952  0.4331 -0.4664 -1.6740
 1431TIP3    H225785   0.445   2.542   1.891  2.4103  0.6034  0.7687
 1432TIP3   OH225786   6.827   1.073  11.297  0.0586  0.1888  0.2200
 1432TIP3    H125787   6.789   0.992  11.329  1.1506 -0.8176 -0.9134
 1432TIP3    H225788   6.780   1.091  11.215  1.0088 -0.2758 -0.4393
 1433TIP3   OH225789   0.504   0.538  12.586  0.0838 -0.3379  0.3370
 1433TIP3    H125790   0.471   0.494  12.508 -0.3680 -0.4101  0.5668
 1433TIP3    H225791   0.503   0.471  12.654  0.1434 -0.1833  0.4915
 1434TIP3   OH225792   3.745   6.052  16.862 -0.3194 -0.3359  0.1133
 1434TIP3    H125793   3.658   6.012  16.868 -0.2861 -0.2995  0.8367
 1434TIP3    H225794   3.798   6.003  16.925 -0.3219  0.9654  1.1695
 1435TIP3   OH225795   3.337   3.586  11.168 -0.8293  0.6639  0.0569
 1435TIP3    H125796   3.297   3.617  11.086 -1.3607  0.5000  0.2482
 1435TIP3    H225797   3.267   3.593  11.233 -0.8709 -0.6083  0.1845
 1436TIP3   OH225798   5.918   2.361   2.551 -0.3684  0.1201 -0.4159
 1436TIP3    H125799   5.915   2.360   2.456  0.5594  0.0252 -0.4482
 1436TIP3    H225800   5.848   2.421   2.577 -0.0664  0.8088 -1.1792
 1437TIP3   OH225801   4.726   4.727  11.832 -0.6946  0.4596  0.2775
 1437TIP3    H125802   4.701   4.787  11.761  2.8754 -0.0921 -1.6742
 1437TIP3    H225803   4.749   4.785  11.904 -0.5072  1.2892 -0.4275
 1438TIP3   OH225804   0.998   4.248  11.332 -0.1899  0.5543 -0.5059
 1438TIP3    H125805   0.978   4.339  11.356 -0.8595 -0.0749  1.4979
 1438TIP3    H225806   0.914   4.213  11.302 -0.0307  0.4556 -0.8405
 1439TIP3   OH225807   1.836   6.130   1.954 -0.8429 -0.1682 -0.2439
 1439TIP3    H125808   1.872   6.207   1.999 -1.2416 -0.7067  1.0531
 1439TIP3    H225809   1.741   6.142   1.959 -0.9067 -0.7020 -0.0771
 1440TIP3   OH225810   3.911   0.274   3.059 -0.0611 -0.2880 -0.4171
 1440TIP3    H125811   3.846   0.206   3.039 -1.3761  0.6037  0.6268
 1440TIP3    H225812   3.876   0.353   3.017  0.9585 -0.0239 -0.8036
 1441TIP3   OH225813   6.454   2.026   2.500 -0.1156 -0.2934  0.1292
 1441TIP3    H125814   6.495   2.111   2.480  0.8422 -1.0363 -1.2674
 1441TIP3    H225815   6.372   2.049   2.544  1.2594  1.2942  2.0796
 1442TIP3   OH225816   6.012   4.504  12.533  0.0326  0.2541 -0.0057
 1442TIP3    H125817   6.059   4.494  12.450 -0.8205  1.0331 -0.6036
 1442TIP3    H225818   5.948   4.574  12.516 -0.6865 -0.1174  1.0728
 1443TIP3   OH225819   2.591   1.376   6.221 -0.0250  0.4943  0.3134
 1443TIP3    H125820   2.642   1.306   6.262  0.3106 -0.5287 -1.7328
 1443TIP3    H225821   2.547   1.335   6.147  1.0614  2.6554 -1.6609
 1444TIP3   OH225822   1.587   5.700   0.830  0.0423 -0.4536  0.0166
 1444TIP3    H125823   1.663   5.733   0.783 -1.6539  2.0607 -1.1777
 1444TIP3    H225824   1.546   5.638   0.769  0.8255 -1.4851  0.4960
 1445TIP3   OH225825   4.868   6.175  10.682 -0.2121  0.5655  0.6479
 1445TIP3    H125826   4.868   6.085  10.650  0.8780  0.4669  0.9019
 1445TIP3    H225827   4.803   6.220  10.627 -0.8922 -0.4033  0.6371
 1446TIP3   OH225828   0.918   5.292   3.918 -0.4194 -0.0237 -0.0275
 1446TIP3    H125829   0.981   5.358   3.946 -0.0663 -0.2108 -0.3746
 1446TIP3    H225830   0.850   5.341   3.873  0.2669  0.0255 -1.0308
 1447TIP3   OH225831   6.676   0.089  17.135  0.3763  0.6712  0.0952
 1447TIP3    H125832   6.636   0.176  17.140  1.2701  1.1289 -0.5625
 1447TIP3    H225833   6.607   0.034  17.098 -0.3778  0.9744  1.0084
 1448TIP3   OH225834   2.143   6.369   4.953  0.5672  0.2871 -0.6074
 1448TIP3    H125835   2.132   6.295   4.894  0.9595  0.7421 -1.2576
 1448TIP3    H225836   2.172   6.330   5.036  1.1019 -0.2591 -1.0458
 1449TIP3   OH225837   6.602   5.495   4.378  1.0744  0.1253  0.3431
 1449TIP3    H125838   6.667   5.485   4.448 -0.0581  1.6175  1.6796
 1449TIP3    H225839   6.617   5.419   4.321  2.1279 -1.0997  2.1286
 1450TIP3   OH225840   4.897   3.371   0.850  0.9923  0.1400  0.2174
 1450TIP3    H125841   4.910   3.277   0.840  0.2465  0.0420  0.1106
 1450TIP3    H225842   4.897   3.385   0.945 -0.6789 -0.2504  0.3080
 1451TIP3   OH225843   3.094   5.035   1.126 -0.3579  0.5847  0.1447
 1451TIP3    H125844   3.052   4.951   1.107 -0.9960  1.1093 -0.8814
 1451TIP3    H225845   3.025   5.100   1.112  0.1263  1.2831  0.9232
 1452TIP3   OH225846   0.486   5.619  16.235 -0.0147  0.2146 -0.4819
 1452TIP3    H125847   0.407   5.646  16.282 -0.4914 -1.2056 -0.4186
 1452TIP3    H225848   0.534   5.700  16.220 -0.7636  0.9294  0.8055
 1453TIP3   OH225849   3.476   2.021   4.775 -0.9657 -0.0447 -0.1729
 1453TIP3    H125850   3.387   1.998   4.751 -1.3374  0.0630  1.0804
 1453TIP3    H225851   3.486   1.991   4.865  0.2221  0.0660 -0.2516
 1454TIP3   OH225852   1.762   1.193   0.701  0.0334  0.5430 -0.6233
 1454TIP3    H125853   1.756   1.277   0.747 -0.2779  1.3535 -2.0741
 1454TIP3    H225854   1.758   1.128   0.770 -0.2093  1.7124  0.5106
 1455TIP3   OH225855   4.449   1.911   8.319  0.6435 -0.5023  0.1681
 1455TIP3    H125856   4.436   2.005   8.327  2.2356 -0.3698  1.8540
 1455TIP3    H225857   4.530   1.901   8.269 -0.3210 -1.0602 -1.3738
 1456TIP3   OH225858   1.766   1.834   5.661  0.3926 -0.0969 -0.2202
 1456TIP3    H125859   1.707   1.767   5.696  1.4643 -0.3188  1.2838
 1456TIP3    H225860   1.796   1.882   5.739  2.0484  0.1180 -0.9447
 1457TIP3   OH225861   6.554   0.136  15.061  0.0516  0.1286 -0.1673
 1457TIP3    H125862   6.555   0.201  15.131 -0.0233  0.3631 -0.3804
 1457TIP3    H225863   6.636   0.087  15.073 -0.3728 -0.4063  0.6061
 1458TIP3   OH225864   1.091   0.080   3.467  0.2005  0.0059  0.1067
 1458TIP3    H125865   1.003   0.111   3.488 -0.1556 -0.6731 -0.3303
 1458TIP3    H225866   1.078   0.017   3.396  1.1110  0.4087 -0.4464
 1459TIP3   OH225867   2.834   1.393  16.241 -0.0653  0.2262  0.5767
 1459TIP3    H125868   2.904   1.396  16.176  0.8023 -1.0555  1.3843
 1459TIP3    H225869   2.824   1.483  16.270  0.5757  0.5814 -0.2566
 1460TIP3   OH225870   0.415   5.325   4.985 -0.6666  0.4685 -0.2702
 1460TIP3    H125871   0.471   5.398   5.010 -0.2899  0.4949 -1.1840
 1460TIP3    H225872   0.377   5.350   4.901 -1.1728 -0.0347 -0.2041
 1461TIP3   OH225873   3.874   5.538  16.896  0.3190 -0.6528 -0.1979
 1461TIP3    H125874   3.839   5.453  16.870  1.4942 -1.1897 -0.1037
 1461TIP3    H225875   3.900   5.580  16.814  0.3915 -0.6971 -0.1982
 1462TIP3   OH225876   4.583   2.247  12.305  0.5664 -0.5326 -0.5691
 1462TIP3    H125877   4.634   2.171  12.275 -0.1901 -1.4137  0.3112
 1462TIP3    H225878   4.576   2.302  12.227  2.0167 -0.8462 -0.9640
 1463TIP3   OH225879   1.336   6.296  16.424 -0.3894 -0.5633 -0.0432
 1463TIP3    H125880   1.381   6.341  16.353 -1.9652 -0.8375 -1.2854
 1463TIP3    H225881   1.307   6.365  16.483  1.7743 -0.3967  0.9303
 1464TIP3   OH225882   5.904   4.570  12.114  0.4418  0.3528  0.4895
 1464TIP3    H125883   5.914   4.605  12.203  1.6796 -0.3299  0.6450
 1464TIP3    H225884   5.984   4.596  12.069 -0.0482  0.4320 -0.3421
 1465TIP3   OH225885   0.935   2.574  13.320  0.3852 -0.3085 -0.0147
 1465TIP3    H125886   0.900   2.488  13.298 -2.4606  0.1830  2.0786
 1465TIP3    H225887   0.877   2.608  13.388  2.0658  2.8251  0.0734
 1466TIP3   OH225888   0.142   4.743   4.136 -0.4173  0.3550  0.0484
 1466TIP3    H125889   0.207   4.810   4.114  0.2730  0.3285  1.8394
 1466TIP3    H225890   0.087   4.784   4.203 -0.7632 -0.4356  0.2589
 1467TIP3   OH225891   0.878   2.586  12.222 -0.3000  0.1055 -0.2873
 1467TIP3    H125892   0.962   2.598  12.266 -0.4656  1.0370 -0.1921
 1467TIP3    H225893   0.854   2.674  12.192 -1.6286  0.0051  0.4035
 1468TIP3   OH225894   4.990   4.608   2.335  0.2836  0.0993 -0.5495
 1468TIP3    H125895   5.037   4.550   2.276 -0.7636  1.1340 -2.4825
 1468TIP3    H225896   4.916   4.555   2.367  0.2856 -0.1516 -0.9571
 1469TIP3   OH225897   6.491   0.979  14.894 -0.1151 -0.7979  0.1802
 1469TIP3    H125898   6.505   0.981  14.799  1.0448 -1.4813  0.3153
 1469TIP3    H225899   6.541   0.902  14.923  0.5634  0.1192  1.5017
 1470TIP3   OH225900   0.751   2.523   0.971 -0.5879  0.3451  0.5543
 1470TIP3    H125901   0.695   2.452   0.940 -0.0556  0.0663  0.2018
 1470TIP3    H225902   0.836   2.481   0.986 -0.2040  0.9547  0.1140
 1471TIP3   OH225903   4.570   6.779  11.354  1.0112 -0.1303  0.0617
 1471TIP3    H125904   4.497   6.719  11.338  0.0619  1.0751 -0.2636
 1471TIP3    H225905   4.646   6.722  11.361  0.3568 -1.2874 -1.5807
 1472TIP3   OH225906   1.893   2.484  14.168 -0.9515 -0.1696  0.4070
 1472TIP3    H125907   1.851   2.565  14.139 -0.8264  0.3335  1.5818
 1472TIP3    H225908   1.965   2.513  14.224  0.8485 -1.0175 -1.3612
 1473TIP3   OH225909   1.962   6.529  14.656 -0.1985  0.8199  0.4536
 1473TIP3    H125910   2.009   6.446  14.648 -0.0183  0.8819  0.8634
 1473TIP3    H225911   1.995   6.582  14.584  0.2174  0.7915  0.6163
 1474TIP3   OH225912   1.184   6.447  13.262  0.4609  0.5257  0.0293
 1474TIP3    H125913   1.197   6.401  13.179  1.3522  1.8627 -0.6077
 1474TIP3    H225914   1.108   6.404  13.301  0.3572 -0.4972 -1.2119
 1475TIP3   OH225915   1.436   5.934  11.005 -0.8567 -0.1199 -0.8084
 1475TIP3    H125916   1.393   6.003  11.055  1.1731 -0.2993  1.3710
 1475TIP3    H225917   1.495   5.981  10.946  0.3735  0.0950  0.5271
 1476TIP3   OH225918   5.649   5.613  11.485 -0.3003  0.2653  0.0813
 1476TIP3    H125919   5.713   5.682  11.466  0.9847 -0.8761  0.0634
 1476TIP3    H225920   5.697   5.550  11.539 -0.4770 -2.0574 -2.2584
 1477TIP3   OH225921   5.585   2.111   4.541  0.5486  1.0767 -0.6754
 1477TIP3    H125922   5.661   2.064   4.506  0.0554  0.3239 -0.7725
 1477TIP3    H225923   5.581   2.084   4.632 -1.6930 -1.8208 -1.5006
 1478TIP3   OH225924   0.301   5.310  17.080 -0.1205  0.2178 -0.1629
 1478TIP3    H125925   0.318   5.288  16.988  1.1877  1.0155 -0.1330
 1478TIP3    H225926   0.355   5.387  17.096  2.6021 -1.9902  2.3039
 1479TIP3   OH225927   6.070   0.500  15.916 -0.1929  0.1764 -0.3748
 1479TIP3    H125928   6.165   0.510  15.916 -0.2857  1.7345  2.0504
 1479TIP3    H225929   6.055   0.418  15.963 -0.0508  0.8579  0.9100
 1480TIP3   OH225930   3.005   0.350  13.373  0.3808  0.2599  0.6418
 1480TIP3    H125931   2.946   0.406  13.424  0.3490  0.0447  0.8432
 1480TIP3    H225932   3.084   0.343  13.426  0.6568  0.6990  0.2838
 1481TIP3   OH225933   5.035   6.248  15.760  0.1524  0.6631  0.6420
 1481TIP3    H125934   5.076   6.301  15.829  0.3318  0.7120  0.4967
 1481TIP3    H225935   5.045   6.158  15.791  2.1259  0.5133 -0.3137
 1482TIP3   OH225936   1.300   0.875   2.070 -0.2861  0.8362 -0.0892
 1482TIP3    H125937   1.317   0.782   2.052  2.9508  1.2986  0.0301
 1482TIP3    H225938   1.308   0.883   2.165  0.8922  1.4449 -0.2261
 1483TIP3   OH225939   1.528   3.474  12.878  0.6006  0.0512  0.4420
 1483TIP3    H125940   1.437   3.468  12.849  0.8073  0.6096 -0.3682
 1483TIP3    H225941   1.539   3.402  12.940 -0.5055  0.2357  0.8697
 1484TIP3   OH225942   3.611   2.240  12.071 -0.7940  0.2342  0.6320
 1484TIP3    H125943   3.636   2.181  12.000  0.8127 -0.1963  1.5060
 1484TIP3    H225944   3.602   2.326  12.029 -0.7050 -0.1679 -0.2280
 1485TIP3   OH225945   1.977   2.955   4.598  0.4073 -0.1785 -0.8399
 1485TIP3    H125946   1.936   2.914   4.674 -0.2583 -1.3019 -1.7647
 1485TIP3    H225947   2.067   2.972   4.625  0.2850 -0.9110  0.0662
 1486TIP3   OH225948   3.065   5.534   2.880 -0.4970  0.4099  0.1844
 1486TIP3    H125949   3.118   5.603   2.920 -0.8605  0.3089  0.8680
 1486TIP3    H225950   3.055   5.469   2.950  1.5715 -1.3509 -1.0463
 1487TIP3   OH225951   5.701   3.802  12.344  0.2611  0.9459  0.7371
 1487TIP3    H125952   5.768   3.869  12.357  0.8807  0.8324 -1.4393
 1487TIP3    H225953   5.679   3.807  12.251 -1.1209 -0.5527  0.9255
 1488TIP3   OH225954   2.001   2.319  13.443  0.1418  0.0787 -0.0030
 1488TIP3    H125955   2.029   2.250  13.503 -1.3468  0.4785  1.2117
 1488TIP3    H225956   2.074   2.329  13.382  1.3565 -0.9195  1.2236
 1489TIP3   OH225957   1.038   0.429   1.552 -0.2472  0.0726  0.0969
 1489TIP3    H125958   0.997   0.506   1.592 -0.2578 -0.6236  1.4867
 1489TIP3    H225959   1.126   0.428   1.588 -0.2087 -0.4995 -0.0124
 1490TIP3   OH225960   3.506   6.561   5.779 -0.3810  0.0838  0.4363
 1490TIP3    H125961   3.499   6.567   5.684  2.6166  2.5122  0.2029
 1490TIP3    H225962   3.507   6.652   5.809 -1.0485 -0.6176  2.7921
 1491TIP3   OH225963   4.531   3.381   3.521 -0.2747 -0.5749 -0.1734
 1491TIP3    H125964   4.500   3.395   3.610 -2.4172 -0.0973 -0.9440
 1491TIP3    H225965   4.538   3.286   3.512  0.4891 -0.6058  0.6590
 1492TIP3   OH225966   5.200   1.807   0.347 -0.0725 -0.1294 -0.1697
 1492TIP3    H125967   5.154   1.761   0.277  0.2972 -1.6515  0.5465
 1492TIP3    H225968   5.177   1.899   0.335 -1.9069 -0.6431 -0.8587
 1493TIP3   OH225969   1.326   4.750  17.169 -0.1411  0.7849 -0.1428
 1493TIP3    H125970   1.306   4.674  17.223 -0.5288  1.7134  1.0595
 1493TIP3    H225971   1.249   4.760  17.113 -0.3219  0.6139  0.0731
 1494TIP3   OH225972   0.478   2.708  11.963  0.3669 -0.3139 -0.3251
 1494TIP3    H125973   0.497   2.652  12.038  0.5521 -0.9835 -0.8597
 1494TIP3    H225974   0.559   2.708  11.912  0.5717  0.9462 -0.0249
 1495TIP3   OH225975   4.195   6.563   4.655  0.1491  0.2192 -0.5144
 1495TIP3    H125976   4.107   6.588   4.626 -1.0655 -1.1128  1.7445
 1495TIP3    H225977   4.201   6.470   4.634  0.3525 -0.0777  0.7817
 1496TIP3   OH225978   5.668   1.525   3.419 -0.7915 -0.1972  0.7168
 1496TIP3    H125979   5.665   1.432   3.396 -0.9090  0.0759 -0.4143
 1496TIP3    H225980   5.576   1.551   3.424 -0.8003  0.6189 -2.2717
 1497TIP3   OH225981   1.189   2.410  12.288  0.6362  0.2834 -0.0640
 1497TIP3    H125982   1.177   2.358  12.368 -0.9893  0.1585 -0.3731
 1497TIP3    H225983   1.269   2.374  12.249  0.4005 -0.9331  0.5228
 1498TIP3   OH225984   0.512   4.568   4.802  0.2476 -0.2657  0.4819
 1498TIP3    H125985   0.606   4.585   4.806  0.0322  2.2243 -1.8651
 1498TIP3    H225986   0.503   4.476   4.826  3.2878 -0.6319  0.5967
 1499TIP3   OH225987   4.475   5.083   2.686 -0.1596 -0.1116 -0.0595
 1499TIP3    H125988   4.500   5.050   2.600  2.3768 -0.4849  0.7427
 1499TIP3    H225989   4.474   5.005   2.742 -1.8005  0.1190  0.2803
 1500TIP3   OH225990   0.889   2.358   0.315 -0.1557 -0.4103 -0.0103
 1500TIP3    H125991   0.842   2.441   0.304 -0.2720 -0.7299 -2.3918
 1500TIP3    H225992   0.878   2.337   0.408 -3.1998  0.4272 -0.0801
 1501TIP3   OH225993   2.176   6.207  13.468 -0.4373 -0.6949 -0.6945
 1501TIP3    H125994   2.243   6.203  13.400 -0.3020 -2.2661 -0.4932
 1501TIP3    H225995   2.226   6.204  13.550 -0.6037  1.1044 -0.4862
 1502TIP3   OH225996   1.059   4.195   0.238  0.1212  0.0588  0.0060
 1502TIP3    H125997   0.969   4.227   0.224 -0.4631 -1.6824 -0.4177
 1502TIP3    H225998   1.111   4.245   0.175 -0.7675  0.1123 -0.7159
 1503TIP3   OH225999   2.272   5.795  13.023 -0.3914 -0.0481  0.4067
 1503TIP3    H126000   2.214   5.728  13.061 -0.6044 -0.3185 -0.3817
 1503TIP3    H226001   2.258   5.872  13.078  1.0993 -1.0836  2.4124
 1504TIP3   OH226002   6.567   2.676   0.379 -0.4095  0.5725 -0.1954
 1504TIP3    H126003   6.513   2.651   0.454 -1.2483  0.4442 -0.8378
 1504TIP3    H226004   6.510   2.729   0.324  0.3058  0.9665 -0.5832
 1505TIP3   OH226005   3.202   6.506   0.943  0.8230 -0.1708 -0.1738
 1505TIP3    H126006   3.275   6.452   0.972  0.0555  0.5892  3.6990
 1505TIP3    H226007   3.138   6.501   1.014 -2.2031  0.5887 -2.6136
 1506TIP3   OH226008   3.825   3.579  17.314  0.0676 -0.2513  0.2088
 1506TIP3    H126009   3.762   3.576  17.386 -0.6343 -1.0473 -0.4245
 1506TIP3    H226010   3.777   3.615  17.240  1.0697  1.5649  0.3671
 1507TIP3   OH226011   6.827   1.165  12.059  0.6333  0.0604 -0.4464
 1507TIP3    H126012   6.801   1.132  12.145  1.0897 -0.6681 -0.5802
 1507TIP3    H226013   6.888   1.100  12.025  1.0712  0.7370 -0.9944
 1508TIP3   OH226014   2.967   3.633  13.070  0.3833 -0.4476  0.2189
 1508TIP3    H126015   3.027   3.571  13.112 -0.6228 -1.3141  0.4122
 1508TIP3    H226016   2.951   3.700  13.137 -0.3454 -1.2345  0.8639
 1509TIP3   OH226017   5.715   5.832  13.214  0.7856  0.3798  0.3054
 1509TIP3    H126018   5.689   5.742  13.233 -1.2211  0.7099 -0.5571
 1509TIP3    H226019   5.742   5.867  13.299 -1.6484 -0.0818  1.3723
 1510TIP3   OH226020   2.172   0.794  13.840 -0.2705  0.5458  0.3785
 1510TIP3    H126021   2.212   0.798  13.927 -0.6659  0.7989  0.5528
 1510TIP3    H226022   2.119   0.874  13.834  1.1274  1.4283 -0.7830
 1511TIP3   OH226023   1.121   3.719  10.822  0.4338  0.1498 -0.0832
 1511TIP3    H126024   1.038   3.706  10.776  0.2603  0.0692  0.2472
 1511TIP3    H226025   1.183   3.663  10.776  0.3979  0.5197 -0.5834
 1512TIP3   OH226026   2.159   4.365   4.887 -0.1780 -0.3485  0.2531
 1512TIP3    H126027   2.137   4.350   4.979 -0.1128 -0.2898  0.2784
 1512TIP3    H226028   2.075   4.375   4.843 -0.1964  0.3877  0.4358
 1513TIP3   OH226029   1.338   2.096  14.984 -0.6387  0.4305  0.3940
 1513TIP3    H126030   1.315   2.109  15.076 -0.3187  1.5433  0.3351
 1513TIP3    H226031   1.344   2.184  14.949  1.9495  0.1776 -0.0198
 1514TIP3   OH226032   2.693   2.244   0.361  0.0748 -1.0276  0.4326
 1514TIP3    H126033   2.735   2.273   0.442  0.8794  0.2107 -0.3855
 1514TIP3    H226034   2.739   2.293   0.292 -0.0740 -2.6088 -0.8325
 1515TIP3   OH226035   5.505   5.479   1.665  0.6786  0.2994 -0.7660
 1515TIP3    H126036   5.482   5.472   1.572  3.1773  1.1903 -1.5375
 1515TIP3    H226037   5.601   5.489   1.665  0.7605  0.2008  1.9288
 1516TIP3   OH226038   5.243   2.810   3.080  0.2689  0.3288  0.8954
 1516TIP3    H126039   5.189   2.733   3.066  2.7931 -1.5604  0.8910
 1516TIP3    H226040   5.189   2.868   3.135 -1.7756 -1.2948  0.7090
 1517TIP3   OH226041   1.295   4.002  13.862  0.1045  0.6667 -0.3025
 1517TIP3    H126042   1.269   3.990  13.771 -0.1408 -0.0074 -0.1481
 1517TIP3    H226043   1.382   4.042  13.858 -0.3056  1.5488 -0.8277
 1518TIP3   OH226044   5.635   0.280  11.223  0.5900  0.1866 -0.0858
 1518TIP3    H126045   5.656   0.259  11.132  0.1920 -1.2161  0.1277
 1518TIP3    H226046   5.539   0.290  11.224  0.5773  0.0625  0.1995
 1519TIP3   OH226047   6.773   4.782  11.809  0.2833 -0.0253  0.0905
 1519TIP3    H126048   6.855   4.814  11.848 -0.3188 -0.1668  1.5123
 1519TIP3    H226049   6.722   4.861  11.793  0.9564  0.1263 -1.4717
 1520TIP3   OH226050   2.655   1.527  11.957 -0.2928 -0.3253  0.2799
 1520TIP3    H126051   2.575   1.473  11.955  0.1915 -1.0448 -0.3222
 1520TIP3    H226052   2.708   1.493  11.884 -0.2612  1.4155 -0.5641
 1521TIP3   OH226053   3.785   6.546   6.108  0.1005  0.6623 -0.0069
 1521TIP3    H126054   3.782   6.640   6.127  0.4781  0.6297  0.2169
 1521TIP3    H226055   3.736   6.505   6.178  2.2446  0.4635  1.4629
 1522TIP3   OH226056   0.216   1.282  13.376  0.1385  0.1015 -0.5685
 1522TIP3    H126057   0.191   1.367  13.340  0.6466  0.8657  0.8074
 1522TIP3    H226058   0.220   1.296  13.471  1.3848 -1.1529 -0.4033
 1523TIP3   OH226059   4.395   3.573  16.616  0.7910 -0.3304 -0.3462
 1523TIP3    H126060   4.415   3.653  16.566 -0.6190 -0.0388 -0.4902
 1523TIP3    H226061   4.300   3.574  16.625  0.8504 -1.4503  0.5915
 1524TIP3   OH226062   0.330   1.534   0.338  0.4980 -0.1410 -0.4514
 1524TIP3    H126063   0.373   1.479   0.403  1.0140  0.2284 -0.4661
 1524TIP3    H226064   0.403   1.580   0.295  0.4422 -2.2967 -3.0982
 1525TIP3   OH226065   1.195   4.351  14.753  0.7950 -0.3232  0.8132
 1525TIP3    H126066   1.242   4.434  14.751  2.0618 -1.0209 -1.2969
 1525TIP3    H226067   1.238   4.300  14.821  0.1078  0.6562  2.0175
 1526TIP3   OH226068   4.715   0.674  14.162 -0.2751 -1.0742 -0.7736
 1526TIP3    H126069   4.730   0.670  14.068  0.7966 -0.7726 -0.6216
 1526TIP3    H226070   4.777   0.611  14.199 -0.7101 -1.2173 -0.2576
 1527TIP3   OH226071   0.198   0.595   1.010 -0.4158 -0.0461 -0.0722
 1527TIP3    H126072   0.236   0.544   1.081  1.2600  0.3877 -0.6155
 1527TIP3    H226073   0.257   0.670   0.999 -0.1652 -0.4949 -2.4159
 1528TIP3   OH226074   3.190   1.310   1.782  0.4235 -0.7054 -0.3623
 1528TIP3    H126075   3.275   1.287   1.744  1.7312  0.9894  1.3124
 1528TIP3    H226076   3.153   1.373   1.721  0.5221 -1.1930 -0.9346
 1529TIP3   OH226077   0.733   5.464  12.640 -0.1007  0.0400 -0.4616
 1529TIP3    H126078   0.640   5.485  12.630 -0.2001 -0.6737 -1.1431
 1529TIP3    H226079   0.745   5.452  12.734 -1.0133 -1.2470 -0.4919
 1530TIP3   OH226080   6.817   2.628   3.167 -0.1737 -0.5403  0.6363
 1530TIP3    H126081   6.796   2.661   3.254 -0.1662  0.5200  0.2515
 1530TIP3    H226082   6.790   2.698   3.108  3.3289  0.5351  0.0164
 1531TIP3   OH226083   3.134   2.971   1.840 -0.2174 -0.0846 -0.5552
 1531TIP3    H126084   3.085   3.047   1.872 -1.7055 -2.1552  2.5920
 1531TIP3    H226085   3.223   2.985   1.872 -0.6648  0.0512  0.7121
 1532TIP3   OH226086   2.291   5.979   3.314 -0.1548  0.0968 -0.2571
 1532TIP3    H126087   2.330   5.935   3.238 -0.9123 -0.0619 -0.5607
 1532TIP3    H226088   2.225   5.918   3.346 -0.7490  0.7239 -0.2649
 1533TIP3   OH226089   1.330   4.247  16.014 -0.3219 -0.3971  0.5522
 1533TIP3    H126090   1.398   4.181  16.000  0.6463  0.5599  0.5811
 1533TIP3    H226091   1.301   4.234  16.104  1.0649  0.2643  1.1236
 1534TIP3   OH226092   6.380   3.540  14.446  0.2102  0.3433  0.0145
 1534TIP3    H126093   6.454   3.600  14.436 -0.5957  1.4670  0.5649
 1534TIP3    H226094   6.318   3.568  14.379 -0.3848  0.4557  0.6070
 1535TIP3   OH226095   3.016   3.667   5.992 -0.2715 -0.3473 -0.0030
 1535TIP3    H126096   3.065   3.589   5.965  1.6753  1.0463 -0.7598
 1535TIP3    H226097   2.925   3.647   5.971  0.0943 -2.5889  0.2852
 1536TIP3   OH226098   0.871   3.346  15.594 -0.4616 -0.3593  0.2109
 1536TIP3    H126099   0.792   3.363  15.646  0.1203  0.8989  0.7355
 1536TIP3    H226100   0.867   3.412  15.524  0.1950 -0.1801  0.3383
 1537TIP3   OH226101   5.032   1.658   0.762  0.4281  0.1572 -0.1644
 1537TIP3    H126102   4.975   1.670   0.686  0.6107  2.0560 -0.0554
 1537TIP3    H226103   5.120   1.654   0.724  0.5003  0.8925 -0.1034
 1538TIP3   OH226104   5.981   4.582  10.358 -0.0551 -0.4555  0.0071
 1538TIP3    H126105   5.894   4.558  10.390 -0.0421  2.1788  2.4033
 1538TIP3    H226106   5.969   4.668  10.317  1.3466 -0.1848  0.1003
 1539TIP3   OH226107   2.993   6.141  13.311  0.3686  0.1045  0.2145
 1539TIP3    H126108   2.971   6.218  13.258 -1.3055 -0.0673  0.5838
 1539TIP3    H226109   3.078   6.112  13.279  0.4446  1.3671 -0.7858
 1540TIP3   OH226110   6.414   2.361  13.883 -0.1813 -0.3387 -0.2467
 1540TIP3    H126111   6.447   2.274  13.906 -0.1528  0.0057  1.1078
 1540TIP3    H226112   6.319   2.353  13.890 -0.1874 -0.3162 -0.3019
 1541TIP3   OH226113   3.762   5.335   1.985  0.5534  0.4322  0.1326
 1541TIP3    H126114   3.789   5.418   2.025  1.5719  0.2078 -0.0639
 1541TIP3    H226115   3.760   5.273   2.057 -0.0901  0.5933  0.2588
 1542TIP3   OH226116   6.297   5.562   1.543 -0.5919  0.3291  0.2612
 1542TIP3    H126117   6.349   5.482   1.555 -1.3107 -0.4774 -1.5693
 1542TIP3    H226118   6.339   5.606   1.469 -0.0480  1.8359  1.4098
 1543TIP3   OH226119   4.695   5.470  16.970  0.2016 -0.0314 -0.3721
 1543TIP3    H126120   4.746   5.551  16.970  1.9129 -1.0720 -0.1817
 1543TIP3    H226121   4.695   5.441  17.061 -0.6350 -0.1134 -0.3938
 1544TIP3   OH226122   4.909   2.114  12.631 -0.1435  0.2851 -0.4426
 1544TIP3    H126123   4.883   2.093  12.721 -0.9470  0.2720 -0.6671
 1544TIP3    H226124   4.942   2.204  12.636  0.0644  0.1902 -0.0890
 1545TIP3   OH226125   1.260   6.181  17.204 -0.4131 -0.2106  0.4341
 1545TIP3    H126126   1.302   6.248  17.149  2.1304 -0.8333  1.4616
 1545TIP3    H226127   1.304   6.189  17.288 -1.4040 -1.9485  1.1539
 1546TIP3   OH226128   1.717   3.293  14.842 -0.1854  0.3536 -0.3873
 1546TIP3    H126129   1.638   3.276  14.790 -0.9878  1.2407  0.4777
 1546TIP3    H226130   1.759   3.208  14.851 -1.5946 -0.3429 -0.0228
 1547TIP3   OH226131   3.417   4.044  12.301 -0.3519 -0.0451  0.0578
 1547TIP3    H126132   3.462   4.098  12.236 -1.8152  0.7846 -0.3078
 1547TIP3    H226133   3.358   3.989  12.250  0.9664 -1.9253  0.4416
 1548TIP3   OH226134   5.887   5.497   2.759 -0.1170  0.4594 -0.5682
 1548TIP3    H126135   5.813   5.557   2.745 -0.2445  0.0931 -1.5336
 1548TIP3    H226136   5.958   5.554   2.791 -0.6847  0.8797 -0.0426
 1549TIP3   OH226137   3.427   5.089   3.244  0.4640 -0.0497 -0.0358
 1549TIP3    H126138   3.443   5.006   3.200  0.7018  0.1245 -0.2836
 1549TIP3    H226139   3.499   5.145   3.216 -1.3691  1.2783 -2.4850
 1550TIP3   OH226140   0.954   4.517  14.217  0.2872 -0.2993 -0.1471
 1550TIP3    H126141   0.964   4.446  14.154 -0.5198  0.4049 -1.0862
 1550TIP3    H226142   0.941   4.472  14.301  1.0718 -1.2425 -0.5043
 1551TIP3   OH226143   4.617   1.374  11.414 -0.2829 -0.4007  0.3535
 1551TIP3    H126144   4.685   1.324  11.370 -0.0947  0.7442 -0.6996
 1551TIP3    H226145   4.661   1.417  11.487  0.0282 -0.0327 -0.0493
 1552TIP3   OH226146   5.038   4.717   4.575 -0.0924  0.0860 -0.8638
 1552TIP3    H126147   5.109   4.653   4.568  0.9085  0.8519  1.3405
 1552TIP3    H226148   5.080   4.801   4.560 -1.1016  0.3886 -2.1689
 1553TIP3   OH226149   5.293   4.907  12.705 -0.3370 -0.4594  0.8874
 1553TIP3    H126150   5.284   4.816  12.677  0.4376 -0.9014  2.0128
 1553TIP3    H226151   5.288   4.903  12.801 -1.0614  0.7795  0.9159
 1554TIP3   OH226152   1.657   5.710   2.414  0.4085 -0.7154 -0.1318
 1554TIP3    H126153   1.676   5.617   2.430  0.0497 -0.8384 -0.3928
 1554TIP3    H226154   1.709   5.732   2.336 -0.2146 -0.9493 -0.6198
 1555TIP3   OH226155   2.346   5.485  16.242  0.2130 -0.5183  0.4405
 1555TIP3    H126156   2.437   5.510  16.256 -0.0346  0.1074  0.9560
 1555TIP3    H226157   2.295   5.561  16.269 -0.4842 -0.9971  0.5075
 1556TIP3   OH226158   3.983   1.739  10.748 -0.0030 -0.5158  0.1155
 1556TIP3    H126159   4.030   1.785  10.679  0.2446  0.8230  1.1420
 1556TIP3    H226160   4.017   1.776  10.830 -1.1647 -1.1886  0.9384
 1557TIP3   OH226161   3.363   1.498  12.483  0.3388  0.3610  0.0488
 1557TIP3    H126162   3.341   1.520  12.574 -1.6386  2.8391 -0.9005
 1557TIP3    H226163   3.441   1.444  12.490 -0.3556 -0.4625  3.2624
 1558TIP3   OH226164   5.186   1.822   3.417  0.0427 -0.2593 -0.4496
 1558TIP3    H126165   5.268   1.865   3.393 -0.4626  1.2890  0.4937
 1558TIP3    H226166   5.196   1.799   3.509 -0.6117  0.0658 -0.2854
 1559TIP3   OH226167   0.974   0.260   0.771  0.1292  0.0629 -0.4122
 1559TIP3    H126168   0.908   0.209   0.725 -0.1580  0.6967 -0.7258
 1559TIP3    H226169   1.055   0.211   0.761 -0.1054 -0.2263 -0.8745
 1560TIP3   OH226170   4.543   6.021   5.234 -0.2665  0.1524  0.1152
 1560TIP3    H126171   4.523   5.943   5.285  0.6625 -0.8016 -0.8990
 1560TIP3    H226172   4.612   6.065   5.283  0.1140 -0.3700  0.0600
 1561TIP3   OH226173   2.704   4.183   2.869 -0.2178 -0.2645  0.1446
 1561TIP3    H126174   2.766   4.113   2.848 -0.6033 -0.2006 -1.3409
 1561TIP3    H226175   2.710   4.244   2.795 -1.1012  0.4059  0.6014
 1562TIP3   OH226176   5.116   2.314   3.453  0.0314 -0.2677 -0.1307
 1562TIP3    H126177   5.056   2.383   3.481 -0.9127 -1.0515 -0.1557
 1562TIP3    H226178   5.109   2.314   3.357  0.9506  0.3936 -0.2072
 1563TIP3   OH226179   3.437   4.258   5.534  0.2287  0.3205  0.4439
 1563TIP3    H126180   3.498   4.314   5.485 -1.6665  1.5473 -0.6209
 1563TIP3    H226181   3.391   4.209   5.467  0.0540 -0.6282  1.2409
 1564TIP3   OH226182   2.823   3.708  17.135 -0.5186 -0.0683 -0.2334
 1564TIP3    H126183   2.759   3.646  17.170 -0.7892 -0.4574 -1.4029
 1564TIP3    H226184   2.872   3.737  17.213 -1.0911 -0.9292  0.4708
 1565TIP3   OH226185   0.964   6.238  16.374 -0.2571  0.2000  0.5699
 1565TIP3    H126186   0.943   6.315  16.426  1.5221 -0.0854  1.8144
 1565TIP3    H226187   1.022   6.271  16.305  0.0324  0.0660  0.7487
 1566TIP3   OH226188   0.661   1.843   0.825 -0.1332  0.0888  0.1498
 1566TIP3    H126189   0.734   1.831   0.886  0.6926 -2.4019 -1.1866
 1566TIP3    H226190   0.687   1.917   0.770  1.2753 -0.5925 -0.1272
 1567TIP3   OH226191   2.340   3.480  16.326  0.4923 -0.7077 -0.1276
 1567TIP3    H126192   2.302   3.402  16.367  1.1770 -1.1745 -0.3488
 1567TIP3    H226193   2.324   3.468  16.233 -1.4673  0.5767  0.0031
 1568TIP3   OH226194   3.047   6.634  14.656  0.2934 -0.4438 -0.0693
 1568TIP3    H126195   3.110   6.643  14.585 -0.7740 -1.5978 -1.2056
 1568TIP3    H226196   3.090   6.675  14.731  2.6915 -1.7416 -0.6218
 1569TIP3   OH226197   4.953   3.586   2.251  0.4510  0.2223  0.6029
 1569TIP3    H126198   4.922   3.665   2.205  1.2489 -0.5465 -1.4018
 1569TIP3    H226199   5.049   3.597   2.253  0.6045 -0.8472 -0.0762
 1570TIP3   OH226200   3.889   4.024   1.318  0.0064 -0.3736 -0.0222
 1570TIP3    H126201   3.931   3.939   1.304  1.6675  0.5215 -0.7729
 1570TIP3    H226202   3.948   4.087   1.278  0.5908  1.5507  3.4862
 1571TIP3   OH226203   6.386   0.839  16.619 -0.0379 -0.3221 -0.0094
 1571TIP3    H126204   6.447   0.828  16.692 -0.3335  1.5007  0.5784
 1571TIP3    H226205   6.401   0.929  16.589 -1.9774 -0.0236 -0.2392
 1572TIP3   OH226206   1.767   2.278   3.506 -0.1398  0.1729 -0.0609
 1572TIP3    H126207   1.769   2.219   3.430 -0.0396 -1.5105  1.2121
 1572TIP3    H226208   1.834   2.344   3.485  0.4711 -0.7250 -1.0819
 1573TIP3   OH226209   4.257   5.150  13.765  0.0057 -0.3325  0.0550
 1573TIP3    H126210   4.224   5.210  13.831  1.5288  1.2298 -0.5287
 1573TIP3    H226211   4.315   5.091  13.813 -1.6868 -1.5681  0.6716
 1574TIP3   OH226212   3.862   0.863  12.169  0.0379  0.3253 -0.5719
 1574TIP3    H126213   3.848   0.836  12.260  0.9963  0.6111 -0.3253
 1574TIP3    H226214   3.908   0.947  12.176 -0.6332  0.7642 -1.3294
 1575TIP3   OH226215   2.204   4.405  10.676  0.1622  0.3494 -0.5851
 1575TIP3    H126216   2.133   4.466  10.656  1.4347  2.2109  0.3530
 1575TIP3    H226217   2.177   4.323  10.633 -2.2264  1.1504 -0.7830
 1576TIP3   OH226218   6.083   2.862   0.189  0.2442  0.1027 -0.3797
 1576TIP3    H126219   6.049   2.790   0.136  0.6604 -0.3346 -0.0556
 1576TIP3    H226220   6.032   2.860   0.269  1.6273 -1.1597  0.5185
 1577TIP3   OH226221   3.068   5.826  10.593  0.0997  0.3939  0.2745
 1577TIP3    H126222   3.085   5.780  10.675  2.6305 -1.6782 -1.2612
 1577TIP3    H226223   2.985   5.789  10.562 -0.6278  0.8388  1.5988
 1578TIP3   OH226224   5.060   1.391  11.476 -0.5444  0.5678 -0.0062
 1578TIP3    H126225   5.005   1.469  11.475  0.2152  1.1090 -0.2747
 1578TIP3    H226226   5.140   1.417  11.430  0.4083  0.1369  1.3473
 1579TIP3   OH226227   0.697   2.126  13.567 -0.3804  0.5438  0.4017
 1579TIP3    H126228   0.673   2.059  13.631 -0.5059 -0.8099 -1.0043
 1579TIP3    H226229   0.629   2.193  13.576 -1.4711 -0.5245  0.3978
 1580TIP3   OH226230   5.363   2.057  15.935  0.6698  0.4251  0.3416
 1580TIP3    H126231   5.365   2.147  15.901  1.2885  0.2457 -0.1171
 1580TIP3    H226232   5.415   2.060  16.015 -0.0582  0.6626  0.8113
 1581TIP3   OH226233   0.147   5.042  14.104 -0.1288 -0.4516  0.7078
 1581TIP3    H126234   0.209   5.031  14.176  1.0943 -0.0800 -0.2458
 1581TIP3    H226235   0.140   4.954  14.067  2.7283  0.0460 -1.4048
 1582TIP3   OH226236   6.661   2.099  13.510  0.0961 -0.3962  0.1219
 1582TIP3    H126237   6.571   2.129  13.501  0.2046  0.3097  1.2051
 1582TIP3    H226238   6.710   2.146  13.442  0.0213  0.8613  0.9205
 1583TIP3   OH226239   2.818   6.228  14.473 -0.2556 -0.1372  0.0100
 1583TIP3    H126240   2.868   6.249  14.551 -1.0476 -0.3603  0.5903
 1583TIP3    H226241   2.764   6.305  14.457  0.9506  0.5031 -1.1883
 1584TIP3   OH226242   5.859   6.492  13.974  0.3762  0.9902 -0.3146
 1584TIP3    H126243   5.923   6.440  13.924  1.0017  0.8311  0.6186
 1584TIP3    H226244   5.912   6.540  14.038 -0.4961  0.2014  1.0525
 1585TIP3   OH226245   6.435   4.059   2.741  0.1257 -0.2718  0.5580
 1585TIP3    H126246   6.386   4.100   2.670 -1.4291  1.3949  2.4980
 1585TIP3    H226247   6.449   4.129   2.805 -2.7780 -2.5736  4.1263
 1586TIP3   OH226248   6.262   2.682   5.096  0.2142  0.7693  0.3271
 1586TIP3    H126249   6.302   2.747   5.154 -0.7621  1.8223 -0.1387
 1586TIP3    H226250   6.334   2.647   5.045  0.9584  0.4749  1.5522
 1587TIP3   OH226251   6.296   6.193  15.573  0.2535 -0.1566 -0.4559
 1587TIP3    H126252   6.325   6.176  15.483  1.9079  2.6414 -0.5883
 1587TIP3    H226253   6.241   6.271  15.566 -1.7547 -1.3840  0.7213
 1588TIP3   OH226254   0.365   3.800  16.101  0.0612 -0.4975 -0.4685
 1588TIP3    H126255   0.366   3.894  16.120 -0.4780 -0.3814 -0.9699
 1588TIP3    H226256   0.272   3.776  16.106  0.3579 -1.4381  1.6495
 1589TIP3   OH226257   5.316   5.189   1.854  0.3073 -0.0907 -1.0996
 1589TIP3    H126258   5.283   5.100   1.843  0.1772 -0.0794 -0.7965
 1589TIP3    H226259   5.410   5.182   1.833  0.2442 -0.2435 -1.3433
 1590TIP3   OH226260   6.565   4.456  12.842 -0.3412  0.7447  0.3121
 1590TIP3    H126261   6.578   4.480  12.934  2.0252  1.5324 -0.1820
 1590TIP3    H226262   6.640   4.492  12.796 -0.9947 -0.4363 -1.8279
 1591TIP3   OH226263   1.339   2.682  16.036  0.4680 -0.1433 -1.0589
 1591TIP3    H126264   1.414   2.729  16.074  1.0194  0.7088 -3.0776
 1591TIP3    H226265   1.272   2.685  16.105  2.0184 -0.2936  0.5202
 1592TIP3   OH226266   3.204   3.740  14.211  0.4984 -0.5180 -0.4311
 1592TIP3    H126267   3.221   3.725  14.118 -0.4099 -0.2241 -0.6566
 1592TIP3    H226268   3.228   3.832  14.226  1.8886 -0.9204 -0.0609
 1593TIP3   OH226269   4.733   2.387  17.127  0.3397 -0.1587  0.1714
 1593TIP3    H126270   4.792   2.316  17.101 -0.5984 -0.5470 -0.9652
 1593TIP3    H226271   4.648   2.345  17.139  0.1153  0.5156  1.1095
 1594TIP3   OH226272   4.600   4.950  15.878  0.0052  0.3904  0.1086
 1594TIP3    H126273   4.574   4.956  15.970  0.8992 -1.1452  0.4981
 1594TIP3    H226274   4.696   4.950  15.881  0.0404  0.5201 -0.8458
 1595TIP3   OH226275   4.714   3.126  15.765  0.1159 -0.0029 -0.5340
 1595TIP3    H126276   4.705   3.034  15.791 -1.4662  0.0827 -0.6759
 1595TIP3    H226277   4.777   3.163  15.826 -0.0115 -0.9361  0.1745
 1596TIP3   OH226278   0.432   4.625   3.991 -0.2711  1.0915 -0.2923
 1596TIP3    H126279   0.445   4.530   3.990  0.0289  1.1023 -2.4559
 1596TIP3    H226280   0.341   4.637   3.966 -1.0187  1.3765  2.2600
 1597TIP3   OH226281   1.905   0.909  14.213  0.3823  0.1168 -0.2942
 1597TIP3    H126282   1.820   0.949  14.232  0.9088  1.6696 -1.0318
 1597TIP3    H226283   1.918   0.924  14.120  1.2839 -0.4780 -0.2756
 1598TIP3   OH226284   2.079   0.720  14.290 -0.3534 -0.2943 -0.8529
 1598TIP3    H126285   2.027   0.799  14.274 -0.0156  0.0802 -0.1580
 1598TIP3    H226286   2.109   0.729  14.381 -0.7769 -1.4906 -0.5665
 1599TIP3   OH226287   6.182   3.218   0.495  0.1866  0.3706 -0.5922
 1599TIP3    H126288   6.112   3.233   0.432  0.6455  1.7764 -0.8163
 1599TIP3    H226289   6.260   3.254   0.452  0.4745  1.5121  0.8097
 1600TIP3   OH226290   2.234   2.362   4.951  0.4220 -0.0605  0.1409
 1600TIP3    H126291   2.205   2.380   4.862  0.5929  0.6612  0.2209
 1600TIP3    H226292   2.212   2.271   4.966 -0.4214  0.0574 -0.3265
 1601TIP3   OH226293   0.465   3.542   4.267  0.0332 -0.7366 -0.9090
 1601TIP3    H126294   0.494   3.471   4.324  1.0143  1.4714  1.5352
 1601TIP3    H226295   0.504   3.521   4.181  1.6580 -2.2970  0.1417
 1602TIP3   OH226296   2.229   6.123  10.761  0.8972 -0.4098  0.5900
 1602TIP3    H126297   2.231   6.134  10.666  1.0103 -1.1009  0.5043
 1602TIP3    H226298   2.317   6.096  10.784  0.1872 -3.0730  0.4988
 1603TIP3   OH226299   0.897   2.719  13.878  0.0126 -0.3152 -1.0328
 1603TIP3    H126300   0.972   2.659  13.883 -0.6401 -1.3615 -2.8007
 1603TIP3    H226301   0.931   2.795  13.830  0.6697  0.5173  0.6628
 1604TIP3   OH226302   4.631   3.395   2.387 -0.3603 -0.2593  0.0387
 1604TIP3    H126303   4.629   3.484   2.351 -0.3604 -0.1559  0.2924
 1604TIP3    H226304   4.578   3.343   2.327  0.1821 -0.2247 -0.4780
 1605TIP3   OH226305   1.867   2.333   4.507 -0.4519 -0.0270 -0.2484
 1605TIP3    H126306   1.825   2.254   4.542  0.4404 -0.0621  0.7791
 1605TIP3    H226307   1.836   2.404   4.564  0.1593  0.0823 -0.0476
 1606TIP3   OH226308   4.036   2.160  16.196  0.6893  0.2099  0.0638
 1606TIP3    H126309   4.083   2.232  16.238  1.5450 -1.2841  1.7961
 1606TIP3    H226310   4.093   2.084  16.208 -1.4288 -1.3617  0.8475
 1607TIP3   OH226311   4.499   2.160   1.722 -0.3955 -0.8695  0.3590
 1607TIP3    H126312   4.534   2.243   1.690  0.6679 -1.7762 -0.9235
 1607TIP3    H226313   4.573   2.099   1.719 -1.4844 -2.2274 -0.1054
 1608TIP3   OH226314   1.508   3.471   4.077 -0.1292  0.1790  0.6593
 1608TIP3    H126315   1.491   3.561   4.107 -1.0336  0.6108 -1.0123
 1608TIP3    H226316   1.519   3.479   3.982  1.0903 -1.3247  0.6268
 1609TIP3   OH226317   3.575   6.048   3.557  0.2387 -0.0411 -0.2240
 1609TIP3    H126318   3.604   5.958   3.572 -0.9499 -0.4666 -0.3989
 1609TIP3    H226319   3.646   6.088   3.506  0.7328 -0.8998 -0.2238
 1610TIP3   OH226320   5.275   1.459   2.737 -0.1025 -0.6050  0.1379
 1610TIP3    H126321   5.361   1.446   2.698 -0.1398 -0.0442 -0.1321
 1610TIP3    H226322   5.291   1.465   2.831 -0.0425 -2.2570  0.2627
 1611TIP3   OH226323   6.245   3.549  11.338 -0.2068 -0.2409  0.1334
 1611TIP3    H126324   6.214   3.497  11.412 -1.1382 -0.9240 -0.6947
 1611TIP3    H226325   6.311   3.494  11.296  2.0252  1.0847  1.7137
 1612TIP3   OH226326   3.348   4.409  16.084 -0.0521 -0.1146 -0.0625
 1612TIP3    H126327   3.268   4.370  16.118 -0.2405 -0.3368 -0.7370
 1612TIP3    H226328   3.419   4.365  16.130 -0.3139  0.0795  0.5329
 1613TIP3   OH226329   5.859   5.953  11.131  0.4308 -0.3537 -0.1448
 1613TIP3    H126330   5.829   6.042  11.145 -0.0148 -0.5859  0.4405
 1613TIP3    H226331   5.796   5.916  11.068  1.0256 -0.0503 -0.9398
 1614TIP3   OH226332   3.673   2.369   2.060  0.0836  0.2950 -0.7249
 1614TIP3    H126333   3.608   2.387   2.129  1.3990  0.3321  0.5432
 1614TIP3    H226334   3.748   2.423   2.083  1.2570 -1.1045 -1.1217
 1615TIP3   OH226335   1.416   2.129   5.664  0.7872 -0.5776  0.2876
 1615TIP3    H126336   1.409   2.034   5.676 -1.4119 -0.4403  0.4222
 1615TIP3    H226337   1.410   2.142   5.570 -1.8056 -0.4679  0.3856
 1616TIP3   OH226338   5.626   2.549  15.093  0.1220  0.0489 -0.0520
 1616TIP3    H126339   5.685   2.531  15.166  1.6181  0.2408 -1.1708
 1616TIP3    H226340   5.652   2.487  15.025 -1.3748 -0.2622 -0.3935
 1617TIP3   OH226341   5.809   0.432  12.316  0.2637 -0.2625  1.0141
 1617TIP3    H126342   5.882   0.424  12.255 -0.0110  0.1306  0.6297
 1617TIP3    H226343   5.738   0.383  12.275 -0.6869  2.0250 -0.1991
 1618TIP3   OH226344   1.494   1.519   3.248  0.0141  0.5927 -0.5465
 1618TIP3    H126345   1.525   1.450   3.190  0.2718  1.4337 -1.4297
 1618TIP3    H226346   1.565   1.530   3.312  0.3060  0.5740 -0.8662
 1619TIP3   OH226347   1.779   0.406   4.782  0.4565 -0.0473 -0.6988
 1619TIP3    H126348   1.843   0.335   4.789 -0.3597 -0.8736 -1.3568
 1619TIP3    H226349   1.710   0.382   4.844 -0.6452 -0.7639 -2.1298
 1620TIP3   OH226350   3.504   2.796   2.569  0.6093  0.3999 -0.2500
 1620TIP3    H126351   3.430   2.809   2.627 -0.1223  2.8778 -1.6137
 1620TIP3    H226352   3.510   2.701   2.559 -1.0551  0.0458  1.4920
 1621TIP3   OH226353   0.120   3.344   1.734 -0.1211  0.3342  0.2947
 1621TIP3    H126354   0.038   3.359   1.686 -1.3860 -1.6792  1.6490
 1621TIP3    H226355   0.130   3.249   1.736  2.4413  0.5317 -0.0529
 1622TIP3   OH226356   3.101   2.631   6.129 -0.2516  0.0763  0.2556
 1622TIP3    H126357   3.163   2.565   6.159 -1.3236 -1.5199 -0.8421
 1622TIP3    H226358   3.107   2.629   6.034  0.1249  2.0432  0.2066
 1623TIP3   OH226359   3.362   6.029   3.887  0.2829  0.7622  0.2489
 1623TIP3    H126360   3.450   6.063   3.905  1.0849 -1.4427  0.9254
 1623TIP3    H226361   3.374   5.934   3.884 -1.6925  0.4994 -1.9702
 1624TIP3   OH226362   5.350   0.619  13.423 -0.4864  0.1301 -0.2666
 1624TIP3    H126363   5.263   0.638  13.387 -0.9914 -1.4961  0.0278
 1624TIP3    H226364   5.404   0.692  13.394 -2.0900  1.5115  0.0742
 1625TIP3   OH226365   3.315   3.418  13.826  0.0616 -0.2565 -0.7914
 1625TIP3    H126366   3.222   3.395  13.832  0.6168 -2.1948  2.3787
 1625TIP3    H226367   3.358   3.338  13.799  0.9499  0.2815 -0.9986
 1626TIP3   OH226368   4.934   0.919  13.970  1.1565 -0.7293 -0.3260
 1626TIP3    H126369   4.947   0.936  14.063  0.5616  0.3692 -0.4118
 1626TIP3    H226370   4.862   0.978  13.946  0.6445 -1.7052 -1.2651
 1627TIP3   OH226371   5.993   4.274  12.884  0.5581  0.3068  0.0060
 1627TIP3    H126372   5.984   4.230  12.799 -0.0685 -0.3216  0.3928
 1627TIP3    H226373   6.049   4.350  12.865 -1.6072  1.6437 -1.5071
 1628TIP3   OH226374   6.564   1.281   6.474  0.2757  0.0970  0.2650
 1628TIP3    H126375   6.619   1.258   6.549  0.0654  1.0687  0.7298
 1628TIP3    H226376   6.508   1.204   6.462  0.6726 -0.2801  0.7761
 1629TIP3   OH226377   5.799   1.801   0.226 -0.0152 -0.1787 -0.2196
 1629TIP3    H126378   5.887   1.763   0.214 -0.5472 -1.4559 -0.2831
 1629TIP3    H226379   5.744   1.726   0.249 -1.2988  0.4144 -1.2111
 1630TIP3   OH226380   4.431   2.883  12.541 -0.2341 -0.3467 -0.1279
 1630TIP3    H126381   4.389   2.827  12.606 -1.8237 -0.6369 -1.3449
 1630TIP3    H226382   4.361   2.942  12.511  0.8213  0.7388 -0.5418
 1631TIP3   OH226383   4.754   6.738  12.068  0.2974  0.2405  0.1130
 1631TIP3    H126384   4.663   6.735  12.037 -0.0371  0.9703  0.9680
 1631TIP3    H226385   4.796   6.804  12.012  0.2752 -0.0085 -0.2021
 1632TIP3   OH226386   4.614   5.400  16.370  0.2827 -0.0063 -0.2403
 1632TIP3    H126387   4.535   5.449  16.395  0.6894 -0.1994  1.5215
 1632TIP3    H226388   4.636   5.434  16.284 -0.9920  0.9794 -0.2143
 1633TIP3   OH226389   3.367   5.825   3.282 -0.2441 -0.1397 -0.1974
 1633TIP3    H126390   3.459   5.803   3.264  0.0162  1.1620 -0.5509
 1633TIP3    H226391   3.369   5.864   3.370 -0.3973  0.2106 -0.3475
 1634TIP3   OH226392   4.363   4.925  16.457  0.0672  0.1334 -0.6997
 1634TIP3    H126393   4.410   4.976  16.392  0.7061  0.4267 -0.0282
 1634TIP3    H226394   4.426   4.913  16.528 -0.2931 -1.0138 -0.5507
 1635TIP3   OH226395   4.967   5.175  14.360  0.1052 -0.0928 -0.4866
 1635TIP3    H126396   4.914   5.128  14.295  1.4788  1.4863 -2.8810
 1635TIP3    H226397   4.903   5.229  14.408 -0.6538  1.6718 -3.2182
 1636TIP3   OH226398   1.668   5.470  16.511 -0.5086 -0.1795  0.6485
 1636TIP3    H126399   1.702   5.559  16.504 -0.8145 -0.0928  0.2580
 1636TIP3    H226400   1.680   5.447  16.603  0.0108  0.0878  0.6499
 1637TIP3   OH226401   5.921   1.597  16.115  0.3846 -0.4650  0.1530
 1637TIP3    H126402   5.856   1.541  16.157  0.4058 -0.1656  0.5915
 1637TIP3    H226403   5.924   1.567  16.024 -0.3157 -0.5279  0.1472
 1638TIP3   OH226404   6.287   1.746  14.729 -0.7092 -0.0932 -0.1185
 1638TIP3    H126405   6.333   1.830  14.730  0.4777 -0.7242  1.7194
 1638TIP3    H226406   6.234   1.750  14.649  1.2626  1.3383 -1.4659
 1639TIP3   OH226407   0.547   6.098  15.308 -0.7532 -0.0024  0.2825
 1639TIP3    H126408   0.488   6.028  15.280 -1.6203  0.6354  0.4688
 1639TIP3    H226409   0.631   6.076  15.267 -1.3861 -0.3440 -0.8814
 1640TIP3   OH226410   3.324   2.881  15.206 -0.2021  0.0378  0.1198
 1640TIP3    H126411   3.324   2.912  15.296  0.5889  1.9372 -0.4783
 1640TIP3    H226412   3.399   2.821  15.201 -0.3236 -0.1668  0.7345
 1641TIP3   OH226413   5.406   5.475  11.503 -0.1615 -0.6256  0.0769
 1641TIP3    H126414   5.363   5.560  11.517 -2.3155 -1.5172 -0.7595
 1641TIP3    H226415   5.500   5.495  11.507 -0.5995  1.8264 -0.2773
 1642TIP3   OH226416   1.761   1.309  14.035  0.4800 -0.0706  0.3416
 1642TIP3    H126417   1.766   1.228  14.085 -1.0822 -1.9015 -2.2709
 1642TIP3    H226418   1.747   1.281  13.945  2.5480  3.0598 -1.1366
 1643TIP3   OH226419   4.932   1.394  15.324 -0.5812 -0.0873  0.0932
 1643TIP3    H126420   4.840   1.374  15.341 -0.9047  0.7864 -0.5473
 1643TIP3    H226421   4.930   1.479  15.280  0.5530  0.0790  0.3332
 1644TIP3   OH226422   0.133   0.166  14.818 -0.0518  0.5375  0.0251
 1644TIP3    H126423   0.127   0.171  14.913 -2.1349  1.0035 -0.0832
 1644TIP3    H226424   0.172   0.080  14.801 -0.8964 -0.1281  1.2815
 1645TIP3   OH226425   1.833   3.357  16.331  0.0411 -0.1259 -0.0088
 1645TIP3    H126426   1.783   3.364  16.250  1.6477  0.4313 -0.9965
 1645TIP3    H226427   1.878   3.441  16.339  0.2054 -0.3140  1.2635
 1646TIP3   OH226428   6.016   0.250   2.553  0.4606 -0.0135  0.7743
 1646TIP3    H126429   6.071   0.266   2.630  0.9245 -1.8077  0.8601
 1646TIP3    H226430   6.074   0.266   2.479  0.5830 -0.1924  0.8317
 1647TIP3   OH226431   1.436   6.346  12.598  0.1907  0.3692 -0.5385
 1647TIP3    H126432   1.440   6.308  12.686  0.3786 -1.4814 -1.3065
 1647TIP3    H226433   1.510   6.309  12.552 -0.9627 -0.1851 -2.0342
 1648TIP3   OH226434   4.375   4.954   4.933  0.1769 -0.0677 -0.5480
 1648TIP3    H126435   4.329   5.030   4.969 -0.8030 -0.7557 -0.3071
 1648TIP3    H226436   4.460   4.989   4.904  0.3055  0.8376  0.8247
 1649TIP3   OH226437   3.733   0.585   3.673  0.1797  0.1198 -0.0239
 1649TIP3    H126438   3.725   0.562   3.766  0.0661 -1.2282 -0.3379
 1649TIP3    H226439   3.819   0.624   3.665  0.2749  0.0470  0.6232
 1650TIP3   OH226440   6.096   0.773  15.838 -0.2662 -0.2341 -0.5013
 1650TIP3    H126441   6.063   0.809  15.755  0.0726  0.8404 -0.1947
 1650TIP3    H226442   6.075   0.680  15.834 -1.7767  0.0964 -1.0679
 1651TIP3   OH226443   0.033   5.197   5.646 -0.2836  0.1422  0.0650
 1651TIP3    H126444  -0.026   5.122   5.632  0.2305 -0.4340  0.9044
 1651TIP3    H226445   0.120   5.158   5.653 -0.1641  0.6272  1.9986
 1652TIP3   OH226446   1.650   3.943  11.147  0.3147 -0.1181  0.1054
 1652TIP3    H126447   1.620   3.923  11.058 -0.2619  0.1453  0.2356
 1652TIP3    H226448   1.714   4.013  11.135  2.1036 -1.7592 -0.3220
 1653TIP3   OH226449   2.370   5.294   5.058  0.4092  0.4234 -0.1468
 1653TIP3    H126450   2.293   5.269   5.110  0.2501  1.6153  0.2412
 1653TIP3    H226451   2.334   5.317   4.972  0.5654 -0.7104 -0.5305
 1654TIP3   OH226452   0.095   1.566   2.797 -0.0759  0.4758 -0.6546
 1654TIP3    H126453   0.145   1.529   2.725  0.2657  2.2105 -1.3565
 1654TIP3    H226454   0.066   1.490   2.847  1.0516 -0.6960 -1.6919
 1655TIP3   OH226455   5.603   5.318  15.932 -0.1854  0.1451 -0.7443
 1655TIP3    H126456   5.550   5.258  15.880  1.7764 -1.6918 -0.7524
 1655TIP3    H226457   5.609   5.277  16.019  2.9614 -0.9522 -1.3454
 1656TIP3   OH226458   2.040   1.553   0.151  0.7875  0.3103 -0.7900
 1656TIP3    H126459   2.060   1.521   0.239  2.3117 -2.1695 -1.9311
 1656TIP3    H226460   1.945   1.542   0.142  0.4222  1.6659  0.8713
 1657TIP3   OH226461   2.366   3.279  16.875  0.4932  0.0940  0.8814
 1657TIP3    H126462   2.379   3.373  16.865 -0.9307  0.0732 -2.2893
 1657TIP3    H226463   2.280   3.271  16.916  0.7068  0.1552  1.3475
 1658TIP3   OH226464   3.332   2.666   5.417 -0.4998  0.3050  0.1144
 1658TIP3    H126465   3.241   2.647   5.397 -0.7078  1.7865 -0.4511
 1658TIP3    H226466   3.367   2.706   5.337  0.2897  0.9066  0.7395
 1659TIP3   OH226467   1.311   1.543   5.548  0.5503  0.4995  0.3817
 1659TIP3    H126468   1.247   1.604   5.511  0.4837  0.0823 -0.2076
 1659TIP3    H226469   1.278   1.456   5.525  1.9944  0.2914 -1.1023
 1660TIP3   OH226470   6.422   4.502  12.216 -0.1825  0.3583 -0.0005
 1660TIP3    H126471   6.504   4.538  12.250 -0.5553  0.5048  0.7898
 1660TIP3    H226472   6.448   4.445  12.145  0.5912  0.5623  0.1097
 1661TIP3   OH226473   2.235   4.062   1.913 -0.0448 -0.4467  0.0138
 1661TIP3    H126474   2.145   4.084   1.889 -0.5153 -1.2876  0.9154
 1661TIP3    H226475   2.267   4.009   1.841 -0.4189 -0.4942 -0.1200
 1662TIP3   OH226476   5.334   3.714   3.999 -0.1722  0.3698  0.7297
 1662TIP3    H126477   5.403   3.670   3.949 -0.9180  0.6465 -0.6114
 1662TIP3    H226478   5.272   3.743   3.932 -1.8731 -0.3440  1.9291
 1663TIP3   OH226479   4.401   4.839  11.859 -0.2953  0.2499 -0.8067
 1663TIP3    H126480   4.393   4.931  11.883  0.9193  0.4647 -1.1551
 1663TIP3    H226481   4.471   4.837  11.793 -0.2657 -0.9209 -0.7657
 1664TIP3   OH226482   1.859   1.724   4.851 -0.3813 -0.2129 -0.1822
 1664TIP3    H126483   1.899   1.646   4.813  2.8284  1.2161 -0.0068
 1664TIP3    H226484   1.825   1.772   4.775  0.3336 -0.3576 -0.6037
 1665TIP3   OH226485   1.955   0.190   4.817  0.1276  0.2536  0.2365
 1665TIP3    H126486   2.047   0.171   4.834 -0.0600  0.8289  2.1437
 1665TIP3    H226487   1.922   0.112   4.772  1.2196 -0.5465  0.7849
 1666TIP3   OH226488   3.174   0.308   0.073  0.0770 -0.1459  0.4054
 1666TIP3    H126489   3.177   0.236   0.010  0.2285 -0.0951  0.3542
 1666TIP3    H226490   3.084   0.340   0.069  0.1450 -0.0007  0.0577
 1667TIP3   OH226491   6.346   5.352  14.239  0.5225 -0.1799  0.0723
 1667TIP3    H126492   6.340   5.391  14.326  0.3866  0.4947 -0.2273
 1667TIP3    H226493   6.259   5.316  14.222  0.2069  0.7122 -0.2427
 1668TIP3   OH226494   4.846   0.824   0.984 -0.1817  0.3945  0.3959
 1668TIP3    H126495   4.877   0.907   1.021 -1.3834  0.9016  0.2973
 1668TIP3    H226496   4.867   0.759   1.051  2.5660  0.4256 -0.3345
 1669TIP3   OH226497   0.647   3.098  13.675 -0.8526 -0.1152 -0.3729
 1669TIP3    H126498   0.740   3.080  13.658 -0.8502  1.1016 -1.8514
 1669TIP3    H226499   0.645   3.191  13.695 -1.8685  0.0970 -1.3912
 1670TIP3   OH226500   0.815   2.353   5.180 -0.1235  0.3790  0.2387
 1670TIP3    H126501   0.728   2.312   5.175  0.1504 -0.0194 -2.0099
 1670TIP3    H226502   0.823   2.403   5.099  1.2696  1.4797  1.0029
 1671TIP3   OH226503   2.565   2.344   2.521 -0.1103 -0.3419 -0.1793
 1671TIP3    H126504   2.529   2.427   2.488 -0.6056 -1.1566 -1.8251
 1671TIP3    H226505   2.640   2.326   2.464  0.6840 -0.4998  0.8794
 1672TIP3   OH226506   1.711   4.778  16.407  0.5235 -0.0348 -0.3024
 1672TIP3    H126507   1.657   4.718  16.459  1.4617  0.2955  1.0946
 1672TIP3    H226508   1.801   4.760  16.435  0.8298  2.1348  0.2997
 1673TIP3   OH226509   6.463   6.295  17.161  0.6058 -0.0487 -0.0138
 1673TIP3    H126510   6.406   6.312  17.236  1.4050  0.4037  0.5108
 1673TIP3    H226511   6.446   6.204  17.138 -0.2552  0.0528  0.1895
 1674TIP3   OH226512   3.268   2.465  16.060  0.2994  0.0449  0.6346
 1674TIP3    H126513   3.292   2.465  15.967 -2.7379  1.8188 -0.2844
 1674TIP3    H226514   3.321   2.535  16.099  1.0964 -0.2589  0.1274
 1675TIP3   OH226515   5.693   1.546   0.370 -0.3974 -0.1733 -0.2713
 1675TIP3    H126516   5.643   1.465   0.378  1.4832 -1.2424  2.5532
 1675TIP3    H226517   5.784   1.517   0.361  0.2562  1.6178  0.1719
 1676TIP3   OH226518   3.063   5.875   3.238 -0.1419  0.4619  0.1068
 1676TIP3    H126519   3.043   5.798   3.291 -0.0233  0.5346  0.2558
 1676TIP3    H226520   3.083   5.943   3.302  2.4410 -0.0709 -0.0220
 1677TIP3   OH226521   1.245   5.344   3.725  0.7328  0.0946  0.4058
 1677TIP3    H126522   1.235   5.304   3.811  1.0987  0.5010  0.6395
 1677TIP3    H226523   1.172   5.308   3.674  0.8898 -0.6501  0.6868
 1678TIP3   OH226524   3.110   4.448   1.299  0.7024 -0.3887 -0.7875
 1678TIP3    H126525   3.185   4.438   1.241  2.8017  1.2520  1.4089
 1678TIP3    H226526   3.119   4.377   1.363  0.0603 -0.5111 -0.8277
 1679TIP3   OH226527   3.505   3.284  15.681  0.8142  0.2482 -0.4216
 1679TIP3    H126528   3.470   3.373  15.689  1.1495  0.3914 -0.5204
 1679TIP3    H226529   3.445   3.240  15.621  0.3654  0.2585  0.0073
 1680TIP3   OH226530   1.150   5.673   6.330  0.5384 -0.4197  0.6713
 1680TIP3    H126531   1.144   5.755   6.380 -1.4526 -0.8124  1.1384
 1680TIP3    H226532   1.123   5.605   6.392 -0.3090 -1.1182 -0.4326
 1681TIP3   OH226533   3.378   1.728   2.341 -0.2125  0.1517  0.0231
 1681TIP3    H126534   3.383   1.759   2.431 -0.7766 -0.7622  0.3891
 1681TIP3    H226535   3.439   1.783   2.292 -0.3862  1.0845  0.8415
 1682TIP3   OH226536   1.351   4.083   4.285 -0.0343 -0.3769 -0.2187
 1682TIP3    H126537   1.346   4.010   4.347  1.8132  1.3428  2.1071
 1682TIP3    H226538   1.260   4.107   4.269 -0.7430 -3.3627 -1.4005
 1683TIP3   OH226539   6.800   1.181  12.597 -0.6418 -0.2890  0.1137
 1683TIP3    H126540   6.831   1.204  12.684 -1.6734  1.2936  0.1013
 1683TIP3    H226541   6.880   1.168  12.546 -0.0135  0.2680  0.9206
 1684TIP3   OH226542   0.159   2.787   5.836  0.5524  0.2687 -0.4523
 1684TIP3    H126543   0.149   2.805   5.929 -0.1642 -0.6738 -0.3288
 1684TIP3    H226544   0.145   2.871   5.793 -1.9678  0.2337  0.1401
 1685TIP3   OH226545   0.748   5.817   4.846 -0.5410  0.1733  0.6668
 1685TIP3    H126546   0.669   5.828   4.899  0.4612 -0.0446  2.2764
 1685TIP3    H226547   0.739   5.730   4.807 -1.1336  0.1848  0.7736
 1686TIP3   OH226548   0.474   3.676   0.568 -0.0075 -0.3487 -0.3881
 1686TIP3    H126549   0.564   3.705   0.586 -0.5437  0.9743  0.3242
 1686TIP3    H226550   0.422   3.757   0.571 -1.2862 -1.1454 -0.3307
 1687TIP3   OH226551   2.920   1.024   3.765  0.0056 -0.1810 -0.6694
 1687TIP3    H126552   2.879   0.952   3.814  0.2853 -0.3397 -0.6689
 1687TIP3    H226553   2.859   1.097   3.775  1.4553  0.7609  2.4739
 1688TIP3   OH226554   2.823   5.398  11.146  0.2100  0.0088  0.0665
 1688TIP3    H126555   2.888   5.383  11.215  2.2805  2.2190 -1.2496
 1688TIP3    H226556   2.837   5.327  11.083  0.2255 -0.4303  0.5580
 1689TIP3   OH226557   1.479   3.659  11.494  0.0953 -0.4923  0.1758
 1689TIP3    H126558   1.509   3.693  11.410  0.6438  1.2161  1.0042
 1689TIP3    H226559   1.550   3.681  11.555 -0.0376 -2.1825  1.0017
 1690TIP3   OH226560   3.647   1.180  14.061  0.0564 -0.2938  0.0175
 1690TIP3    H126561   3.656   1.269  14.095  1.1833 -0.6997  0.8249
 1690TIP3    H226562   3.559   1.178  14.023 -0.2528  0.9506  0.6184
 1691TIP3   OH226563   5.987   2.039  11.355  0.7615  0.3797 -0.7317
 1691TIP3    H126564   5.990   2.130  11.381  0.3286  0.3113 -0.4358
 1691TIP3    H226565   5.895   2.022  11.334  1.0731  0.4434 -2.3534
 1692TIP3   OH226566   1.885   2.418   2.386  0.8082 -0.5036  0.8041
 1692TIP3    H126567   1.863   2.423   2.292 -0.7987  0.9346  1.2033
 1692TIP3    H226568   1.829   2.348   2.420 -0.2497  0.4640  1.0826
 1693TIP3   OH226569   6.310   4.181  14.552  0.0691  0.1506 -0.5333
 1693TIP3    H126570   6.309   4.137  14.638  0.5649  1.3211  0.0896
 1693TIP3    H226571   6.378   4.247  14.560 -0.5455  0.9171 -1.5145
 1694TIP3   OH226572   1.068   5.566   1.214 -0.3386 -0.0076 -0.0930
 1694TIP3    H126573   1.039   5.656   1.202 -0.4667  0.2023  1.5499
 1694TIP3    H226574   1.054   5.525   1.129 -1.1006  1.2877 -0.6231
 1695TIP3   OH226575   2.406   1.878   2.616 -0.4691  0.1574 -0.5842
 1695TIP3    H126576   2.467   1.911   2.551  0.3397 -0.6098 -0.2448
 1695TIP3    H226577   2.457   1.814   2.666 -0.8945  1.1491  1.1821
 1696TIP3   OH226578   3.779   3.955   2.258 -0.3037  0.1278 -0.0730
 1696TIP3    H126579   3.734   4.038   2.244 -1.8137 -0.7537 -0.7311
 1696TIP3    H226580   3.846   3.952   2.189  1.4829  1.8739  1.4932
 1697TIP3   OH226581   2.797   4.732   2.770  0.4990  0.1011  0.2732
 1697TIP3    H126582   2.801   4.714   2.864 -2.9469  1.6396  0.8913
 1697TIP3    H226583   2.848   4.812   2.758  0.1331  0.4565  1.0384
 1698TIP3   OH226584   3.794   4.965  15.774 -0.3020 -0.3782 -0.5109
 1698TIP3    H126585   3.702   4.988  15.789 -0.4490 -1.8847  1.2902
 1698TIP3    H226586   3.831   4.954  15.862  1.2258 -1.1749 -1.2096
 1699TIP3   OH226587   2.526   4.088  14.879  0.1583 -0.3222 -0.8266
 1699TIP3    H126588   2.584   4.058  14.810  0.1398  1.0034 -1.4399
 1699TIP3    H226589   2.563   4.171  14.909  1.2796 -1.7505  2.1516
 1700TIP3   OH226590   2.422   4.546  16.195  0.5364  0.2396 -0.0712
 1700TIP3    H126591   2.404   4.503  16.112 -1.1555  1.0558 -0.1790
 1700TIP3    H226592   2.349   4.520  16.252  0.8815  0.8644  0.6839
 1701TIP3   OH226593   3.954   2.994   3.236  0.9382  0.4146  0.1978
 1701TIP3    H126594   4.030   2.965   3.287  0.3399 -0.0445  0.8453
 1701TIP3    H226595   3.880   2.981   3.294  0.3313  0.6372 -0.5151
 1702TIP3   OH226596   4.467   0.948  12.836  0.5296  0.4983 -1.0126
 1702TIP3    H126597   4.442   1.007  12.907  1.0308  0.6159 -0.9278
 1702TIP3    H226598   4.520   0.881  12.878  0.3751  0.2673 -1.1892
 1703TIP3   OH226599   0.663   0.703  13.878  0.3958  0.0429 -0.4404
 1703TIP3    H126600   0.621   0.686  13.962 -0.5556 -2.0610 -1.2679
 1703TIP3    H226601   0.724   0.775  13.895 -1.1729  0.9942  1.5672
 1704TIP3   OH226602   1.850   5.848  16.131  0.1899 -0.9344  0.1068
 1704TIP3    H126603   1.840   5.875  16.040 -1.7099 -0.2749  0.4653
 1704TIP3    H226604   1.911   5.912  16.168 -0.8358  0.2663 -0.1660
 1705TIP3   OH226605   4.612   2.566   5.578 -0.3839  0.1589 -0.3224
 1705TIP3    H126606   4.549   2.561   5.650 -1.9135  1.3149 -1.5248
 1705TIP3    H226607   4.591   2.491   5.523 -1.1111  0.8667 -1.0222
 1706TIP3   OH226608   3.180   3.594  12.366 -0.5322  0.7410 -0.4358
 1706TIP3    H126609   3.239   3.653  12.412 -1.1695 -0.1122  1.5917
 1706TIP3    H226610   3.106   3.648  12.340 -0.5883  1.0755  0.3990
 1707TIP3   OH226611   1.167   3.981   2.986 -0.5791  0.1587 -0.1114
 1707TIP3    H126612   1.244   4.038   2.991 -0.1246 -0.3717 -0.8595
 1707TIP3    H226613   1.124   4.007   2.904  1.3752 -2.6615 -2.2136
 1708TIP3   OH226614   2.916   2.753  17.245  0.2782  0.4358  0.3159
 1708TIP3    H126615   2.827   2.725  17.267  0.0768 -0.5928 -1.6370
 1708TIP3    H226616   2.967   2.733  17.324 -1.1856  1.0350  1.4645
 1709TIP3   OH226617   0.821   0.823   1.091 -0.0411  0.0468 -0.2112
 1709TIP3    H126618   0.826   0.796   0.999  0.2659 -1.1226  0.1271
 1709TIP3    H226619   0.788   0.913   1.088 -2.6946 -0.8697 -1.3495
 1710TIP3   OH226620   0.888   0.067  16.551 -0.2455 -0.4107  0.3168
 1710TIP3    H126621   0.859   0.089  16.463 -0.9857 -0.1325  0.6204
 1710TIP3    H226622   0.960   0.127  16.569 -1.3768  0.8864  0.6372
 1711TIP3   OH226623   1.440   5.500  13.315  0.9617  0.4215  0.6371
 1711TIP3    H126624   1.461   5.516  13.406  1.7571 -0.3228  0.5931
 1711TIP3    H226625   1.351   5.465  13.316  1.5264 -1.0216  1.2652
 1712TIP3   OH226626   0.353   2.021  15.137  0.5558 -0.3833  0.0900
 1712TIP3    H126627   0.408   1.953  15.175  0.6816 -0.7988 -0.8056
 1712TIP3    H226628   0.311   2.063  15.212  0.5828 -1.3539  0.6719
 1713TIP3   OH226629   6.744   5.296  14.985 -0.0287  0.3277 -0.2704
 1713TIP3    H126630   6.651   5.303  14.964 -0.0200  0.9515 -0.1276
 1713TIP3    H226631   6.749   5.313  15.079  0.2755  0.7474 -0.3586
 1714TIP3   OH226632   5.086   2.563   1.647 -0.4360 -0.2052 -0.3289
 1714TIP3    H126633   5.049   2.521   1.725  0.2789 -0.6576 -0.2204
 1714TIP3    H226634   5.080   2.496   1.579 -1.0872  0.2007 -0.6747
 1715TIP3   OH226635   6.810   1.452  12.276 -0.2749  0.1327  0.8593
 1715TIP3    H126636   6.844   1.368  12.308  1.9682  0.8364  0.5429
 1715TIP3    H226637   6.745   1.429  12.210  0.1502 -1.3494  0.9229
 1716TIP3   OH226638   6.416   3.239  10.864  0.1746  0.1454 -0.2796
 1716TIP3    H126639   6.428   3.156  10.911  2.2358  0.1673 -0.6871
 1716TIP3    H226640   6.428   3.216  10.772 -0.7721  0.6509 -0.5435
 1717TIP3   OH226641   0.742   4.060   4.901  0.0297  0.2722 -0.3298
 1717TIP3    H126642   0.669   4.015   4.943 -0.1540 -0.3440 -1.2692
 1717TIP3    H226643   0.818   4.040   4.955 -0.0981 -0.9626 -0.5748
 1718TIP3   OH226644   2.832   5.072   6.785  0.3002  0.5368  0.1936
 1718TIP3    H126645   2.926   5.055   6.792  0.7354  1.6489 -2.0339
 1718TIP3    H226646   2.817   5.150   6.839  0.8790  0.9625 -0.2455
 1719TIP3   OH226647   2.894   3.660   5.590 -0.1497  0.9555 -0.5237
 1719TIP3    H126648   2.896   3.570   5.621  0.0803  1.1996  0.2065
 1719TIP3    H226649   2.985   3.680   5.568  0.2532  1.7354  1.5712
 1720TIP3   OH226650   4.905   2.045  14.382  0.1716 -0.2745  0.1711
 1720TIP3    H126651   4.835   2.105  14.357 -1.1204 -1.7154  0.1632
 1720TIP3    H226652   4.912   1.984  14.308  1.1799 -0.3830  0.3391
 1721TIP3   OH226653   3.129   3.531   5.031 -0.7474  0.4250  0.2021
 1721TIP3    H126654   3.083   3.447   5.038 -0.3349  0.3096  1.6909
 1721TIP3    H226655   3.204   3.512   4.975 -2.9934  0.8788 -3.3025
 1722TIP3   OH226656   6.127   1.735  14.509 -0.7250 -0.5127 -0.4401
 1722TIP3    H126657   6.051   1.788  14.486 -0.8607 -1.7351 -3.0908
 1722TIP3    H226658   6.132   1.668  14.441  1.5254 -1.7392  0.8063
 1723TIP3   OH226659   1.680   3.436  11.863  0.7335  0.1927  0.6598
 1723TIP3    H126660   1.760   3.386  11.878  0.0489 -0.3354  2.8946
 1723TIP3    H226661   1.690   3.515  11.916  0.1602  0.5690  0.2227
 1724TIP3   OH226662   4.177   1.528   4.507  0.2237 -0.0516  0.1969
 1724TIP3    H126663   4.192   1.553   4.416 -1.8834 -1.4636 -0.6071
 1724TIP3    H226664   4.265   1.521   4.545  1.1849 -0.2105 -1.9197
 1725TIP3   OH226665   4.247   2.688   2.654  0.1329  0.2184 -0.2927
 1725TIP3    H126666   4.269   2.719   2.566 -0.6479 -4.4341 -2.4263
 1725TIP3    H226667   4.332   2.669   2.694  0.5423  3.1282  0.5073
 1726TIP3   OH226668   3.050   1.341  12.735 -0.0036  0.0770  0.5001
 1726TIP3    H126669   2.973   1.336  12.792  0.1286  2.8668  1.0516
 1726TIP3    H226670   3.123   1.322  12.793  0.0563  2.0385  1.1222
 1727TIP3   OH226671   5.807   5.552   5.846 -0.4168 -0.2010  0.3694
 1727TIP3    H126672   5.878   5.616   5.838 -0.6315 -0.0456 -0.4033
 1727TIP3    H226673   5.799   5.514   5.758  0.1435 -1.7690  0.9582
 1728TIP3   OH226674   1.832   3.440  12.958 -0.6162  0.5255 -0.5665
 1728TIP3    H126675   1.883   3.519  12.976  1.0404 -0.8818  1.5368
 1728TIP3    H226676   1.743   3.461  12.987  0.1022  1.2361  1.3020
 1729TIP3   OH226677   5.915   2.491   4.750 -0.7767  0.2618 -0.1375
 1729TIP3    H126678   5.926   2.509   4.844  3.5467  0.4140 -0.4627
 1729TIP3    H226679   5.911   2.396   4.744  0.2121  0.1821  0.1915
 1730TIP3   OH226680   3.980   0.851  13.981 -0.9721  0.2104  0.0313
 1730TIP3    H126681   3.965   0.781  13.917 -2.0448  0.1592  0.3253
 1730TIP3    H226682   3.935   0.927  13.944 -2.1444  0.0202  0.9983
 1731TIP3   OH226683   3.110   5.955   1.181  0.5747  0.1484 -0.7363
 1731TIP3    H126684   3.080   5.985   1.267  3.1607  1.4855 -0.1778
 1731TIP3    H226685   3.089   6.028   1.122 -0.5424 -0.4685 -1.1329
 1732TIP3   OH226686   5.285   1.547  14.618  0.1798  0.0261 -0.0090
 1732TIP3    H126687   5.280   1.580  14.708 -0.3272 -0.3157  0.0920
 1732TIP3    H226688   5.331   1.463  14.626 -0.0896 -0.1237 -0.0367
 1733TIP3   OH226689   5.596   5.874   0.557  0.5582  0.0408  0.5091
 1733TIP3    H126690   5.550   5.790   0.551  3.3685 -1.8305  2.6370
 1733TIP3    H226691   5.665   5.869   0.491 -0.8213  1.9414 -1.2208
 1734TIP3   OH226692   0.416   6.033   2.827 -0.0148  0.0594  0.2771
 1734TIP3    H126693   0.361   6.109   2.845 -2.6810 -1.5982 -0.3064
 1734TIP3    H226694   0.469   6.059   2.751 -2.2004  0.7858 -1.0984
 1735TIP3   OH226695   2.502   1.488  17.248 -0.1875 -0.2897  0.3156
 1735TIP3    H126696   2.516   1.443  17.331 -0.2488 -0.4963  0.2146
 1735TIP3    H226697   2.586   1.481  17.203  0.5179  1.6303  1.2212
 1736TIP3   OH226698   1.248   0.767   3.369 -0.3223 -0.5482  0.2675
 1736TIP3    H126699   1.223   0.799   3.456 -0.2632 -0.8341  0.3903
 1736TIP3    H226700   1.240   0.672   3.375 -0.3953 -0.5645 -0.0646
 1737TIP3   OH226701   3.562   2.742   1.824  0.3494 -0.6158  0.1894
 1737TIP3    H126702   3.598   2.664   1.781 -0.7096 -1.2385  0.3981
 1737TIP3    H226703   3.636   2.802   1.830  0.7566 -0.9069 -1.5707
 1738TIP3   OH226704   2.973   5.926   1.936 -0.1455 -0.0257  0.4207
 1738TIP3    H126705   2.990   5.842   1.979  0.1162 -1.4780 -2.3366
 1738TIP3    H226706   2.881   5.921   1.910 -0.0979  0.4911  0.1463
 1739TIP3   OH226707   5.842   5.985  17.262 -0.0867 -0.3373 -0.5082
 1739TIP3    H126708   5.873   5.902  17.226  0.4450  0.4103 -1.8449
 1739TIP3    H226709   5.747   5.983  17.247 -0.0494 -0.6193 -0.7317
 1740TIP3   OH226710   1.421   6.106  12.956 -0.2526 -0.1697 -0.4287
 1740TIP3    H126711   1.504   6.151  12.969 -0.0315  0.0580 -2.3638
 1740TIP3    H226712   1.400   6.069  13.042  1.0832  1.0279  0.4547
 1741TIP3   OH226713   0.724   5.460   5.929  0.0532  0.3209  0.0662
 1741TIP3    H126714   0.798   5.405   5.954  2.0633  1.1765 -3.4381
 1741TIP3    H226715   0.662   5.400   5.887  0.6623  0.1947 -0.6645
 1742TIP3   OH226716   6.023   5.945  16.567 -0.0612 -0.4687 -0.1969
 1742TIP3    H126717   5.950   5.996  16.601  0.5655 -1.0895  2.3121
 1742TIP3    H226718   5.995   5.854  16.577  0.1076 -0.6783 -1.5348
 1743TIP3   OH226719   0.189   3.934   4.116 -0.6930 -0.0921 -0.0934
 1743TIP3    H126720   0.159   3.844   4.105 -0.2015 -0.1914 -0.7378
 1743TIP3    H226721   0.113   3.988   4.095 -0.5957 -0.3433 -1.1733
 1744TIP3   OH226722   5.615   6.794  15.823 -0.6209  0.2785  0.1367
 1744TIP3    H126723   5.650   6.865  15.877 -0.6029  1.0885 -0.9052
 1744TIP3    H226724   5.546   6.755  15.877  0.6664 -0.1938  1.4985
 1745TIP3   OH226725   1.895   2.431  16.346 -0.1295  0.4065  0.1529
 1745TIP3    H126726   1.823   2.432  16.282 -0.4542  2.3824  0.5010
 1745TIP3    H226727   1.873   2.360  16.406 -0.7268 -0.3381 -0.9173
 1746TIP3   OH226728   3.823   5.629   0.908  0.4630  0.0730 -0.0720
 1746TIP3    H126729   3.899   5.617   0.851  0.6763 -1.8003  0.5301
 1746TIP3    H226730   3.756   5.570   0.873  0.4008 -0.6801  1.2277
 1747TIP3   OH226731   4.038   0.353   2.651  0.5297  0.8138 -0.2941
 1747TIP3    H126732   4.009   0.266   2.678  0.6891  0.3359 -1.5710
 1747TIP3    H226733   4.132   0.354   2.668  0.2128  1.4992  1.6187
 1748TIP3   OH226734   3.532   5.343   3.396 -0.0397  0.8063 -0.0077
 1748TIP3    H126735   3.561   5.350   3.306 -0.4319 -0.7484 -0.2847
 1748TIP3    H226736   3.555   5.428   3.436  1.7400  0.8745 -1.0755
 1749TIP3   OH226737   1.562   3.641  15.292 -0.4456 -0.2015  0.7394
 1749TIP3    H126738   1.529   3.556  15.321 -1.2020  0.2931  1.3741
 1749TIP3    H226739   1.489   3.702  15.307  0.6629  0.8914  2.0038
 1750TIP3   OH226740   3.413   2.045   1.806 -0.1342  0.6595  0.9481
 1750TIP3    H126741   3.440   2.105   1.736 -3.2325  0.9810 -0.1382
 1750TIP3    H226742   3.394   1.963   1.760 -0.9925  0.4818  1.6081
 1751TIP3   OH226743   1.936   0.883   1.958 -0.3311  0.6084 -0.3183
 1751TIP3    H126744   1.918   0.830   2.036 -0.2985  2.1869  0.8056
 1751TIP3    H226745   1.859   0.869   1.901  0.2267 -1.5668 -0.6344
 1752TIP3   OH226746   4.548   6.484  11.933 -0.0135  0.3952 -0.3996
 1752TIP3    H126747   4.532   6.458  11.843 -0.2960  1.0013 -0.5301
 1752TIP3    H226748   4.518   6.574  11.938 -2.7131 -0.4755  1.0328
 1753TIP3   OH226749   4.587   4.303   4.211  0.2731 -0.2493 -0.0387
 1753TIP3    H126750   4.633   4.226   4.177 -1.2816 -1.3393  0.2155
 1753TIP3    H226751   4.655   4.355   4.254  1.4522 -1.1884 -0.7038
 1754TIP3   OH226752   2.833   0.271  12.257  0.3702  0.5700  0.5433
 1754TIP3    H126753   2.773   0.198  12.239  0.4123  0.8165 -0.7160
 1754TIP3    H226754   2.920   0.235  12.243  0.4340  0.6522  0.7230
 1755TIP3   OH226755   3.577   0.268   3.660 -0.3554 -0.5637  0.1059
 1755TIP3    H126756   3.510   0.332   3.639  1.4825  0.9266 -1.6504
 1755TIP3    H226757   3.565   0.199   3.594 -2.2309 -2.0611  1.8972
 1756TIP3   OH226758   6.787   5.830   2.941  0.3031 -0.6897  0.1107
 1756TIP3    H126759   6.790   5.911   2.992  0.3029  0.5751 -1.7957
 1756TIP3    H226760   6.853   5.842   2.873 -0.2796 -1.9649 -0.7185
 1757TIP3   OH226761   1.563   2.550  11.142 -0.6735 -0.7147  0.0497
 1757TIP3    H126762   1.479   2.526  11.183 -1.1872  0.1446 -0.4722
 1757TIP3    H226763   1.545   2.548  11.048 -0.5535  1.0036 -0.0376
 1758TIP3   OH226764   4.114   1.584  12.346  0.2754 -0.6382 -0.0159
 1758TIP3    H126765   4.203   1.613  12.368  0.2722  0.6041 -1.4594
 1758TIP3    H226766   4.057   1.633  12.405  0.4899 -0.7945  0.3270
 1759TIP3   OH226767   6.367   2.898  12.054 -1.3578 -0.0465 -0.3144
 1759TIP3    H126768   6.396   2.853  12.133 -1.3516  0.4974  0.0036
 1759TIP3    H226769   6.367   2.991  12.078 -0.7980  0.1777 -1.1284
 1760TIP3   OH226770   2.314   2.915   5.668  0.8018  0.1792 -0.0569
 1760TIP3    H126771   2.366   2.834   5.658  1.4304  0.5972 -0.2412
 1760TIP3    H226772   2.240   2.903   5.609  1.6794  0.3570 -1.2362
 1761TIP3   OH226773   3.745   3.322   0.444  0.4058  0.0921  0.4146
 1761TIP3    H126774   3.675   3.371   0.401  0.1072 -1.2340 -0.6702
 1761TIP3    H226775   3.771   3.378   0.518  0.2098  1.9377 -0.8426
 1762TIP3   OH226776   2.111   5.702   0.935  0.0255  0.2924  0.1703
 1762TIP3    H126777   2.052   5.628   0.952  0.4718 -0.0143  0.4141
 1762TIP3    H226778   2.164   5.673   0.861 -0.5624  0.8324 -0.4785
 1763TIP3   OH226779   2.128   4.301  15.332  0.1164 -0.7463  0.2312
 1763TIP3    H126780   2.166   4.280  15.247  0.8541 -0.8745  0.5759
 1763TIP3    H226781   2.043   4.339  15.312 -0.0398 -1.4656 -0.5274
 1764TIP3   OH226782   0.674   0.509   2.516  0.2379 -0.0569 -0.2541
 1764TIP3    H126783   0.579   0.508   2.508  0.1809 -3.6955 -0.6435
 1764TIP3    H226784   0.691   0.495   2.609  0.4338  0.7567 -0.1577
 1765TIP3   OH226785   6.657   0.542  11.151  0.3237  0.3461 -0.0305
 1765TIP3    H126786   6.679   0.495  11.071 -0.5158 -0.5134  0.2266
 1765TIP3    H226787   6.665   0.635  11.128  0.3430  0.1037 -1.0227
 1766TIP3   OH226788   5.805   2.742   6.067  0.1935 -0.1392 -0.0374
 1766TIP3    H126789   5.823   2.749   6.161 -1.2135  0.0907  0.2380
 1766TIP3    H226790   5.823   2.651   6.045  0.8243 -0.1191  0.3856
 1767TIP3   OH226791   3.488   3.088   2.560 -0.1452 -0.2808 -0.4241
 1767TIP3    H126792   3.512   3.124   2.645  1.1222  0.7644 -1.1846
 1767TIP3    H226793   3.509   2.994   2.567 -0.9535 -0.4067  0.6943
 1768TIP3   OH226794   0.932   1.616  17.158 -0.2208  0.9492  0.3502
 1768TIP3    H126795   1.025   1.610  17.136 -0.9893  0.6263 -3.4665
 1768TIP3    H226796   0.924   1.700  17.203  1.6712  1.7977 -0.7674
 1769TIP3   OH226797   6.826   3.854  11.628 -0.5781  0.3517 -0.2198
 1769TIP3    H126798   6.902   3.836  11.684  0.9494  0.7874 -2.0214
 1769TIP3    H226799   6.751   3.828  11.680  0.6839  1.3287  2.2432
 1770TIP3   OH226800   4.141   3.089   4.416  0.2385 -0.1584 -0.4219
 1770TIP3    H126801   4.139   2.996   4.439  0.1705 -0.3476 -1.1977
 1770TIP3    H226802   4.199   3.128   4.482  0.0624 -0.6997  0.0628
 1771TIP3   OH226803   6.016   0.818   6.728  0.2752  0.3210 -0.0300
 1771TIP3    H126804   5.981   0.794   6.642 -0.2992  1.4815 -0.1466
 1771TIP3    H226805   6.093   0.871   6.708  1.5722 -1.4060  0.2213
 1772TIP3   OH226806   3.366   2.209   4.130 -0.3357  0.1643  0.0222
 1772TIP3    H126807   3.429   2.261   4.181 -1.4657  1.7944 -0.1868
 1772TIP3    H226808   3.341   2.138   4.189 -0.9183  1.4873  1.4368
 1773TIP3   OH226809   0.657   1.295   1.154  0.1122  0.3742  0.1090
 1773TIP3    H126810   0.663   1.214   1.103  2.6535  0.5851 -0.0844
 1773TIP3    H226811   0.661   1.365   1.090 -1.7372  0.7012  0.3027
 1774TIP3   OH226812   3.134   5.507  16.833 -0.1703  0.2983  0.3286
 1774TIP3    H126813   3.167   5.574  16.773  0.4525  0.8627  1.2701
 1774TIP3    H226814   3.094   5.442  16.776 -1.4009  1.7847 -0.5801
 1775TIP3   OH226815   4.744   2.524  14.905  0.1192  0.4121  0.0365
 1775TIP3    H126816   4.764   2.437  14.941  1.9347  0.4724 -0.6840
 1775TIP3    H226817   4.710   2.506  14.817 -0.8078  0.4016  0.3863
 1776TIP3   OH226818   1.682   3.883  14.969  0.5307 -0.2986  0.1949
 1776TIP3    H126819   1.719   3.824  15.036  1.5177  0.0575 -0.0246
 1776TIP3    H226820   1.754   3.941  14.946 -0.6754  1.6499  1.0973
 1777TIP3   OH226821   4.950   6.266  13.034 -0.0783  0.0387  0.5157
 1777TIP3    H126822   5.000   6.249  12.954 -0.1624 -0.2433  0.5221
 1777TIP3    H226823   4.909   6.182  13.055 -0.0852  0.1206  0.8361
 1778TIP3   OH226824   5.359   5.566   3.796 -0.5914 -0.0928 -0.2658
 1778TIP3    H126825   5.264   5.573   3.811 -0.8434  0.7454 -2.0103
 1778TIP3    H226826   5.394   5.651   3.823 -0.4435 -0.1515 -0.2709
 1779TIP3   OH226827   1.307   3.929   0.135  0.2979  0.1417  0.2136
 1779TIP3    H126828   1.379   3.869   0.113  0.4932 -0.6844  2.7525
 1779TIP3    H226829   1.341   4.016   0.114  1.9296 -0.2674  0.9954
 1780TIP3   OH226830   6.050   1.327   2.762  0.1704  0.4943 -0.1511
 1780TIP3    H126831   6.111   1.375   2.817  0.1484 -0.2892  0.5811
 1780TIP3    H226832   6.010   1.393   2.705  0.4338  1.2628  0.5522
 1781TIP3   OH226833   1.558   5.871  13.159  0.4740  0.4001  0.5309
 1781TIP3    H126834   1.591   5.913  13.080  1.9186 -1.2794  0.1498
 1781TIP3    H226835   1.577   5.933  13.229  0.4959  1.3080 -0.2564
 1782TIP3   OH226836   5.573   1.015   4.548  0.0910 -0.1747 -0.4598
 1782TIP3    H126837   5.581   0.984   4.638  0.3417 -1.2580 -0.8324
 1782TIP3    H226838   5.556   1.109   4.556  3.0876  0.3894  0.6754
 1783TIP3   OH226839   2.789   0.194   6.545  0.1660  0.2205  0.2962
 1783TIP3    H126840   2.759   0.275   6.504  2.1023  0.7860 -0.0747
 1783TIP3    H226841   2.797   0.132   6.473  2.2118  0.8027 -0.0187
 1784TIP3   OH226842   1.184   0.764  14.253  0.0325 -0.1908 -0.1496
 1784TIP3    H126843   1.145   0.677  14.257  2.2854 -1.2175  1.4249
 1784TIP3    H226844   1.218   0.779  14.341  2.7429  0.7665 -1.2334
 1785TIP3   OH226845   3.874   6.486   1.805  0.4015  0.4174  0.3875
 1785TIP3    H126846   3.834   6.505   1.720  0.3550  0.1346  0.3450
 1785TIP3    H226847   3.967   6.479   1.787  0.5368  1.6154  0.5794
 1786TIP3   OH226848   4.345   4.291  10.946  0.2306 -0.1659 -0.4982
 1786TIP3    H126849   4.372   4.275  10.855  2.1765  1.4913 -0.3057
 1786TIP3    H226850   4.250   4.298  10.943  0.0173 -2.6734 -1.9347
 1787TIP3   OH226851   2.667   2.531   5.093 -0.1219 -0.1646  0.2658
 1787TIP3    H126852   2.733   2.467   5.068 -1.0031 -1.2852  0.7339
 1787TIP3    H226853   2.678   2.542   5.187 -2.5299 -2.7333  0.9813
 1788TIP3   OH226854   3.485   6.399  11.489 -0.0238  0.9392 -0.6258
 1788TIP3    H126855   3.521   6.310  11.488  0.2160  1.0336 -0.4707
 1788TIP3    H226856   3.417   6.398  11.422 -0.4818  0.4518 -0.1598
 1789TIP3   OH226857   1.244   3.202   0.197 -0.5829  0.2613  0.1397
 1789TIP3    H126858   1.179   3.272   0.194 -0.7463  0.1069  0.0949
 1789TIP3    H226859   1.285   3.205   0.110 -0.5906  0.3003  0.1372
 1790TIP3   OH226860   6.807   4.394  17.315  0.2368  0.1587 -0.4414
 1790TIP3    H126861   6.903   4.391  17.323  0.2600  0.5636 -0.5431
 1790TIP3    H226862   6.777   4.317  17.364  0.4956  1.3686  1.7695
 1791TIP3   OH226863   5.206   3.061  14.718 -0.5832  0.1760 -0.2930
 1791TIP3    H126864   5.210   3.141  14.771 -0.6631  0.7317 -1.0940
 1791TIP3    H226865   5.198   2.990  14.781 -1.6343  0.8866  0.4077
 1792TIP3   OH226866   5.503   4.179   2.374 -0.2459 -0.2876 -0.1323
 1792TIP3    H126867   5.445   4.235   2.323  0.6691  0.7953 -0.0287
 1792TIP3    H226868   5.488   4.206   2.465  0.1334 -0.2570 -0.0761
 1793TIP3   OH226869   5.572   5.548  14.398  0.3102 -0.1015 -0.0215
 1793TIP3    H126870   5.666   5.542  14.415 -0.0856 -1.3849  1.9307
 1793TIP3    H226871   5.557   5.642  14.384  1.6308  0.3625  1.3462
 1794TIP3   OH226872   1.861   1.720   1.726  0.7832 -0.4139  0.1130
 1794TIP3    H126873   1.931   1.701   1.664  1.1415  0.3759  0.2664
 1794TIP3    H226874   1.894   1.686   1.810  0.4932 -1.0667 -0.0316
 1795TIP3   OH226875   2.034   1.966  16.827 -0.2118  0.5616  0.4306
 1795TIP3    H126876   2.066   1.956  16.917 -0.9201 -0.7707  0.5578
 1795TIP3    H226877   1.961   2.028  16.835 -0.3223  0.3900  0.7782
 1796TIP3   OH226878   6.155   2.362   5.169  0.3383 -0.4834  0.3432
 1796TIP3    H126879   6.198   2.392   5.249 -1.9410 -1.0371  1.8596
 1796TIP3    H226880   6.139   2.442   5.119  3.8460 -0.3085 -0.7998
 1797TIP3   OH226881   6.077   4.482   0.185  0.0084 -0.4658  0.0872
 1797TIP3    H126882   6.151   4.446   0.234  0.0347 -0.4933  0.0272
 1797TIP3    H226883   6.091   4.452   0.095 -0.1445 -0.5804  0.1010
 1798TIP3   OH226884   6.747   1.565   1.991  0.2729 -0.1902 -0.2552
 1798TIP3    H126885   6.693   1.639   2.018  0.1395 -0.1654 -0.5742
 1798TIP3    H226886   6.684   1.501   1.956  0.5386  0.4928 -2.1367
 1799TIP3   OH226887   6.307   3.902  11.718 -0.7951  0.0914 -0.6988
 1799TIP3    H126888   6.333   3.826  11.769 -2.7522 -0.4285 -0.3666
 1799TIP3    H226889   6.372   3.969  11.738  1.4013 -1.6758 -1.5772
 1800TIP3   OH226890   1.654   0.309   0.826  0.0445 -0.4100  0.2311
 1800TIP3    H126891   1.560   0.330   0.824 -0.0932 -0.8998  1.0530
 1800TIP3    H226892   1.690   0.371   0.890  0.6097  0.9652 -1.3508
 1801TIP3   OH226893   2.531   5.685  17.291  0.0013  0.8360  0.1981
 1801TIP3    H126894   2.596   5.705  17.358  0.9614  2.9348 -1.2379
 1801TIP3    H226895   2.493   5.602  17.318  1.2837  0.9412  2.5898
 1802TIP3   OH226896   2.702   1.091   4.728 -0.2378  0.5265  0.0284
 1802TIP3    H126897   2.767   1.035   4.686 -1.0968 -0.7691  0.3555
 1802TIP3    H226898   2.744   1.122   4.807 -1.0400 -3.1053  2.1149
 1803TIP3   OH226899   3.120   3.771  16.979 -0.7308 -0.6125 -0.4251
 1803TIP3    H126900   3.192   3.712  16.955 -1.4050 -1.1137 -1.2489
 1803TIP3    H226901   3.047   3.713  16.999 -0.4287 -0.1968  2.2392
 1804TIP3   OH226902   3.844   5.515   5.430 -0.9234  0.5114 -0.4444
 1804TIP3    H126903   3.834   5.606   5.402  0.0140  0.3692 -1.3181
 1804TIP3    H226904   3.923   5.485   5.385 -0.5920 -0.4038  0.6924
 1805TIP3   OH226905   3.655   1.647  13.343  0.2730 -0.5334  0.3647
 1805TIP3    H126906   3.687   1.734  13.318 -0.3677 -0.1506  0.8268
 1805TIP3    H226907   3.603   1.663  13.421  0.2909 -1.3685  0.5564
 1806TIP3   OH226908   1.981   4.175   4.145 -0.2522  0.3184  1.0045
 1806TIP3    H126909   1.887   4.186   4.150 -0.3867  1.3043 -1.8497
 1806TIP3    H226910   2.018   4.257   4.178 -0.2902 -0.3243  2.7766
 1807TIP3   OH226911   4.554   1.839   2.625 -0.4089  0.6472  0.1197
 1807TIP3    H126912   4.615   1.800   2.688  1.7555  1.5138 -1.3307
 1807TIP3    H226913   4.515   1.913   2.673 -1.5424 -0.8142  1.5580
 1808TIP3   OH226914   2.913   2.155  15.494  0.4375 -0.0013  0.3676
 1808TIP3    H126915   2.979   2.187  15.433  0.0020  0.4534  0.1264
 1808TIP3    H226916   2.932   2.062  15.503  0.2125 -0.1781 -0.8402
 1809TIP3   OH226917   1.406   0.770   4.074 -0.0268  0.1332  0.0519
 1809TIP3    H126918   1.481   0.829   4.063  0.0742  0.1565  0.8132
 1809TIP3    H226919   1.383   0.777   4.167 -0.6399 -0.2787 -0.0606
 1810TIP3   OH226920   4.420   0.161   2.813 -0.6369 -0.4093  0.0965
 1810TIP3    H126921   4.333   0.137   2.844 -0.2585  0.3496  1.8662
 1810TIP3    H226922   4.408   0.246   2.771 -0.7490 -0.2978  0.3556
 1811TIP3   OH226923   0.759   5.519  11.187  0.0638 -0.4223 -0.2905
 1811TIP3    H126924   0.808   5.540  11.267 -0.3561  0.3916 -0.2353
 1811TIP3    H226925   0.805   5.443  11.150 -0.0829 -1.1664  1.0141
 1812TIP3   OH226926   4.562   3.662  13.736  0.5339  0.0942 -0.8356
 1812TIP3    H126927   4.483   3.654  13.789  0.6079 -0.3280 -0.7827
 1812TIP3    H226928   4.537   3.630  13.650  0.1087  1.7996 -1.3954
 1813TIP3   OH226929   0.291   2.607  12.515  0.2229  0.0070 -0.4236
 1813TIP3    H126930   0.244   2.567  12.442  0.2712  2.6101 -2.0113
 1813TIP3    H226931   0.222   2.641  12.572  0.1665  0.6321 -0.8569
 1814TIP3   OH226932   2.637   6.316  16.967 -0.2014  0.4139  0.0061
 1814TIP3    H126933   2.684   6.354  16.893  1.7538 -0.8408  0.5399
 1814TIP3    H226934   2.554   6.363  16.970  0.0967  1.1822 -2.3500
 1815TIP3   OH226935   4.871   5.298  12.191 -0.2981  0.2776 -0.1796
 1815TIP3    H126936   4.807   5.280  12.260 -1.7616  0.9885 -1.2786
 1815TIP3    H226937   4.903   5.212  12.165 -1.2645 -0.1548  0.0108
 1816TIP3   OH226938   5.674   3.133   2.112 -0.4757 -0.5886  0.0459
 1816TIP3    H126939   5.715   3.130   2.198  1.4069 -0.2675 -0.7974
 1816TIP3    H226940   5.681   3.225   2.085  0.7788 -1.0307 -1.2569
 1817TIP3   OH226941   6.070   4.711  14.186  0.8889 -0.3577  0.4771
 1817TIP3    H126942   6.145   4.768  14.169  0.1273  0.5604  0.0838
 1817TIP3    H226943   6.077   4.642  14.121  1.6680 -0.5612  0.7703
 1818TIP3   OH226944   2.787   6.383   4.021  0.5508  0.0810 -0.0433
 1818TIP3    H126945   2.717   6.418   3.966  0.0751  0.9134  1.0474
 1818TIP3    H226946   2.868   6.412   3.977  0.1729  1.3799  0.0553
 1819TIP3   OH226947   3.116   4.649   6.534 -0.7905 -0.3082 -0.2200
 1819TIP3    H126948   3.035   4.604   6.559 -0.2908 -2.1246 -1.6439
 1819TIP3    H226949   3.142   4.697   6.613 -2.8359 -0.2624  0.4923
 1820TIP3   OH226950   4.105   4.315   1.759  0.2055  0.1221  0.3015
 1820TIP3    H126951   4.130   4.344   1.847 -1.0364 -0.8209  0.9894
 1820TIP3    H226952   4.127   4.390   1.703 -0.5992  1.4397  1.6560
 1821TIP3   OH226953   4.061   2.527  14.843  0.4306 -0.7316 -0.5022
 1821TIP3    H126954   4.024   2.611  14.870  1.4081 -0.5576  0.3399
 1821TIP3    H226955   3.995   2.490  14.784 -0.9167 -0.2790  0.6716
 1822TIP3   OH226956   2.924   6.572  17.161  0.2400  0.6621 -0.3089
 1822TIP3    H126957   2.876   6.604  17.084 -0.5658 -0.7816 -0.4547
 1822TIP3    H226958   2.895   6.481  17.171  4.3325 -1.0062 -1.5249
 1823TIP3   OH226959   5.709   2.514   2.637  0.4370 -0.2456  0.7649
 1823TIP3    H126960   5.666   2.457   2.573 -1.4286  0.1202  1.6475
 1823TIP3    H226961   5.759   2.576   2.584 -1.6722  0.5379 -0.4275
 1824TIP3   OH226962   2.045   2.523  16.979  0.1497 -0.4033 -0.1024
 1824TIP3    H126963   1.953   2.528  16.951  0.0222  1.4677  0.5053
 1824TIP3    H226964   2.077   2.613  16.972  0.9923 -0.3845  2.7858
 1825TIP3   OH226965   3.368   2.467  10.292  0.2711  0.7972 -0.5421
 1825TIP3    H126966   3.328   2.396  10.243 -0.0097  1.1347 -0.7984
 1825TIP3    H226967   3.461   2.442  10.299 -0.0855 -0.3402  0.6710
 1826TIP3   OH226968   3.390   4.079   2.754 -0.1925  0.3111  0.1912
 1826TIP3    H126969   3.433   4.094   2.670 -0.2947  0.0764  0.0955
 1826TIP3    H226970   3.318   4.019   2.733 -0.3203  0.3867  0.4174
 1827TIP3   OH226971   0.141   5.986   2.130  0.4026  0.8055  0.1343
 1827TIP3    H126972   0.179   5.904   2.160 -0.1809  0.1836 -0.7758
 1827TIP3    H226973   0.191   6.054   2.175  1.6628 -0.0194  0.0237
 1828TIP3   OH226974   1.827   6.627  11.361  0.4007  0.7360  1.0446
 1828TIP3    H126975   1.908   6.642  11.313 -0.2879  0.0957 -0.3855
 1828TIP3    H226976   1.800   6.539  11.336 -0.4857  0.7484  1.8824
 1829TIP3   OH226977   5.005   4.340   4.949  0.5440 -0.0807  0.1631
 1829TIP3    H126978   5.004   4.423   4.901  0.1514  0.2808  0.7872
 1829TIP3    H226979   5.044   4.278   4.888  0.6040  0.5061 -0.4068
 1830TIP3   OH226980   2.044   1.061  13.523  0.0747  0.1862  0.5634
 1830TIP3    H126981   1.994   0.999  13.470  0.8877 -0.9662  1.1096
 1830TIP3    H226982   2.129   1.067  13.479 -0.3393  1.7762 -0.0971
 1831TIP3   OH226983   0.542   2.895  10.693 -0.2031  0.1154 -0.0337
 1831TIP3    H126984   0.604   2.831  10.659 -0.3357 -0.3629  0.6251
 1831TIP3    H226985   0.457   2.863  10.664 -0.3953 -0.7201  1.3797
 1832TIP3   OH226986   6.165   0.338  11.379  0.2794 -0.1433 -0.0065
 1832TIP3    H126987   6.228   0.405  11.351  0.2337 -0.2680 -0.4089
 1832TIP3    H226988   6.133   0.299  11.298 -2.9822  2.2920 -0.1017
 1833TIP3   OH226989   3.178   0.799   1.083  0.2227  0.3754  0.0338
 1833TIP3    H126990   3.184   0.705   1.065 -3.3628 -0.6221  2.8382
 1833TIP3    H226991   3.227   0.810   1.165  0.8812  1.0428 -0.4441
 1834TIP3   OH226992   4.193   2.970  14.435 -0.4137  0.1657 -0.0771
 1834TIP3    H126993   4.229   2.974  14.524  0.6419  0.5930 -0.5038
 1834TIP3    H226994   4.131   3.043  14.432 -0.3041  0.2769  0.2480
 1835TIP3   OH226995   0.148   2.245   1.844 -0.8141 -0.4101 -0.4420
 1835TIP3    H126996   0.180   2.199   1.921 -0.0128  1.6799  0.5708
 1835TIP3    H226997   0.226   2.287   1.807 -1.7142  1.5942 -0.2176
 1836TIP3   OH226998   0.132   2.152   3.601  0.1777 -0.1004  0.3945
 1836TIP3    H126999   0.084   2.099   3.538  1.5306 -0.9732  0.0673
 1836TIP3    H227000   0.217   2.168   3.560  1.5969 -1.7808  2.4420
 1837TIP3   OH227001   1.996   1.176  12.603 -0.2121 -0.2196 -0.2761
 1837TIP3    H127002   1.943   1.216  12.534  0.8444 -0.0392 -1.0057
 1837TIP3    H227003   2.007   1.085  12.575  0.8646  0.0488 -0.7512
 1838TIP3   OH227004   0.842   3.818  15.215  0.2120 -0.6925  0.2516
 1838TIP3    H127005   0.763   3.851  15.258 -1.6782 -2.8440 -1.2703
 1838TIP3    H227006   0.872   3.891  15.161 -2.1259 -0.4541 -0.8560
 1839TIP3   OH227007   3.987   1.562  15.963  0.0918  0.4970  0.3653
 1839TIP3    H127008   4.066   1.546  15.911 -0.1208 -0.6774  0.3917
 1839TIP3    H227009   3.917   1.517  15.916 -0.2753  0.2012  1.1737
 1840TIP3   OH227010   5.968   0.041  12.714  0.0750  0.8481 -0.4384
 1840TIP3    H127011   6.030   0.114  12.721  2.5535 -1.2064  0.5131
 1840TIP3    H227012   5.932   0.031  12.802 -0.6132  1.1712 -0.6743
 1841TIP3   OH227013   5.912   0.115  17.163  0.7410 -0.3170 -0.2605
 1841TIP3    H127014   5.939   0.039  17.214 -1.8319 -1.0993  0.1074
 1841TIP3    H227015   5.945   0.099  17.075  0.3267 -1.8258 -0.1636
 1842TIP3   OH227016   1.193   3.233   5.926  0.0816  0.8432 -0.1470
 1842TIP3    H127017   1.272   3.279   5.954 -0.5029  0.6382  2.0354
 1842TIP3    H227018   1.219   3.141   5.924 -0.2194  0.7266  1.0591
 1843TIP3   OH227019   2.576   6.377  11.912 -0.3236 -0.2392  0.6842
 1843TIP3    H127020   2.638   6.447  11.933  0.5433 -1.1180  1.1284
 1843TIP3    H227021   2.631   6.300  11.897 -1.0041 -0.1936 -2.8422
 1844TIP3   OH227022   1.939   2.465   5.669  0.0839 -0.4442 -0.6157
 1844TIP3    H127023   1.866   2.408   5.645 -1.0133  0.7177 -0.1317
 1844TIP3    H227024   1.973   2.428   5.750 -1.0935 -0.0319  0.0937
 1845TIP3   OH227025   2.222   5.007  10.493  0.6142  0.0966  0.2636
 1845TIP3    H127026   2.159   5.074  10.466  0.9413  0.1821 -0.2986
 1845TIP3    H227027   2.291   5.056  10.538  0.7865  0.1277 -0.0289
 1846TIP3   OH227028   3.837   1.006  12.627  0.4495 -0.6212 -0.2567
 1846TIP3    H127029   3.827   1.101  12.619  1.1494 -0.4688  0.4623
 1846TIP3    H227030   3.749   0.971  12.615  0.5115 -0.0861 -2.9438
 1847TIP3   OH227031   1.883   0.902  16.172 -0.0658  0.4129  0.3990
 1847TIP3    H127032   1.904   0.827  16.227  2.2065  0.1043 -0.7851
 1847TIP3    H227033   1.828   0.867  16.102  1.8991 -0.4709 -0.7855
 1848TIP3   OH227034   3.329   2.617   1.012 -0.1409  0.1736  0.5277
 1848TIP3    H127035   3.295   2.527   1.014 -0.4383  0.2933  1.5559
 1848TIP3    H227036   3.268   2.667   1.067 -0.1892  1.0914 -0.3187
 1849TIP3   OH227037   5.972   6.511  16.911 -0.5791 -0.0045  0.4391
 1849TIP3    H127038   5.925   6.586  16.946 -1.0110  0.0776 -0.3100
 1849TIP3    H227039   6.052   6.506  16.964  1.8606  3.8510 -2.4067
 1850TIP3   OH227040   1.350   0.557  12.465  0.1958  0.0295 -0.7688
 1850TIP3    H127041   1.287   0.505  12.414 -2.5914  1.8738  0.5195
 1850TIP3    H227042   1.390   0.616  12.400  1.1673 -1.6198 -1.7249
 1851TIP3   OH227043   3.019   4.771   2.606 -0.1621  0.6569  0.4856
 1851TIP3    H127044   3.107   4.770   2.569  0.1238 -0.7985  1.1142
 1851TIP3    H227045   2.969   4.831   2.550  0.8630  0.4157 -0.7239
 1852TIP3   OH227046   5.252   5.386   1.570 -0.0479 -0.4676  0.5360
 1852TIP3    H127047   5.292   5.330   1.637 -0.7976 -2.2828 -0.4540
 1852TIP3    H227048   5.304   5.370   1.491  0.9479  1.7943  0.6463
 1853TIP3   OH227049   1.892   1.367  16.854  0.4263 -0.3194  0.1551
 1853TIP3    H127050   1.986   1.349  16.858  0.3351 -0.5731  2.0400
 1853TIP3    H227051   1.867   1.384  16.945 -1.5229 -1.2211 -0.1555
 1854TIP3   OH227052   0.070   0.311  17.194 -0.4023 -0.0497 -0.7061
 1854TIP3    H127053   0.082   0.309  17.288  1.0196  0.0300 -0.8638
 1854TIP3    H227054  -0.024   0.298  17.181 -0.6893  0.4538  0.7282
 1855TIP3   OH227055   1.011   5.153   4.376  0.2441 -0.3144  0.6650
 1855TIP3    H127056   0.969   5.165   4.292 -0.9955  2.5476  1.5971
 1855TIP3    H227057   0.998   5.060   4.396 -3.0608 -0.2240 -0.4697
 1856TIP3   OH227058   4.827   0.262   4.563 -0.3138 -0.2623  0.3650
 1856TIP3    H127059   4.799   0.244   4.473  0.5929  0.9919 -0.1974
 1856TIP3    H227060   4.792   0.349   4.582  0.4140 -0.0653  0.8209
 1857TIP3   OH227061   1.316   4.221   4.645  0.1171 -0.2163  0.3876
 1857TIP3    H127062   1.373   4.240   4.720 -1.7398  1.3091  1.4999
 1857TIP3    H227063   1.304   4.126   4.648  1.4885 -0.4015  0.9255
 1858TIP3   OH227064   3.843   3.997  11.814 -0.5409  0.5082  0.1580
 1858TIP3    H127065   3.916   3.985  11.875 -0.0487 -0.3316 -0.5808
 1858TIP3    H227066   3.882   4.041  11.738  0.0645 -3.0125 -1.7747
 1859TIP3   OH227067   5.396   4.616   5.182 -0.4587 -0.1632 -0.1428
 1859TIP3    H127068   5.325   4.678   5.165  0.6679  1.5119  0.9407
 1859TIP3    H227069   5.374   4.577   5.266 -0.0271  0.5069  0.2921
 1860TIP3   OH227070   5.745   4.802  17.197 -0.9092  0.4551  0.2755
 1860TIP3    H127071   5.728   4.861  17.123 -0.8198 -0.7884 -0.7834
 1860TIP3    H227072   5.659   4.786  17.235 -0.9630  1.0723  0.4180
 1861TIP3   OH227073   6.731   0.372  10.941  0.2447 -0.1323 -0.0940
 1861TIP3    H127074   6.663   0.316  10.902 -0.9091  0.0839  1.5058
 1861TIP3    H227075   6.812   0.345  10.897 -0.6501 -1.3570 -1.0854
 1862TIP3   OH227076   5.606   3.796  10.528 -0.2542  0.6051  0.4678
 1862TIP3    H127077   5.629   3.714  10.485  0.1254  0.5931  0.6857
 1862TIP3    H227078   5.690   3.833  10.556 -0.4554  0.8571  0.7485
 1863TIP3   OH227079   6.479   5.434   3.950  0.2506  0.4888 -0.5285
 1863TIP3    H127080   6.448   5.485   4.025 -0.5847  0.3850 -0.8027
 1863TIP3    H227081   6.569   5.465   3.937  0.4808  0.3580  0.6387
 1864TIP3   OH227082   6.735   3.492  13.545  0.0879  0.0377 -0.8318
 1864TIP3    H127083   6.667   3.489  13.612  2.1970 -0.6561  1.3903
 1864TIP3    H227084   6.751   3.585  13.531 -0.2324  0.1929 -0.1982
 1865TIP3   OH227085   2.799   0.253  14.926 -0.0058  0.2180 -0.1353
 1865TIP3    H127086   2.721   0.242  14.980  0.4474 -0.5456  0.3929
 1865TIP3    H227087   2.799   0.177  14.868  0.6318 -0.0947  0.2545
 1866TIP3   OH227088   2.449   1.849  13.359 -0.1500  0.3476 -0.1815
 1866TIP3    H127089   2.393   1.924  13.340 -0.1083  0.4149 -0.0389
 1866TIP3    H227090   2.388   1.778  13.379 -0.1798  0.4756  0.1789
 1867TIP3   OH227091   3.665   4.110   4.633  0.0890  0.5976  0.3213
 1867TIP3    H127092   3.733   4.171   4.602  1.4706 -0.9227  0.2409
 1867TIP3    H227093   3.652   4.050   4.561  0.7125 -0.8066  1.3400
 1868TIP3   OH227094   5.185   0.827   6.015  0.2130  0.2799 -0.0825
 1868TIP3    H127095   5.280   0.815   6.022  0.0923  0.1449  1.6457
 1868TIP3    H227096   5.147   0.750   6.058 -0.7000  0.2254 -0.9359
 1869TIP3   OH227097   0.813   3.466   2.892 -0.0863 -0.2008 -0.2915
 1869TIP3    H127098   0.903   3.491   2.913 -0.3800  0.4280  0.2539
 1869TIP3    H227099   0.789   3.403   2.960 -0.4207  0.4542  0.2027
 1870TIP3   OH227100   1.273   2.160  10.729 -0.4263  0.0431 -0.6072
 1870TIP3    H127101   1.355   2.179  10.683  0.1718  2.1724  1.1555
 1870TIP3    H227102   1.205   2.194  10.671  0.2010  1.2431 -0.6812
 1871TIP3   OH227103   0.671   2.412   4.235 -0.2941 -0.2725  0.2751
 1871TIP3    H127104   0.605   2.351   4.203 -3.2227  2.3226  0.9470
 1871TIP3    H227105   0.647   2.428   4.327  1.2212  0.8398  0.5216
 1872TIP3   OH227106   4.375   6.435  13.782  0.1375 -0.0551  0.3512
 1872TIP3    H127107   4.355   6.460  13.872 -0.1310  0.2056  0.2165
 1872TIP3    H227108   4.392   6.340  13.787  0.4643  0.0197  0.7313
 1873TIP3   OH227109   4.703   4.717   0.764 -0.3498  0.0889 -0.1660
 1873TIP3    H127110   4.615   4.679   0.758 -0.3137 -0.0127 -0.0559
 1873TIP3    H227111   4.749   4.660   0.826 -0.2690  0.2603 -0.0687
 1874TIP3   OH227112   6.161   2.811   4.272  0.6699 -0.0865  0.4697
 1874TIP3    H127113   6.081   2.858   4.250 -0.3687 -1.4655  1.1513
 1874TIP3    H227114   6.207   2.868   4.334 -0.3574  0.2061  0.9703
 1875TIP3   OH227115   1.193   1.387  16.522 -0.7052  0.0965 -0.1700
 1875TIP3    H127116   1.245   1.455  16.479  1.8181  0.0018  2.4600
 1875TIP3    H227117   1.249   1.309  16.517 -0.7323 -0.1534  2.2685
 1876TIP3   OH227118   6.210   5.691  15.007  0.3585 -0.0272  0.1998
 1876TIP3    H127119   6.221   5.785  14.995 -0.3601 -0.0249 -0.4901
 1876TIP3    H227120   6.299   5.658  15.024  0.6378  0.7435  0.2630
 1877TIP3   OH227121   0.555   5.680  12.017 -0.5863 -0.0429 -0.5230
 1877TIP3    H127122   0.473   5.724  12.038 -0.9640 -0.0174 -1.9638
 1877TIP3    H227123   0.598   5.667  12.102 -0.3389  3.2634 -0.0315
 1878TIP3   OH227124   0.136   0.991   3.965  0.0821  0.4027 -0.1098
 1878TIP3    H127125   0.124   0.953   4.052 -0.0588  2.4864  0.8458
 1878TIP3    H227126   0.227   0.971   3.943 -0.0039 -0.5114  0.3165
 1879TIP3   OH227127   5.092   4.624  14.174 -0.1841  0.0027  0.1136
 1879TIP3    H127128   5.043   4.597  14.252 -1.8489  0.3977 -0.7477
 1879TIP3    H227129   5.164   4.677  14.208  0.5688 -1.7827  1.5308
 1880TIP3   OH227130   1.550   1.469  10.559  0.5631 -0.3426 -0.4983
 1880TIP3    H127131   1.521   1.377  10.562  1.0096 -0.5411 -1.6089
 1880TIP3    H227132   1.475   1.516  10.523 -0.2511  0.0199  1.5258
 1881TIP3   OH227133   3.266   0.414  16.641  0.1082  0.1180  0.2361
 1881TIP3    H127134   3.255   0.329  16.598  0.0585  0.4994 -0.5237
 1881TIP3    H227135   3.309   0.469  16.575 -0.3114  0.8284  0.5421
 1882TIP3   OH227136   5.503   4.973   5.076  0.4344  0.0587 -0.1792
 1882TIP3    H127137   5.564   4.982   5.150  0.7142  1.4367 -0.5365
 1882TIP3    H227138   5.462   5.060   5.070 -1.1736 -0.6773 -0.2959
 1883TIP3   OH227139   0.863   0.243  13.867  0.3161  0.2432 -0.5204
 1883TIP3    H127140   0.859   0.328  13.911 -0.5961 -0.2550  0.4231
 1883TIP3    H227141   0.909   0.260  13.785 -1.5243  2.0627 -1.2784
 1884TIP3   OH227142   5.694   5.077   2.360  0.0203  0.2817 -0.1308
 1884TIP3    H127143   5.665   5.008   2.420 -0.1536  0.4420 -0.0279
 1884TIP3    H227144   5.772   5.114   2.402 -1.4992  2.0809  1.2970
 1885TIP3   OH227145   0.402   2.562   4.900  0.8919  0.2389  0.0546
 1885TIP3    H127146   0.322   2.544   4.849  0.3612  5.2176 -1.3297
 1885TIP3    H227147   0.370   2.570   4.990 -0.7981  4.0788 -0.7059
 1886TIP3   OH227148   4.278   2.867   2.970 -0.1459  0.1633 -0.3205
 1886TIP3    H127149   4.339   2.873   2.896 -0.0950  1.2358 -0.2067
 1886TIP3    H227150   4.220   2.942   2.960 -0.7998 -0.2633  0.1624
 1887TIP3   OH227151   4.848   1.898  11.089  0.5734 -0.2489 -0.0872
 1887TIP3    H127152   4.804   1.815  11.109 -0.0360  0.1869  0.4172
 1887TIP3    H227153   4.894   1.921  11.170 -1.3187  1.1637  0.6441
 1888TIP3   OH227154   1.085   2.183  16.015 -0.5419 -0.4649  0.1112
 1888TIP3    H127155   1.139   2.259  15.994 -0.5672 -0.4860 -0.0299
 1888TIP3    H227156   1.062   2.145  15.930  1.7855 -2.3017  0.2120
 1889TIP3   OH227157   3.650   1.961  16.994  0.1221 -0.3014 -0.1599
 1889TIP3    H127158   3.581   1.936  16.932  0.2014 -1.3515  0.1458
 1889TIP3    H227159   3.731   1.951  16.945  0.0874  0.6502 -0.4295
 1890TIP3   OH227160   2.885   1.116  12.265  0.0237 -0.2551  0.4986
 1890TIP3    H127161   2.887   1.147  12.174  1.4786 -0.4915  0.4344
 1890TIP3    H227162   2.877   1.196  12.317 -1.4764 -0.1548  0.1695
 1891TIP3   OH227163   1.918   0.680   1.319  0.2112 -0.2529  0.4737
 1891TIP3    H127164   1.983   0.699   1.252 -1.3463 -1.4906 -1.4948
 1891TIP3    H227165   1.927   0.586   1.335 -0.6977 -0.3293  0.5983
 1892TIP3   OH227166   4.057   0.748   4.488 -0.0242  0.0626 -0.2634
 1892TIP3    H127167   4.008   0.800   4.424 -3.0845 -1.0474  1.0229
 1892TIP3    H227168   4.081   0.668   4.441 -3.4930 -1.3971  0.1233
 1893TIP3   OH227169   4.426   0.387  11.468 -0.8959 -0.0298  0.0279
 1893TIP3    H127170   4.359   0.403  11.534 -0.0354 -2.2264  1.5781
 1893TIP3    H227171   4.496   0.450  11.488 -0.5720 -0.7808  1.3976
 1894TIP3   OH227172   5.244   1.844   2.522 -0.2614 -0.3254 -0.0365
 1894TIP3    H127173   5.187   1.869   2.595  1.1832 -2.9175  2.2127
 1894TIP3    H227174   5.328   1.884   2.544 -0.8618  2.9884 -3.0114
 1895TIP3   OH227175   0.244   1.872   0.132  0.5827  0.3312  0.0216
 1895TIP3    H127176   0.163   1.924   0.127  0.4512  0.3526  1.6200
 1895TIP3    H227177   0.214   1.783   0.149  0.8558  0.5846  2.2077
 1896TIP3   OH227178   5.387   4.837  15.893  0.4667 -0.0279  0.4715
 1896TIP3    H127179   5.309   4.810  15.844  0.4594 -0.4643  0.7254
 1896TIP3    H227180   5.427   4.756  15.923  0.7143  0.2167  0.8176
 1897TIP3   OH227181   4.922   0.913  10.541  0.6757  0.4588  0.5225
 1897TIP3    H127182   4.847   0.928  10.483 -0.2056 -3.3703  0.4382
 1897TIP3    H227183   4.977   0.991  10.529 -2.2704  2.5085 -0.9139
 1898TIP3   OH227184   0.037   0.912   1.326  0.3161  0.0707  0.0735
 1898TIP3    H127185   0.088   0.968   1.268  0.9167 -1.1060 -0.5709
 1898TIP3    H227186  -0.044   0.961   1.341  0.0378  0.3272 -1.9672
 1899TIP3   OH227187   5.684   4.143   3.696  0.0994  0.1024 -0.6441
 1899TIP3    H127188   5.654   4.127   3.785 -0.5243  1.5330 -0.5720
 1899TIP3    H227189   5.770   4.185   3.706  0.1200  0.0821 -0.7272
 1900TIP3   OH227190   1.838   5.585  16.232  0.2467  0.1021 -0.3049
 1900TIP3    H127191   1.864   5.659  16.178 -0.6987  0.7630  0.1170
 1900TIP3    H227192   1.815   5.623  16.317  1.0293 -0.8328  0.3550
 1901TIP3   OH227193   1.312   5.746   3.169  0.7468 -0.2312  0.8300
 1901TIP3    H127194   1.267   5.775   3.090  0.3966  0.2132  1.1966
 1901TIP3    H227195   1.275   5.798   3.240  1.4329 -0.2579  1.2171
 1902TIP3   OH227196   2.749   4.052  14.639  0.0271  0.7515  0.0066
 1902TIP3    H127197   2.679   4.081  14.580 -2.5127 -1.8937  1.4781
 1902TIP3    H227198   2.762   3.960  14.617 -1.7562 -0.6937  3.9327
 1903TIP3   OH227199   1.017   3.683  12.759 -0.7973 -0.4904 -0.2603
 1903TIP3    H127200   1.051   3.715  12.842 -0.9362  0.2662 -0.4914
 1903TIP3    H227201   1.081   3.712  12.694 -1.1582 -0.2913 -0.5282
 1904TIP3   OH227202   6.130   2.365   6.502  0.2540 -0.3620 -0.0427
 1904TIP3    H127203   6.219   2.382   6.532 -0.3253  1.4620  0.7828
 1904TIP3    H227204   6.141   2.333   6.412  1.7404 -0.5395  0.1700
 1905TIP3   OH227205   0.043   1.849  17.154  0.1134  0.0791  0.0403
 1905TIP3    H127206   0.098   1.887  17.084  1.2789  0.4325  1.1134
 1905TIP3    H227207   0.032   1.920  17.216 -3.7777  0.8711 -1.2869
 1906TIP3   OH227208   5.570   4.599  16.402  0.1767 -0.3796  0.3125
 1906TIP3    H127209   5.588   4.690  16.382  2.5239 -0.9836 -0.7512
 1906TIP3    H227210   5.475   4.593  16.408 -0.0246  2.1885  0.8784
 1907TIP3   OH227211   2.207   3.052  15.320  0.1281 -0.3100 -0.5693
 1907TIP3    H127212   2.141   3.086  15.381  0.1194  0.9616 -1.2444
 1907TIP3    H227213   2.238   2.971  15.361 -1.1634 -0.4331  0.2278
 1908TIP3   OH227214   4.073   5.497   1.760 -0.0422  0.0782 -0.0391
 1908TIP3    H127215   4.065   5.539   1.674 -0.3581  1.9095  0.8406
 1908TIP3    H227216   4.036   5.410   1.748 -0.8472  0.6069 -1.5531
 1909TIP3   OH227217   6.406   1.549   3.204 -0.1534 -0.1008 -0.3365
 1909TIP3    H127218   6.379   1.458   3.190  1.5807 -0.7205  0.0781
 1909TIP3    H227219   6.432   1.580   3.117  0.6208 -0.4888 -0.2500
 1910TIP3   OH227220   3.488   0.895   3.861  0.1093  0.3043  0.1028
 1910TIP3    H127221   3.403   0.922   3.895  0.3137  0.0748  0.8091
 1910TIP3    H227222   3.551   0.953   3.904  0.3974 -0.1676  0.3242
 1911TIP3   OH227223   5.866   1.757  10.892  0.0418 -0.1230  0.2882
 1911TIP3    H127224   5.959   1.767  10.910  0.6709 -0.8710 -2.1639
 1911TIP3    H227225   5.860   1.679  10.836 -2.1957 -0.7457  1.2531
 1912TIP3   OH227226   3.428   0.425   2.297 -0.3079  0.2892 -0.5256
 1912TIP3    H127227   3.513   0.449   2.333  0.6772 -0.8636 -1.9417
 1912TIP3    H227228   3.407   0.496   2.237 -0.1170  0.3594 -0.5115
 1913TIP3   OH227229   0.048   5.890  11.329  0.1674 -0.3120 -0.1067
 1913TIP3    H127230   0.009   5.830  11.392  0.2239 -1.8856 -1.4795
 1913TIP3    H227231   0.142   5.887  11.346  0.2132 -0.9822 -0.4401
 1914TIP3   OH227232   5.209   1.408  12.272 -0.2340 -0.0911  0.1159
 1914TIP3    H127233   5.126   1.424  12.228 -0.3552  2.9671  1.2517
 1914TIP3    H227234   5.250   1.338  12.221 -2.4190 -0.0267 -1.8907
 1915TIP3   OH227235   2.133   0.292  17.016 -0.2509  0.6099 -0.2145
 1915TIP3    H127236   2.156   0.322  17.104 -1.2874  0.5079  0.1084
 1915TIP3    H227237   2.213   0.251  16.983 -0.5131 -1.6383  1.6553
 1916TIP3   OH227238   2.552   6.048   3.772 -0.2496 -0.7987 -0.0765
 1916TIP3    H127239   2.617   6.064   3.841 -1.6395 -2.6305  1.7828
 1916TIP3    H227240   2.543   6.133   3.728  2.6391 -0.2487  0.2053
 1917TIP3   OH227241   0.140   3.909  17.060  0.3131  0.5415 -0.6916
 1917TIP3    H127242   0.197   3.889  17.134 -0.8273  1.9873  0.6583
 1917TIP3    H227243   0.073   3.841  17.062  0.2585  0.6050 -0.3448
 1918TIP3   OH227244   2.998   4.726  16.872  0.3209 -0.2816  0.0777
 1918TIP3    H127245   3.018   4.643  16.829 -1.3472  0.0295 -1.3704
 1918TIP3    H227246   2.963   4.782  16.803  0.6904  1.3882  1.1797
 1919TIP3   OH227247   2.166   1.577  11.880  0.2703 -0.0519  0.1266
 1919TIP3    H127248   2.178   1.593  11.786 -1.5945  0.0287 -0.1389
 1919TIP3    H227249   2.075   1.549  11.888  0.1546  0.7065  2.0201
 1920TIP3   OH227250   2.080   0.182  14.638 -0.0822 -0.8852  0.5150
 1920TIP3    H127251   2.164   0.227  14.631 -0.8684  0.9537  1.9481
 1920TIP3    H227252   2.071   0.135  14.556  0.7623  1.7408 -1.2268
 1921TIP3   OH227253   1.066   4.479   2.605 -0.6162 -0.2423  0.1959
 1921TIP3    H127254   1.009   4.403   2.592  1.6484 -1.6512 -2.2990
 1921TIP3    H227255   1.127   4.451   2.673 -0.2647 -0.3603 -0.1678
 1922TIP3   OH227256   5.454   6.220  17.053  0.0337 -0.1290 -0.2878
 1922TIP3    H127257   5.445   6.126  17.070  0.5744  0.1984  2.1558
 1922TIP3    H227258   5.374   6.258  17.088 -2.0895  0.1156 -4.6927
 1923TIP3   OH227259   0.330   6.001  13.374  0.2393  0.1204  0.4792
 1923TIP3    H127260   0.344   6.094  13.357 -0.1853 -0.0794 -1.2007
 1923TIP3    H227261   0.415   5.969  13.404  0.6856  0.8325 -0.0005
 1924TIP3   OH227262   2.222   1.325   1.614 -0.0449  0.1631 -0.5072
 1924TIP3    H127263   2.192   1.235   1.630 -0.5786  0.3299 -0.5402
 1924TIP3    H227264   2.212   1.337   1.520  0.6037  0.0548 -0.5879
 1925TIP3   OH227265   2.518   3.378  15.070  0.2522  0.2034 -0.1084
 1925TIP3    H127266   2.514   3.453  15.128 -2.6385 -1.1236  1.5693
 1925TIP3    H227267   2.453   3.396  15.002  0.2673 -0.3573 -0.2778
 1926TIP3   OH227268   4.424   1.077   5.171 -0.1102  0.1196  0.6468
 1926TIP3    H127269   4.428   0.981   5.172  0.8877  0.1481  0.8316
 1926TIP3    H227270   4.504   1.103   5.126 -1.4366  0.8430 -1.3690
 1927TIP3   OH227271   3.177   4.452   3.144 -0.2843 -0.5453 -0.2410
 1927TIP3    H127272   3.184   4.533   3.092  0.0260  0.4266  1.2634
 1927TIP3    H227273   3.204   4.383   3.084 -1.1083  0.3749 -1.7480
 1928TIP3   OH227274   0.288   0.876   5.648  0.4212  0.2885  0.3931
 1928TIP3    H127275   0.227   0.846   5.580 -0.1209 -1.5659  1.6060
 1928TIP3    H227276   0.231   0.896   5.723  1.0216  2.1734  0.3996
 1929TIP3   OH227277   4.231   4.336   4.944 -0.3369  0.5652  0.2249
 1929TIP3    H127278   4.171   4.360   5.015  0.5857  0.4190  1.0885
 1929TIP3    H227279   4.308   4.390   4.959  0.2090 -0.0921 -0.1523
 1930TIP3   OH227280   0.223   6.351  13.152  0.3101  0.4519  0.0124
 1930TIP3    H127281   0.132   6.368  13.129  0.2825  0.6257  0.2420
 1930TIP3    H227282   0.267   6.337  13.068  0.3756  1.9044 -0.2331
 1931TIP3   OH227283   3.032   6.184   4.952 -0.2993 -0.2858 -0.1105
 1931TIP3    H127284   2.990   6.257   4.998 -2.1431 -0.8403 -0.8261
 1931TIP3    H227285   3.123   6.210   4.943 -0.2102  0.5345  2.4361
 1932TIP3   OH227286   3.098   1.502   1.562  0.5276 -0.0468 -0.2523
 1932TIP3    H127287   3.097   1.558   1.485  1.0793 -1.0732 -1.0259
 1932TIP3    H227288   3.043   1.427   1.539  2.8141 -1.6971 -0.7293
 1933TIP3   OH227289   2.783   1.292   4.427 -0.2622 -0.6745  0.1539
 1933TIP3    H127290   2.829   1.297   4.343 -0.9195 -1.3857 -0.2506
 1933TIP3    H227291   2.796   1.202   4.456 -0.0847 -0.4445  0.7934
 1934TIP3   OH227292   2.594   4.420   4.472 -0.3614  0.0043 -0.3902
 1934TIP3    H127293   2.686   4.445   4.476 -0.1659 -0.6731 -0.5120
 1934TIP3    H227294   2.577   4.406   4.379 -0.4867 -0.2350 -0.3322
 1935TIP3   OH227295   5.488   2.604  17.181 -0.3969 -1.1147  0.2948
 1935TIP3    H127296   5.529   2.594  17.095 -0.3642  0.2242  0.1381
 1935TIP3    H227297   5.415   2.542  17.180  1.0345 -2.8920  0.2470
 1936TIP3   OH227298   3.919   1.699   1.630  0.0530 -0.6979  0.0145
 1936TIP3    H127299   3.864   1.776   1.637  0.7049 -0.2147 -0.0672
 1936TIP3    H227300   3.967   1.712   1.548 -0.0636 -1.3447 -0.1633
 1937TIP3   OH227301   6.049   6.067  12.703  0.0752 -0.1976 -0.6360
 1937TIP3    H127302   5.982   6.119  12.749  1.3632  2.0561 -1.1394
 1937TIP3    H227303   6.070   6.118  12.625  1.5019 -1.4661 -1.1361
 1938TIP3   OH227304   6.211   2.155  10.980 -0.2273 -0.0390  0.2813
 1938TIP3    H127305   6.221   2.245  10.951  0.0176 -0.4487 -0.9547
 1938TIP3    H227306   6.172   2.109  10.905 -0.5224 -0.9184  0.9527
 1939TIP3   OH227307   6.069   0.407   4.373  0.1984  0.0855  0.2391
 1939TIP3    H127308   6.098   0.481   4.426 -0.4664 -1.1082  2.3732
 1939TIP3    H227309   6.146   0.351   4.365  0.4106  0.4659 -0.4435
 1940TIP3   OH227310   1.733   3.114  12.795  0.4908  1.0124 -0.4955
 1940TIP3    H127311   1.669   3.151  12.734  0.8070  0.1496 -1.3729
 1940TIP3    H227312   1.757   3.030  12.757  3.3463  1.9646 -1.0464
 1941TIP3   OH227313   5.010   5.079   4.668 -0.1038  0.1251 -0.0165
 1941TIP3    H127314   5.017   5.073   4.764  0.1020 -0.9198 -0.0831
 1941TIP3    H227315   5.083   5.136   4.642  0.7677 -0.8020  0.3321
 1942TIP3   OH227316   4.996   3.581  13.238  0.0346  0.0589  0.1993
 1942TIP3    H127317   5.014   3.594  13.145  0.6865 -0.5291  0.2352
 1942TIP3    H227318   5.082   3.585  13.280 -0.1224 -0.8474  0.6323
 1943TIP3   OH227319   4.594   5.096   6.257  0.2531  0.1268  0.2339
 1943TIP3    H127320   4.544   5.016   6.239 -0.4962  0.1123  2.1049
 1943TIP3    H227321   4.529   5.156   6.294  0.3046  2.4660 -3.0571
 1944TIP3   OH227322   1.132   1.113   3.488  0.1506 -0.2723 -0.4672
 1944TIP3    H127323   1.140   1.070   3.573 -1.3590 -1.1474 -0.7096
 1944TIP3    H227324   1.076   1.053   3.437 -1.0244  1.4080 -1.2322
 1945TIP3   OH227325   6.640   2.479   2.919 -0.0150  0.3057 -0.3786
 1945TIP3    H127326   6.570   2.508   2.861  0.6191  0.1960 -1.2252
 1945TIP3    H227327   6.622   2.521   3.003 -2.5374 -1.7241  0.2085
 1946TIP3   OH227328   0.594   2.982  13.923  0.3100 -0.5327  0.1159
 1946TIP3    H127329   0.547   3.045  13.869  0.3882  0.5245  1.2416
 1946TIP3    H227330   0.686   3.009  13.916  0.2618 -0.0848  1.1618
 1947TIP3   OH227331   4.577   3.525  15.486  0.1825  0.2264  0.1043
 1947TIP3    H127332   4.531   3.530  15.570 -1.9910 -2.3218 -0.7679
 1947TIP3    H227333   4.643   3.458  15.499 -0.3845 -0.4187 -0.2741
 1948TIP3   OH227334   4.527   4.965   5.911  0.5434 -0.2141 -0.0136
 1948TIP3    H127335   4.530   5.035   5.977 -0.0430  0.9906 -1.2214
 1948TIP3    H227336   4.455   4.990   5.853 -0.0354 -2.1253 -0.1737
 1949TIP3   OH227337   2.570   1.632  10.570  0.1027  0.5676  0.0606
 1949TIP3    H127338   2.558   1.682  10.490  1.0647 -3.4505 -2.8913
 1949TIP3    H227339   2.665   1.622  10.578 -0.0571 -0.8372  0.4650
 1950TIP3   OH227340   2.484   2.227   2.247  0.0299 -0.4056 -0.5106
 1950TIP3    H127341   2.424   2.301   2.239  0.1341 -0.3078 -0.3841
 1950TIP3    H227342   2.461   2.170   2.174  1.9797  1.1843 -2.5155
 1951TIP3   OH227343   2.716   2.930  11.474  0.4668  0.4751  0.5053
 1951TIP3    H127344   2.795   2.905  11.522  1.4111  1.5291 -0.4541
 1951TIP3    H227345   2.746   2.992  11.407 -1.2532  1.3705  0.4918
 1952TIP3   OH227346   6.423   1.323   2.502  0.2438  0.3482  0.0276
 1952TIP3    H127347   6.491   1.282   2.448 -1.1703 -0.0303 -1.5427
 1952TIP3    H227348   6.371   1.374   2.440 -0.4930  1.2159  1.3208
 1953TIP3   OH227349   6.306   1.727   2.679  0.0456  0.3076  0.3933
 1953TIP3    H127350   6.301   1.677   2.597  1.0063 -0.6604  0.9018
 1953TIP3    H227351   6.229   1.784   2.677 -0.0286  0.1962 -1.1126
 1954TIP3   OH227352   2.691   5.055   1.633  0.1904  0.1595 -0.3690
 1954TIP3    H127353   2.778   5.089   1.654 -0.1173 -0.2577  1.8076
 1954TIP3    H227354   2.705   4.961   1.621  0.1346  0.1880 -0.6605
 1955TIP3   OH227355   1.305   2.929  12.711  0.0356 -0.4401  0.0984
 1955TIP3    H127356   1.274   3.003  12.660 -0.5192 -0.9410 -0.2986
 1955TIP3    H227357   1.252   2.855  12.682  1.4493 -1.2845 -0.4627
 1956TIP3   OH227358   4.807   4.414  11.511 -0.2191 -0.3654 -0.2357
 1956TIP3    H127359   4.794   4.396  11.604 -0.1056  2.1190  0.3146
 1956TIP3    H227360   4.757   4.345  11.467  0.6570 -2.2993  1.5866
 1957TIP3   OH227361   6.249   5.950  11.013 -0.8434 -0.4830 -0.3777
 1957TIP3    H127362   6.255   6.015  10.943 -0.5230 -0.0118  0.0882
 1957TIP3    H227363   6.208   5.874  10.971 -1.6083  0.1656 -0.8116
 1958TIP3   OH227364   4.347   0.744   1.734  0.1815 -0.1207  0.3328
 1958TIP3    H127365   4.303   0.665   1.703 -0.1236  0.1813 -0.0247
 1958TIP3    H227366   4.345   0.737   1.830  2.2803 -1.6780  0.3239
 1959TIP3   OH227367   1.156   6.756  10.410 -0.7454  0.5079 -0.6186
 1959TIP3    H127368   1.129   6.666  10.391 -0.6834  0.6320 -1.3403
 1959TIP3    H227369   1.074   6.801  10.430 -0.7454  0.2302  0.0574
 1960TIP3   OH227370   2.511   0.981   2.856  0.1499  0.3061  0.4214
 1960TIP3    H127371   2.547   0.893   2.840  0.4581  0.7706 -1.7986
 1960TIP3    H227372   2.507   1.021   2.769  1.7441  3.1576  1.5159
 1961TIP3   OH227373   6.555   0.631  13.598 -0.3597 -0.0814  0.8863
 1961TIP3    H127374   6.635   0.617  13.649 -1.5850 -1.3941  2.5619
 1961TIP3    H227375   6.511   0.546  13.597 -1.9319  0.6890  0.3618
 1962TIP3   OH227376   0.527   0.987   5.536 -0.2801 -0.1711 -0.5879
 1962TIP3    H127377   0.512   0.999   5.442  0.7002  0.9786 -0.6173
 1962TIP3    H227378   0.447   0.945   5.567 -0.6374 -0.5423 -1.9225
 1963TIP3   OH227379   2.988   6.302  11.915 -0.0218 -0.3631 -0.1525
 1963TIP3    H127380   2.965   6.243  11.987  0.8834  0.8615  1.1970
 1963TIP3    H227381   2.947   6.263  11.838 -0.4214 -2.1063  0.8905
 1964TIP3   OH227382   1.188   0.449   2.415 -0.4195 -0.0867 -0.8271
 1964TIP3    H127383   1.210   0.424   2.504 -1.1968  0.8012 -0.3727
 1964TIP3    H227384   1.166   0.366   2.372 -1.1443 -0.4117  0.1235
 1965TIP3   OH227385   6.375   5.903   2.969  0.7226  0.2335  0.3598
 1965TIP3    H127386   6.412   5.974   2.918 -0.7173 -0.9008 -2.5120
 1965TIP3    H227387   6.295   5.940   3.008  1.1863  0.7768  0.8120
 1966TIP3   OH227388   2.617   6.263   2.080  0.0638  0.5909 -0.4119
 1966TIP3    H127389   2.637   6.254   2.173  1.4732 -0.0771 -0.7548
 1966TIP3    H227390   2.651   6.349   2.057  1.3119  0.0441 -0.6753
 1967TIP3   OH227391   4.064   3.039  16.796 -0.3712  0.4231  0.4117
 1967TIP3    H127392   4.114   3.051  16.877  0.7929  1.2329 -0.3988
 1967TIP3    H227393   3.973   3.043  16.824  0.0017  0.2537  1.7400
 1968TIP3   OH227394   3.619   2.741   0.556  0.9243  0.5043  0.1252
 1968TIP3    H127395   3.646   2.827   0.588  0.8691  1.1766 -1.5330
 1968TIP3    H227396   3.547   2.716   0.613 -0.8115  2.7691 -0.9154
 1969TIP3   OH227397   4.828   6.522  15.830  0.0251 -0.0768  0.2911
 1969TIP3    H127398   4.883   6.505  15.754  0.7798  0.3470  0.7201
 1969TIP3    H227399   4.885   6.571  15.890  0.0727 -1.9394  1.9053
 1970TIP3   OH227400   2.762   0.011   6.354  0.5420 -0.0828 -0.3262
 1970TIP3    H127401   2.810  -0.069   6.377 -0.3181 -0.5721 -0.1900
 1970TIP3    H227402   2.673  -0.004   6.385  0.0769  0.4550 -1.3349
 1971TIP3   OH227403   5.473   1.923   2.668  0.5940 -0.4679  0.1560
 1971TIP3    H127404   5.516   1.931   2.582 -3.4575  1.2400 -2.0067
 1971TIP3    H227405   5.493   2.006   2.712 -0.4309  0.3748 -0.8889
 1972TIP3   OH227406   1.179   1.541  10.680  0.6795  0.0887  0.3537
 1972TIP3    H127407   1.107   1.603  10.689 -1.3763 -2.0161 -0.6527
 1972TIP3    H227408   1.211   1.555  10.591 -0.0025 -0.4918  0.0110
 1973TIP3   OH227409   5.234   4.176   1.186  0.0783 -0.0681  0.1593
 1973TIP3    H127410   5.314   4.203   1.141 -0.7303 -0.7251 -1.7713
 1973TIP3    H227411   5.166   4.231   1.148 -0.6002 -0.4418  0.8151
 1974TIP3   OH227412   1.112   0.358  14.840 -0.6849 -0.1919  0.3152
 1974TIP3    H127413   1.204   0.340  14.859 -0.7785 -1.9682 -0.6131
 1974TIP3    H227414   1.114   0.432  14.779  0.3894 -1.9652 -1.9478
 1975TIP3   OH227415   3.264   2.353   3.778  0.1874  0.1458  0.3053
 1975TIP3    H127416   3.308   2.274   3.748  2.5477  1.2575  0.6563
 1975TIP3    H227417   3.199   2.371   3.710 -0.2008 -1.8623  0.0642
 1976TIP3   OH227418   6.156   0.895   5.659 -0.4053 -0.2243 -0.1480
 1976TIP3    H127419   6.066   0.864   5.651  0.9655 -6.1327  2.2358
 1976TIP3    H227420   6.171   0.902   5.753  1.8472 -0.2772 -0.4432
 1977TIP3   OH227421   1.081   6.280  14.903  0.6870 -0.4091 -0.0889
 1977TIP3    H127422   1.013   6.305  14.842  0.9776 -1.4165 -0.8404
 1977TIP3    H227423   1.156   6.336  14.880  0.8031 -0.7986 -0.6817
 1978TIP3   OH227424   2.914   6.722  11.869 -0.3091  0.0105  0.1312
 1978TIP3    H127425   3.005   6.734  11.899 -0.4255  0.3983  0.3428
 1978TIP3    H227426   2.903   6.787  11.800 -0.4107 -0.0715  0.0708
 1979TIP3   OH227427   6.607   6.189   4.476  0.3226 -0.3819  0.1018
 1979TIP3    H127428   6.541   6.215   4.541  0.7827 -1.4474  1.0373
 1979TIP3    H227429   6.677   6.254   4.486  0.3744 -0.5178  0.6652
 1980TIP3   OH227430   0.626   1.679  14.178  0.6858 -0.4279 -0.3019
 1980TIP3    H127431   0.573   1.635  14.244 -0.5793 -0.8581 -1.5389
 1980TIP3    H227432   0.630   1.770  14.207 -0.8607 -0.3594 -0.2241
 1981TIP3   OH227433   0.611   0.926  16.805 -0.2604  0.0398 -0.3669
 1981TIP3    H127434   0.653   0.891  16.884 -1.0513  0.6747  0.3648
 1981TIP3    H227435   0.598   1.019  16.825 -0.4647  0.2074 -1.2582
 1982TIP3   OH227436   6.817   3.761  13.458 -0.2947  0.8200 -0.2097
 1982TIP3    H127437   6.797   3.852  13.437  0.8316  0.9456 -0.8278
 1982TIP3    H227438   6.804   3.714  13.376 -2.0792  0.1703  0.3852
 1983TIP3   OH227439   1.994   4.605  17.068 -0.2581 -0.4160  0.3213
 1983TIP3    H127440   2.027   4.667  17.132  1.2937 -0.1780 -0.6623
 1983TIP3    H227441   2.047   4.620  16.990 -1.4826 -1.3178 -0.7307
 1984TIP3   OH227442   1.560   5.678  11.298 -0.5621 -0.5267 -0.0983
 1984TIP3    H127443   1.514   5.762  11.298  0.6076  0.1590  0.8487
 1984TIP3    H227444   1.597   5.671  11.210  1.5214  1.2659  0.5424
 1985TIP3   OH227445   2.754   6.504  11.342  0.4942 -0.1330 -0.0278
 1985TIP3    H127446   2.736   6.595  11.317  3.7975  0.8659  0.7075
 1985TIP3    H227447   2.675   6.475  11.387 -1.3986  1.6727 -1.9182
 1986TIP3   OH227448   0.690   0.446  14.142  0.0877 -0.0831 -0.2299
 1986TIP3    H127449   0.601   0.425  14.171  0.8999 -2.7236  0.5842
 1986TIP3    H227450   0.683   0.535  14.107 -2.4357  0.5404  1.5950
 1987TIP3   OH227451   1.138   0.294  14.071 -0.0336  0.1804 -0.3406
 1987TIP3    H127452   1.052   0.273  14.105  0.0836 -0.2854 -0.3294
 1987TIP3    H227453   1.183   0.338  14.143 -0.4080  0.8294 -0.4894
 1988TIP3   OH227454   4.233   2.763   3.323  0.1763  0.0149  0.5918
 1988TIP3    H127455   4.271   2.824   3.386  0.3957 -1.2724  1.7682
 1988TIP3    H227456   4.179   2.705   3.377  1.5176 -2.0414 -0.1692
 1989TIP3   OH227457   5.279   3.404   1.853 -0.0398  0.2510  0.1782
 1989TIP3    H127458   5.366   3.443   1.853 -0.1005  0.4438  1.7949
 1989TIP3    H227459   5.220   3.476   1.876 -0.2660 -0.5166  2.1506
 1990TIP3   OH227460   6.690   3.093  14.352  0.1676  0.7551 -0.6902
 1990TIP3    H127461   6.606   3.129  14.321 -0.5607 -1.1112 -1.0115
 1990TIP3    H227462   6.739   3.074  14.272  0.2948  0.4723 -0.5466
 1991TIP3   OH227463   5.865   0.359   4.189 -0.0479 -0.1431  0.0492
 1991TIP3    H127464   5.935   0.365   4.254 -0.3423 -0.4438  0.4024
 1991TIP3    H227465   5.905   0.313   4.115  1.5747  3.8073 -1.8005
 1992TIP3   OH227466   3.285   6.215  12.010 -0.0923  0.3067 -0.4335
 1992TIP3    H127467   3.193   6.219  12.037 -0.1422  1.6845 -0.7521
 1992TIP3    H227468   3.281   6.193  11.916 -0.1169  0.6134 -0.5065
 1993TIP3   OH227469   1.753   1.392  17.085  0.5915 -0.3421 -0.4673
 1993TIP3    H127470   1.703   1.313  17.064  0.5828  0.3605 -3.6422
 1993TIP3    H227471   1.688   1.463  17.080  1.4607  0.3768 -2.8727
 1994TIP3   OH227472   4.648   6.545  12.261 -0.0143  0.0799  0.6177
 1994TIP3    H127473   4.725   6.489  12.272 -0.4312 -0.8250 -0.7749
 1994TIP3    H227474   4.676   6.612  12.199 -0.4997 -0.6077 -0.3690
 1995TIP3   OH227475   5.050   4.464   3.901 -0.1267  0.3891 -0.3373
 1995TIP3    H127476   5.034   4.543   3.850  2.3570  1.6259  0.5998
 1995TIP3    H227477   5.139   4.476   3.936 -0.7437 -1.4937  2.2030
 1996TIP3   OH227478   5.525   1.766   6.183 -0.2718  0.0511 -0.1081
 1996TIP3    H127479   5.506   1.704   6.112  0.6618 -0.2327 -0.1283
 1996TIP3    H227480   5.552   1.846   6.137  0.5419 -0.2011 -0.0843
 1997TIP3   OH227481   3.343   5.983   5.890  0.2941  0.4806 -0.1118
 1997TIP3    H127482   3.378   5.894   5.893  1.5056  0.9596  2.0819
 1997TIP3    H227483   3.330   6.001   5.797  0.0935 -1.9412 -0.6092
 1998TIP3   OH227484   4.483   3.052   4.036  0.9755 -0.4141  0.0774
 1998TIP3    H127485   4.402   3.050   3.985 -0.4100 -1.7735  2.1519
 1998TIP3    H227486   4.505   3.144   4.044 -1.2666  0.1250  0.7371
 1999TIP3   OH227487   4.481   0.521   5.139 -0.1233  0.7517  0.4978
 1999TIP3    H127488   4.478   0.427   5.152 -1.1372  0.7709  0.4645
 1999TIP3    H227489   4.486   0.532   5.044  1.2466  0.7187  0.5538
 2000TIP3   OH227490   0.096   5.560   5.582  0.2819  0.3751 -0.2789
 2000TIP3    H127491   0.018   5.613   5.565  1.0649  1.6351 -0.0687
 2000TIP3    H227492   0.168   5.612   5.546  0.9074 -1.3855 -1.7205
 2001TIP3   OH227493   4.324   3.531   0.271 -0.5658 -0.2094 -0.1403
 2001TIP3    H127494   4.334   3.437   0.255 -0.5358 -0.2388  0.0497
 2001TIP3    H227495   4.240   3.553   0.232 -0.5932 -0.3251 -0.1468
 2002TIP3   OH227496   3.533   4.943   2.448  0.7285  0.5422  0.0394
 2002TIP3    H127497   3.535   5.024   2.398  0.4118  0.9708  0.7038
 2002TIP3    H227498   3.537   4.971   2.540 -2.5529  0.0577  0.4626
 2003TIP3   OH227499   4.674   2.269  11.314  0.2043 -0.4060 -0.2096
 2003TIP3    H127500   4.686   2.174  11.319  3.1720 -0.1922 -1.2610
 2003TIP3    H227501   4.631   2.292  11.396  0.0919 -2.5656  0.4028
 2004TIP3   OH227502   6.354   5.927  15.032 -0.0725  0.1838 -0.1742
 2004TIP3    H127503   6.390   5.856  15.086 -2.5810 -1.4175 -0.4548
 2004TIP3    H227504   6.431   5.973  15.000  1.7448 -2.6695 -0.3185
 2005TIP3   OH227505   4.544   5.919   2.796 -0.3960 -0.1488  0.7694
 2005TIP3    H127506   4.452   5.929   2.769 -0.6182  0.9705  1.8485
 2005TIP3    H227507   4.539   5.892   2.888  0.3610 -0.4857  0.7197
 2006TIP3   OH227508   3.554   3.137   4.526  0.1983  1.1091  0.3967
 2006TIP3    H127509   3.616   3.118   4.595  0.6046  0.0607 -0.2366
 2006TIP3    H227510   3.595   3.206   4.474  0.8428  0.4347 -0.0067
 2007TIP3   OH227511   5.167   4.366   2.925 -0.0678  0.6060 -0.7530
 2007TIP3    H127512   5.131   4.424   2.992  0.0103 -1.1466  0.8923
 2007TIP3    H227513   5.246   4.411   2.894 -0.0281  1.3902  0.4323
 2008TIP3   OH227514   2.961   2.010  16.944 -0.2945 -0.5354 -0.0326
 2008TIP3    H127515   2.914   2.081  16.901  0.3755  0.5559  0.9763
 2008TIP3    H227516   2.893   1.947  16.969 -1.1680  0.7100  0.8513
 2009TIP3   OH227517   5.275   2.468   3.739  0.1473  0.0875  0.3415
 2009TIP3    H127518   5.346   2.409   3.712 -0.9273 -0.2272 -2.1259
 2009TIP3    H227519   5.197   2.413   3.735 -0.6251  1.1811 -0.0624
 2010TIP3   OH227520   0.409   0.483  13.625 -0.6033  0.0975  0.2386
 2010TIP3    H127521   0.388   0.399  13.665  0.9292 -0.6639 -0.4518
 2010TIP3    H227522   0.393   0.469  13.531  1.4291 -0.0817 -0.1319
 2011TIP3   OH227523   6.753   1.672  10.596  0.0543  0.6416 -0.0145
 2011TIP3    H127524   6.787   1.599  10.544 -0.4336  1.5708 -1.6794
 2011TIP3    H227525   6.662   1.647  10.615 -0.1360  0.8350 -0.6477
 2012TIP3   OH227526   1.944   6.294  11.515  0.1030  0.2001  0.4498
 2012TIP3    H127527   1.956   6.204  11.545 -0.1828  0.4264  1.2837
 2012TIP3    H227528   1.860   6.292  11.468 -0.8060  0.3675  1.9829
 2013TIP3   OH227529   4.401   1.090   4.224 -0.0590 -0.6427 -0.1580
 2013TIP3    H127530   4.433   1.160   4.280  0.5155 -0.5874 -0.5490
 2013TIP3    H227531   4.380   1.134   4.141  2.4309 -1.2341 -1.1946
 2014TIP3   OH227532   1.302   1.761  13.934 -0.0113  0.2307  0.1478
 2014TIP3    H127533   1.318   1.720  14.018 -0.8130 -0.1901  0.1073
 2014TIP3    H227534   1.317   1.692  13.869  0.7982  0.6053 -0.0723
 2015TIP3   OH227535   4.680   0.499  12.402 -0.8452 -0.3383 -0.0152
 2015TIP3    H127536   4.627   0.428  12.439  0.2148 -1.9104 -1.3170
 2015TIP3    H227537   4.616   0.566  12.377 -1.9959 -1.2216  0.4394
 2016TIP3   OH227538   5.155   3.319  12.058  0.4500 -0.0220  0.2327
 2016TIP3    H127539   5.244   3.324  12.094 -0.1681 -0.3558  1.9110
 2016TIP3    H227540   5.118   3.406  12.074  0.4711  0.1171 -0.4644
 2017TIP3   OH227541   0.473   0.676   4.935 -0.0046  0.0028  0.0712
 2017TIP3    H127542   0.494   0.739   4.866  0.0832  0.7587  0.7648
 2017TIP3    H227543   0.413   0.724   4.993 -0.8091 -0.9280  0.0301
 2018TIP3   OH227544   2.935   0.323  16.085  0.0920 -0.8302 -0.1341
 2018TIP3    H127545   3.018   0.295  16.046 -0.8206 -1.3887 -1.7729
 2018TIP3    H227546   2.890   0.371  16.016 -0.4134  0.6290  1.1504
 2019TIP3   OH227547   3.684   1.397  12.067  0.3338  0.1085 -0.5332
 2019TIP3    H127548   3.770   1.398  12.109 -0.2079  1.8255  0.6315
 2019TIP3    H227549   3.623   1.376  12.138 -0.5021  2.0998 -0.5935
 2020TIP3   OH227550   0.046   3.010  13.840  0.1305  0.2025 -0.4363
 2020TIP3    H127551   0.138   2.992  13.818  0.3706  2.2947 -1.3304
 2020TIP3    H227552  -0.000   3.000  13.757 -0.2112  0.6633 -0.3002
 2021TIP3   OH227553   2.474   3.742   2.426  0.2503 -0.8361 -0.1205
 2021TIP3    H127554   2.442   3.687   2.497 -0.7864 -1.9787 -1.4258
 2021TIP3    H227555   2.568   3.724   2.423  0.4598 -0.1755  1.4253
 2022TIP3   OH227556   4.808   1.245  13.432  0.4646 -0.1106 -0.1981
 2022TIP3    H127557   4.819   1.167  13.486  0.8472 -0.6027 -0.9688
 2022TIP3    H227558   4.862   1.312  13.474  0.8455 -0.5207 -0.0346
 2023TIP3   OH227559   5.908   0.808   1.360 -0.0481  0.1746  0.0312
 2023TIP3    H127560   5.862   0.725   1.351  0.2792 -0.0745  0.6381
 2023TIP3    H227561   5.939   0.828   1.271 -1.0423  0.1917 -0.3187
 2024TIP3   OH227562   5.849   4.103  14.779  0.0911  0.0177 -0.2115
 2024TIP3    H127563   5.900   4.183  14.779  0.3679 -0.1503  0.8118
 2024TIP3    H227564   5.762   4.130  14.748  0.3200  0.6067 -0.3542
 2025TIP3   OH227565   5.233   1.255  12.036 -0.6952  0.1632 -0.1287
 2025TIP3    H127566   5.255   1.316  11.966 -1.2948  1.3431  0.6864
 2025TIP3    H227567   5.139   1.239  12.027 -0.7055  0.0329  0.1714
 2026TIP3   OH227568   2.043   3.661   4.014  0.3152 -0.0130  0.3937
 2026TIP3    H127569   2.076   3.571   4.013  0.3697  0.0098  0.1211
 2026TIP3    H227570   2.096   3.706   4.080 -0.9996 -0.6665  1.9889
 2027TIP3   OH227571   2.041   1.101  17.045  0.0254 -0.5436  0.4992
 2027TIP3    H127572   2.093   1.025  17.018  2.1746  1.1429 -0.4411
 2027TIP3    H227573   2.085   1.133  17.124 -0.6781 -0.1421  0.7334
 2028TIP3   OH227574   4.599   0.422  15.800  0.1074  0.0090 -0.3170
 2028TIP3    H127575   4.586   0.422  15.895 -1.3734  0.3033 -0.5039
 2028TIP3    H227576   4.672   0.361  15.787  0.3244 -0.0548  1.0017
 2029TIP3   OH227577   1.052   1.500   5.219  0.7593 -0.1421  0.2114
 2029TIP3    H127578   1.074   1.551   5.296  1.0998 -0.6889  0.4798
 2029TIP3    H227579   0.998   1.559   5.166 -2.1894 -0.7439  2.2819
 2030TIP3   OH227580   0.959   0.279   1.195 -0.1884 -0.1402  0.4992
 2030TIP3    H127581   0.907   0.205   1.225 -0.0794 -0.4663 -0.0999
 2030TIP3    H227582   0.895   0.344   1.168 -0.2968  0.3723  1.9114
 2031TIP3   OH227583   0.615   6.351  15.434 -0.5009 -0.1958 -0.4797
 2031TIP3    H127584   0.569   6.273  15.404 -0.6216 -0.1901 -0.3115
 2031TIP3    H227585   0.578   6.422  15.382  0.1580 -0.3572 -1.1832
 2032TIP3   OH227586   3.222   1.917  15.411 -0.5965 -0.1358 -0.3091
 2032TIP3    H127587   3.135   1.956  15.399 -0.2979 -0.0210 -2.5281
 2032TIP3    H227588   3.238   1.922  15.505 -1.7565  2.5577 -0.1650
 2033TIP3   OH227589   0.094   6.262  14.440  0.0353  0.3613 -0.0835
 2033TIP3    H127590   0.034   6.243  14.368  0.0213  0.5302 -0.1187
 2033TIP3    H227591   0.165   6.199  14.429 -0.9608 -0.9977  0.9736
 2034TIP3   OH227592   3.002   1.735   5.470 -0.1207 -0.1919  0.5144
 2034TIP3    H127593   3.075   1.673   5.466  0.9601  1.1035 -1.0431
 2034TIP3    H227594   3.029   1.799   5.535 -0.1437 -0.0437  0.3775
 2035TIP3   OH227595   6.799   3.772  17.269  0.4352  0.3312 -0.5103
 2035TIP3    H127596   6.875   3.723  17.237  1.1696 -0.4531  2.1337
 2035TIP3    H227597   6.759   3.715  17.334 -1.6409  1.3004 -0.8632
 2036TIP3   OH227598   5.467   5.893  11.541  0.0728  0.1383  0.9808
 2036TIP3    H127599   5.477   5.864  11.631  1.2729  1.0221  1.1533
 2036TIP3    H227600   5.436   5.983  11.547  0.3063  0.2580  0.5283
 2037TIP3   OH227601   1.256   4.657   5.906 -0.5903  0.3824  0.1025
 2037TIP3    H127602   1.307   4.642   5.827 -1.0881 -1.4279  0.0701
 2037TIP3    H227603   1.185   4.715   5.878  0.0742  0.9694 -0.4046
 2038TIP3   OH227604   2.659   4.505   5.715 -0.0375 -0.0723  0.2084
 2038TIP3    H127605   2.749   4.525   5.689  0.1055 -0.0597  0.6941
 2038TIP3    H227606   2.650   4.548   5.800 -0.3606 -0.4528  0.3647
 2039TIP3   OH227607   3.321   0.497  16.891  0.3234 -0.4190  0.2188
 2039TIP3    H127608   3.287   0.440  16.960 -1.4645  0.4682  0.1177
 2039TIP3    H227609   3.297   0.454  16.809 -0.5114  0.1729  0.1462
 2040TIP3   OH227610   5.700   1.083  16.354  0.3451  0.4951 -0.5183
 2040TIP3    H127611   5.752   1.012  16.317 -0.5716 -0.8177  0.6336
 2040TIP3    H227612   5.647   1.115  16.280  1.7709  0.9718 -1.3786
 2041TIP3   OH227613   5.327   2.178   4.452  0.0008 -0.3210  0.5675
 2041TIP3    H127614   5.259   2.111   4.462  0.1934 -0.7023 -0.5357
 2041TIP3    H227615   5.409   2.128   4.453  0.2811  0.1269  1.7895
 2042TIP3   OH227616   4.365   2.272   4.582  0.4032 -0.5157  0.9063
 2042TIP3    H127617   4.347   2.365   4.595  0.3186  0.2292 -3.1984
 2042TIP3    H227618   4.280   2.230   4.585  0.0243  0.1066 -0.3825
 2043TIP3   OH227619   5.480   0.579   1.500  0.4596 -0.7853 -0.1019
 2043TIP3    H127620   5.557   0.616   1.456  0.2423  0.4909  0.5519
 2043TIP3    H227621   5.512   0.556   1.587 -0.0349  0.4212  0.4244
 2044TIP3   OH227622   4.007   0.017  14.238  0.0474  0.0168  0.1174
 2044TIP3    H127623   3.963   0.081  14.182 -1.9375 -1.1693  0.2143
 2044TIP3    H227624   3.971   0.032  14.325  2.1613  0.9941  0.8928
 2045TIP3   OH227625   2.458   0.491  17.026  0.5454  0.1831 -0.1985
 2045TIP3    H127626   2.550   0.483  17.051  1.0575  0.2408 -1.9127
 2045TIP3    H227627   2.420   0.405  17.046  1.6566 -0.7740 -1.9257
 2046TIP3   OH227628   1.630   2.978  16.772  0.2666  1.1034 -0.0086
 2046TIP3    H127629   1.585   3.010  16.694  0.0739  2.0768  0.4794
 2046TIP3    H227630   1.561   2.941  16.826  0.3546  0.7126 -0.1633
 2047TIP3   OH227631   0.322   3.646  13.371 -0.4473 -0.3736 -0.2095
 2047TIP3    H127632   0.257   3.699  13.416 -0.2779  0.4920 -0.9422
 2047TIP3    H227633   0.271   3.592  13.310 -0.4565  1.1355 -1.6260
 2048TIP3   OH227634   2.184   2.226  17.070 -0.2725 -0.1709  0.8604
 2048TIP3    H127635   2.113   2.254  17.012  0.2567 -0.2360  0.1515
 2048TIP3    H227636   2.143   2.169  17.134 -0.9203  0.0943  0.6864
 2049TIP3   OH227637   5.879   6.081   1.913 -0.0096 -0.2169 -0.2647
 2049TIP3    H127638   5.927   6.033   1.980  0.6241  0.0638 -0.5171
 2049TIP3    H227639   5.931   6.160   1.897 -0.1161 -0.3244 -1.1519
 2050TIP3   OH227640   3.264   6.381  14.129 -0.0503 -0.0882 -0.5464
 2050TIP3    H127641   3.285   6.449  14.065 -0.2489  1.4873  0.9984
 2050TIP3    H227642   3.325   6.395  14.201 -2.3413  0.7267  1.3469
 2051TIP3   OH227643   1.971   3.259   2.955  0.1828 -0.5466 -0.3121
 2051TIP3    H127644   1.947   3.324   3.022  0.8135 -0.1415 -0.4704
 2051TIP3    H227645   2.033   3.201   3.000  0.6414 -0.2477 -0.5559
 2052TIP3   OH227646   3.490   2.073   0.619  0.0911  0.4450 -0.1311
 2052TIP3    H127647   3.568   2.099   0.667  0.0724 -0.8061  0.6364
 2052TIP3    H227648   3.432   2.149   0.623  0.8121  0.9838  0.2783
 2053TIP3   OH227649   3.787   0.189  16.427  0.2192  0.0983  0.2744
 2053TIP3    H127650   3.809   0.224  16.341 -0.0179  1.0184  0.5744
 2053TIP3    H227651   3.861   0.133  16.450  0.9036  0.8837  0.0314
 2054TIP3   OH227652   1.652   4.148  12.765  0.1440 -0.6046 -0.2552
 2054TIP3    H127653   1.669   4.205  12.841 -0.4156  1.4302 -1.5815
 2054TIP3    H227654   1.739   4.124  12.734  0.4016 -0.3155  0.2223
 2055TIP3   OH227655   4.171   4.884   2.122 -0.1344  0.1690 -0.4572
 2055TIP3    H127656   4.128   4.901   2.205  0.6357 -0.0260 -0.0083
 2055TIP3    H227657   4.160   4.790   2.108 -0.6616  0.2758 -0.8140
 2056TIP3   OH227658   6.628   2.503  12.757 -0.4367  0.9914 -0.1682
 2056TIP3    H127659   6.668   2.544  12.680  0.6536 -0.0938 -0.2124
 2056TIP3    H227660   6.676   2.539  12.831 -0.6515  1.0929 -0.0766
 2057TIP3   OH227661   6.746   5.788   2.592  0.0502 -0.0322 -0.0236
 2057TIP3    H127662   6.757   5.854   2.661 -0.3859 -1.9067  1.9345
 2057TIP3    H227663   6.814   5.723   2.610 -0.3289 -0.7631 -1.1358
 2058TIP3   OH227664   6.464   6.498   3.597  0.7293  0.6281 -0.1718
 2058TIP3    H127665   6.523   6.535   3.663 -0.7514  0.3059  1.4101
 2058TIP3    H227666   6.502   6.413   3.577  1.0607  0.6167  0.4662
 2059TIP3   OH227667   4.907   2.846   3.373  0.0731  0.2861  0.5127
 2059TIP3    H127668   4.840   2.833   3.440  0.6066 -0.7213  0.8779
 2059TIP3    H227669   4.968   2.773   3.386 -0.2083 -0.3691 -1.5274
 2060TIP3   OH227670   6.539   1.054   1.143  0.1747 -0.0896  0.5240
 2060TIP3    H127671   6.576   0.975   1.104 -2.2499 -0.8920 -0.3690
 2060TIP3    H227672   6.532   1.116   1.071 -3.2323 -1.1754 -0.3050
 2061TIP3   OH227673   4.540   6.077   6.257 -0.3743  0.1330 -0.1994
 2061TIP3    H127674   4.477   6.147   6.272  0.1311  0.3851  0.8475
 2061TIP3    H227675   4.488   6.004   6.223 -1.5603 -0.3036  2.3622
 2062TIP3   OH227676   3.949   6.634   3.350  0.7462  0.0053 -0.0465
 2062TIP3    H127677   3.970   6.703   3.286  3.5464 -0.3843  0.3477
 2062TIP3    H227678   3.952   6.678   3.434  2.7420 -0.5358  0.2258
 2063TIP3   OH227679   0.322   6.826  10.197 -0.0485  0.0691  0.5585
 2063TIP3    H127680   0.380   6.750  10.202 -0.9043 -0.5605  1.5552
 2063TIP3    H227681   0.381   6.901  10.191  0.9248 -0.4902  2.3521
 2064TIP3   OH227682   6.708   2.822   5.691 -0.8875 -0.2976  0.0460
 2064TIP3    H127683   6.736   2.827   5.600  0.4350 -3.2891  0.1613
 2064TIP3    H227684   6.775   2.872   5.739  0.6837 -1.9170 -0.3291
 2065TIP3   OH227685   0.105   5.443   3.746 -0.0586  0.2629 -0.4632
 2065TIP3    H127686   0.171   5.503   3.782 -0.3001 -0.5650  1.4842
 2065TIP3    H227687   0.148   5.358   3.746 -1.2796 -0.4036  1.4308
 2066TIP3   OH227688   3.814   6.094  11.033  0.1684 -0.2384 -0.3072
 2066TIP3    H127689   3.767   6.024  10.988  1.1358 -0.1910 -1.4322
 2066TIP3    H227690   3.772   6.174  11.001  0.4460 -0.2302 -0.6594
 2067TIP3   OH227691   3.745   3.783  12.252  0.4666  0.0517  0.5782
 2067TIP3    H127692   3.773   3.718  12.188 -1.0121 -0.1112  0.0649
 2067TIP3    H227693   3.684   3.839  12.204 -1.5139 -0.7088  2.0964
 2068TIP3   OH227694   1.961   1.929  14.023 -0.0349 -0.7227 -0.7914
 2068TIP3    H127695   1.947   1.979  14.103 -0.0217 -3.8832  1.3536
 2068TIP3    H227696   2.007   1.989  13.965  0.5857  1.5025  1.8059
 2069TIP3   OH227697   4.827   0.562   3.366  0.3559  0.1631 -0.1176
 2069TIP3    H127698   4.833   0.621   3.291 -0.1849  2.1351  1.2982
 2069TIP3    H227699   4.733   0.556   3.384  0.1899 -2.7784 -1.3739
 2070TIP3   OH227700   3.804   0.012   4.935  0.3725 -0.5976 -0.1213
 2070TIP3    H127701   3.899   0.002   4.937  0.3513 -0.7076  2.0801
 2070TIP3    H227702   3.790   0.102   4.905  1.2155 -0.2666  0.4373
 2071TIP3   OH227703   2.486   4.458   0.099  0.3890  0.2171  0.0557
 2071TIP3    H127704   2.514   4.405   0.174 -0.7698  0.2473  0.5179
 2071TIP3    H227705   2.498   4.400   0.023  1.5991  0.2005  0.2420
 2072TIP3   OH227706   5.961   3.786   2.845  0.8251 -0.0891 -0.1864
 2072TIP3    H127707   5.957   3.699   2.886  1.8526 -0.1126 -0.1096
 2072TIP3    H227708   5.898   3.838   2.894  0.5715 -0.6585  0.1030
 2073TIP3   OH227709   4.905   0.612   1.159  0.2798  0.1086  0.2086
 2073TIP3    H127710   4.917   0.589   1.251  0.3721  2.6902  0.9235
 2073TIP3    H227711   4.982   0.576   1.115  0.3887 -0.8917  1.1785
 2074TIP3   OH227712   2.335   5.984  10.449  0.5144  0.2007 -0.0786
 2074TIP3    H127713   2.285   6.061  10.475  0.7326  0.1038  0.6448
 2074TIP3    H227714   2.426   6.015  10.445  0.6316 -0.0692  0.4387
 2075TIP3   OH227715   0.104   3.762  15.728 -0.1271  0.3177 -0.6078
 2075TIP3    H127716   0.159   3.838  15.709 -0.5197  0.1801 -2.5180
 2075TIP3    H227717   0.025   3.776  15.675 -1.3123 -0.2030  0.9575
 2076TIP3   OH227718   5.584   3.499  15.952  0.2329  0.0309 -0.2148
 2076TIP3    H127719   5.596   3.448  15.872  1.2981  1.0740 -0.7652
 2076TIP3    H227720   5.531   3.574  15.924 -0.1662 -0.0750  0.2638
 2077TIP3   OH227721   2.093   0.922   0.042  0.1579  0.1459 -0.5671
 2077TIP3    H127722   2.110   1.014   0.022 -0.6288  0.6069  0.7583
 2077TIP3    H227723   2.157   0.873  -0.009  1.5167  1.5039 -0.2017
 2078TIP3   OH227724   6.218   1.937  16.034  0.3526 -0.5922 -0.4176
 2078TIP3    H127725   6.181   1.966  16.118 -0.5905 -0.6873 -0.7865
 2078TIP3    H227726   6.289   1.877  16.058 -0.4068 -1.2202  0.3153
 2079TIP3   OH227727   1.390   1.702  12.551 -0.1193 -0.4252 -0.2343
 2079TIP3    H127728   1.361   1.617  12.518 -0.3867  0.5291 -2.6190
 2079TIP3    H227729   1.461   1.728  12.491  0.7212  0.5514  1.1222
 2080TIP3   OH227730   0.138   0.874  14.269 -0.1390 -0.0669  0.1731
 2080TIP3    H127731   0.066   0.874  14.332 -0.0366 -0.9869  0.2976
 2080TIP3    H227732   0.200   0.939  14.303 -0.5348  0.1489  0.4927
 2081TIP3   OH227733   3.813   4.634   1.001 -0.2684  0.2365 -0.1561
 2081TIP3    H127734   3.738   4.658   1.056 -0.7235  0.3750 -0.8191
 2081TIP3    H227735   3.775   4.580   0.932  0.4677 -0.8933  0.2931
 2082TIP3   OH227736   1.055   0.762   4.156  0.5950 -0.2480 -0.3039
 2082TIP3    H127737   1.035   0.833   4.096  0.0440  0.8428  1.0991
 2082TIP3    H227738   1.109   0.702   4.106 -0.0672  0.4734 -1.9495
 2083TIP3   OH227739   0.718   1.465   2.594  0.4574 -0.6737  0.1567
 2083TIP3    H127740   0.651   1.398   2.609  0.0946 -0.2095  0.6770
 2083TIP3    H227741   0.701   1.497   2.505  0.2557 -0.8565  0.1289
 2084TIP3   OH227742   5.153   3.792  12.757  0.2860  0.2700 -0.7966
 2084TIP3    H127743   5.239   3.751  12.762 -0.1638 -0.8626 -1.8892
 2084TIP3    H227744   5.147   3.824  12.667 -0.4071  0.3910 -0.7127
 2085TIP3   OH227745   6.094   0.104   3.566  0.0397 -0.1257 -0.2608
 2085TIP3    H127746   6.048   0.137   3.643 -1.1497 -1.4761 -0.3451
 2085TIP3    H227747   6.036   0.124   3.493 -1.1863 -3.1114 -0.2102
 2086TIP3   OH227748   5.343   3.151  12.378  0.0574 -0.7952 -0.2370
 2086TIP3    H127749   5.357   3.212  12.305  0.3215  0.1574  0.5814
 2086TIP3    H227750   5.286   3.083  12.342  0.6736 -0.6727 -1.4910
 2087TIP3   OH227751   4.807   0.942  11.827 -0.3528 -0.1336 -0.3566
 2087TIP3    H127752   4.761   1.001  11.888  0.3219  1.0842 -0.9934
 2087TIP3    H227753   4.770   0.963  11.741 -1.7320 -2.2576 -0.3559
 2088TIP3   OH227754   1.242   6.219   3.512  0.9527 -0.0670 -0.4646
 2088TIP3    H127755   1.264   6.299   3.465  0.6793  0.1430 -0.2416
 2088TIP3    H227756   1.211   6.250   3.598 -2.2386 -0.1843 -1.4413
 2089TIP3   OH227757   4.735   1.362   2.642 -0.3579  0.0779  0.8206
 2089TIP3    H127758   4.676   1.324   2.577 -1.1974 -1.7967  2.5472
 2089TIP3    H227759   4.763   1.445   2.604 -2.6691  0.1771 -0.8618
 2090TIP3   OH227760   3.354   2.233   1.982 -0.2781  0.2602 -0.1765
 2090TIP3    H127761   3.384   2.165   1.921  0.0861  2.1546 -2.2517
 2090TIP3    H227762   3.278   2.195   2.026  0.1817 -1.6289 -0.9355
 2091TIP3   OH227763   2.941   2.438   3.140  0.4881  0.5411 -0.7465
 2091TIP3    H127764   2.982   2.362   3.099 -1.7241 -0.7992 -0.6286
 2091TIP3    H227765   2.862   2.454   3.088 -0.7948  0.6858  1.1339
 2092TIP3   OH227766   0.364   6.374   3.506 -0.0009  0.1820 -0.2066
 2092TIP3    H127767   0.278   6.412   3.527  0.0372 -0.6390  1.6702
 2092TIP3    H227768   0.384   6.318   3.582  2.4915  0.8433 -0.3055
 2093TIP3   OH227769   3.787   3.624   1.437  0.0724 -0.0550 -0.0384
 2093TIP3    H127770   3.876   3.629   1.402  0.9155 -1.9112  1.6107
 2093TIP3    H227771   3.730   3.626   1.361  1.4001  2.5864 -1.0816
 2094TIP3   OH227772   5.079   2.310  13.889 -0.0989 -0.1885  0.8700
 2094TIP3    H127773   5.066   2.404  13.877 -3.4247 -0.9005 -3.8965
 2094TIP3    H227774   5.023   2.287  13.963 -3.0593  1.1071 -0.8256
 2095TIP3   OH227775   2.755   0.445  15.468  0.6182  0.1014  0.1015
 2095TIP3    H127776   2.717   0.443  15.555  1.1416 -0.5414  0.3238
 2095TIP3    H227777   2.795   0.359  15.457  2.0364  0.7529 -0.1009
 2096TIP3   OH227778   5.153   5.834  10.746  0.0860  0.0879  0.5922
 2096TIP3    H127779   5.136   5.845  10.652  2.6409 -1.6323 -0.1759
 2096TIP3    H227780   5.134   5.742  10.763 -0.9433  0.5279  1.9538
 2097TIP3   OH227781   3.708   3.739  16.663  0.3112 -0.1081  0.0265
 2097TIP3    H127782   3.780   3.706  16.716 -1.0274 -1.8918  0.8320
 2097TIP3    H227783   3.694   3.671  16.597 -1.2054 -0.2413  0.4520
 2098TIP3   OH227784   4.124   5.979   5.300 -0.0484  0.0703 -0.3569
 2098TIP3    H127785   4.055   6.003   5.362  0.5887  0.1758  0.3340
 2098TIP3    H227786   4.191   6.046   5.313 -0.2083  0.5229 -1.7036
 2099TIP3   OH227787   0.542   0.868  17.313  0.2000  0.1399  0.1685
 2099TIP3    H127788   0.528   0.948  17.263 -1.3833 -0.1621  0.0709
 2099TIP3    H227789   0.558   0.800  17.247  0.6061  0.1998  0.2046
 2100TIP3   OH227790   3.172   5.492  14.610 -0.2620  0.2772  0.5585
 2100TIP3    H127791   3.104   5.483  14.544  1.5027 -1.9708 -1.1298
 2100TIP3    H227792   3.191   5.585  14.613 -2.5934  0.8191  0.3082
 2101TIP3   OH227793   5.634   6.006   2.618 -0.2082  0.2263  0.6436
 2101TIP3    H127794   5.551   5.993   2.663  0.2912 -1.3671  1.1795
 2101TIP3    H227795   5.610   6.041   2.532 -1.6453 -2.1450 -0.0069
 2102TIP3   OH227796   6.549   2.977   1.101 -0.0408 -0.0032 -0.0994
 2102TIP3    H127797   6.638   3.008   1.116  0.4648 -0.1772 -2.3674
 2102TIP3    H227798   6.495   3.029   1.161  1.6275 -0.4665  1.8956
 2103TIP3   OH227799   3.571   5.571   3.828 -0.0503  0.0605  0.3053
 2103TIP3    H127800   3.587   5.480   3.850  0.9728  0.6449  2.2275
 2103TIP3    H227801   3.635   5.592   3.761 -0.0264 -0.5235  0.1475
 2104TIP3   OH227802   6.828   6.608  16.180  0.8463 -0.2126  0.3410
 2104TIP3    H127803   6.845   6.555  16.257 -1.2290 -2.1914 -0.4346
 2104TIP3    H227804   6.737   6.588  16.157  0.0934  3.3167 -0.3552
 2105TIP3   OH227805   0.377   4.391   2.059 -0.2083 -0.0689  0.3215
 2105TIP3    H127806   0.467   4.419   2.076 -0.0043 -0.3327 -0.2829
 2105TIP3    H227807   0.329   4.472   2.043  1.1807  0.1025 -5.4279
 2106TIP3   OH227808   6.710   6.577  12.543  0.4042 -0.1336  0.1718
 2106TIP3    H127809   6.762   6.640  12.593 -1.2137  0.7936  0.7526
 2106TIP3    H227810   6.631   6.564  12.596 -0.2854 -0.9519 -1.0194
 2107TIP3   OH227811   4.959   3.248  15.315 -0.3178  0.0539  0.5864
 2107TIP3    H127812   5.017   3.185  15.358 -0.7794 -0.5139  0.3899
 2107TIP3    H227813   4.989   3.334  15.345  0.9197 -0.2036  0.1423
 2108TIP3   OH227814   3.006   0.817   2.202 -0.1026 -0.2230  0.7232
 2108TIP3    H127815   2.971   0.848   2.119 -0.8165 -2.0575  0.2907
 2108TIP3    H227816   3.049   0.893   2.240  0.4684  0.6025 -1.4290
 2109TIP3   OH227817   4.966   1.646   2.120  1.0575 -0.1651 -0.5153
 2109TIP3    H127818   4.990   1.645   2.028 -0.1245  0.3380 -0.8501
 2109TIP3    H227819   5.039   1.690   2.164  0.8272  1.2264 -1.4675
 2110TIP3   OH227820   2.357   1.957  11.969 -0.1447  0.4150 -0.1716
 2110TIP3    H127821   2.442   1.957  12.012  0.8270  0.6840 -1.9585
 2110TIP3    H227822   2.297   1.917  12.031  1.3512 -0.0234  1.0206
 2111TIP3   OH227823   6.412   4.869  14.959  0.2271 -0.5437 -0.3889
 2111TIP3    H127824   6.487   4.924  14.982 -0.5729  1.0083 -1.2975
 2111TIP3    H227825   6.415   4.797  15.022  2.9417 -0.9987 -0.9167
 2112TIP3   OH227826   6.467   3.463  12.248 -0.3003  0.0036  0.6438
 2112TIP3    H127827   6.539   3.478  12.187 -1.3946  0.6256 -0.5443
 2112TIP3    H227828   6.472   3.535  12.310  0.2905 -0.1461  0.7789
 2113TIP3   OH227829   0.129   6.078  16.828  0.1304 -0.3860 -0.0595
 2113TIP3    H127830   0.109   6.164  16.866  2.1362  0.4117 -0.6706
 2113TIP3    H227831   0.112   6.089  16.734  5.4700  1.3092 -1.2116
 2114TIP3   OH227832   1.999   0.196  13.668  0.3906  0.0781  0.0101
 2114TIP3    H127833   1.906   0.176  13.661  0.2798  0.1954  0.9646
 2114TIP3    H227834   2.019   0.244  13.587  0.7769 -4.0193 -2.6082
 2115TIP3   OH227835   5.812   3.678  14.990  0.1694 -0.2731  0.9254
 2115TIP3    H127836   5.797   3.639  14.904 -0.3496 -1.6116  1.5959
 2115TIP3    H227837   5.856   3.761  14.971  1.2433 -1.1399 -0.5489
 2116TIP3   OH227838   5.184   3.575  10.611 -0.1447 -0.0718 -0.6244
 2116TIP3    H127839   5.154   3.498  10.659 -0.1977 -0.6870 -1.6066
 2116TIP3    H227840   5.279   3.562  10.603 -0.3613 -0.9492 -2.2804
 2117TIP3   OH227841   3.937   1.527  13.441  0.1334 -1.0466  0.3421
 2117TIP3    H127842   3.932   1.577  13.360  2.8954  1.0475  1.2835
 2117TIP3    H227843   3.901   1.585  13.508  1.2460 -1.2109  1.1199
 2118TIP3   OH227844   5.646   5.347   2.795  0.5240  0.1144  0.3426
 2118TIP3    H127845   5.740   5.367   2.796  0.2690  1.4718 -0.3304
 2118TIP3    H227846   5.634   5.289   2.720  0.4850  1.9888 -1.1694
 2119TIP3   OH227847   0.807   1.062  15.374 -0.1429  0.4888  0.2835
 2119TIP3    H127848   0.870   0.990  15.382  0.6001  1.1576  0.4921
 2119TIP3    H227849   0.746   1.048  15.446 -1.6443 -1.4909 -1.2220
 2120TIP3   OH227850   0.180   6.275  13.817  0.0507 -0.2044 -0.2820
 2120TIP3    H127851   0.127   6.210  13.863 -0.8770  1.2475  0.7811
 2120TIP3    H227852   0.117   6.330  13.771  0.8386 -0.1976 -1.3880
 2121TIP3   OH227853   2.126   5.310  11.245 -0.6619 -0.0442  0.3910
 2121TIP3    H127854   2.058   5.321  11.310 -0.1759  0.7129  0.7876
 2121TIP3    H227855   2.130   5.215  11.229  0.5128 -0.4835  2.8770
 2122TIP3   OH227856   6.127   6.111  17.210 -0.2916  0.2280 -0.0636
 2122TIP3    H127857   6.126   6.020  17.180 -0.3060  0.0348  0.4942
 2122TIP3    H227858   6.169   6.107  17.297 -0.1343  0.7771 -0.1087
 2123TIP3   OH227859   6.596   3.764  15.017  0.0755  0.3817 -0.1417
 2123TIP3    H127860   6.609   3.760  14.922  0.6108 -1.0238 -0.0325
 2123TIP3    H227861   6.502   3.773  15.028 -0.0010  0.4686 -0.8087
 2124TIP3   OH227862   2.545   5.865  12.495  0.2481  0.4250 -0.1901
 2124TIP3    H127863   2.453   5.842  12.511  0.5629 -1.8602 -1.1976
 2124TIP3    H227864   2.586   5.862  12.582 -0.7272  2.1938  0.3702
 2125TIP3   OH227865   5.566   3.772   5.392  0.5831 -0.2484 -0.2570
 2125TIP3    H127866   5.652   3.759   5.432  1.3111  1.6508 -1.0717
 2125TIP3    H227867   5.556   3.867   5.386 -1.3475 -0.4295 -0.6823
 2126TIP3   OH227868   1.945   3.762  12.480  0.7104 -0.3040  0.0321
 2126TIP3    H127869   1.950   3.668  12.495  0.8306  0.0274  2.4394
 2126TIP3    H227870   2.006   3.779  12.408  0.9858 -1.9965 -0.1580
 2127TIP3   OH227871   5.107   0.802  10.856  0.1967  0.0767  0.0725
 2127TIP3    H127872   5.026   0.847  10.880 -1.9261 -3.9415  1.4393
 2127TIP3    H227873   5.087   0.762  10.771  2.0957  1.7460 -1.2439
 2128TIP3   OH227874   0.362   2.160  10.820 -0.2494 -0.2428  0.3390
 2128TIP3    H127875   0.432   2.215  10.784 -2.6786  2.7627 -0.2954
 2128TIP3    H227876   0.382   2.153  10.913  0.2543  1.7119  0.4280
 2129TIP3   OH227877   1.539   2.822   1.893  0.4013 -0.1340  0.4256
 2129TIP3    H127878   1.489   2.893   1.854  0.9639  0.8356  1.4259
 2129TIP3    H227879   1.557   2.763   1.820  0.8854  1.3061 -0.6655
 2130TIP3   OH227880   1.853   1.990  11.801  0.1210  0.2274 -0.1844
 2130TIP3    H127881   1.921   2.024  11.742  1.8829 -0.5466  1.2799
 2130TIP3    H227882   1.898   1.979  11.885 -1.9267 -0.0443  0.9424
 2131TIP3   OH227883   3.664   1.555   2.313  0.4910  0.5215  0.2438
 2131TIP3    H127884   3.643   1.466   2.284  1.4115  0.2691  0.3194
 2131TIP3    H227885   3.579   1.600   2.316  0.1362 -0.0385 -0.8430
 2132TIP3   OH227886   1.032   6.407  10.851  0.0023  0.0268  0.3844
 2132TIP3    H127887   1.088   6.484  10.843  0.5396 -0.1146  2.2851
 2132TIP3    H227888   0.963   6.434  10.913 -0.8384 -0.4673 -0.3133
 2133TIP3   OH227889   4.681   6.795  14.766  0.3337  0.3265 -0.1598
 2133TIP3    H127890   4.674   6.700  14.754 -2.6334  0.5714 -1.0500
 2133TIP3    H227891   4.602   6.830  14.725  1.5332  3.2425 -0.1523
 2134TIP3   OH227892   5.675   4.138   1.668  0.1710  0.4378 -0.3958
 2134TIP3    H127893   5.589   4.114   1.633  0.5150  1.5315 -2.1676
 2134TIP3    H227894   5.737   4.094   1.610  0.7848  1.6083 -0.6496
 2135TIP3   OH227895   5.131   0.257   4.370  0.0739  0.4861 -0.0666
 2135TIP3    H127896   5.224   0.276   4.360  0.2515 -1.0762 -2.3577
 2135TIP3    H227897   5.129   0.166   4.401 -0.6874  0.6817  0.4730
 2136TIP3   OH227898   5.560   0.506   4.878 -0.7249  0.3964  0.0966
 2136TIP3    H127899   5.470   0.476   4.872 -1.2803  0.8768  3.6610
 2136TIP3    H227900   5.554   0.601   4.879 -0.3051  0.4285  1.0960
 2137TIP3   OH227901   2.316   0.677   2.223 -0.1550 -0.2548 -0.1015
 2137TIP3    H127902   2.239   0.622   2.237 -1.6102  1.4390 -0.9935
 2137TIP3    H227903   2.351   0.693   2.310  0.5299 -2.7893  0.1711
 2138TIP3   OH227904   4.476   3.913  16.204 -0.4793 -0.0362 -0.0099
 2138TIP3    H127905   4.442   3.962  16.279  0.7615 -0.2515  0.7231
 2138TIP3    H227906   4.404   3.856  16.177 -1.1657  0.5337  0.5840
 2139TIP3   OH227907   3.789   1.565   2.575  0.4621 -0.1567  0.1308
 2139TIP3    H127908   3.768   1.576   2.482  3.0254  1.0290 -0.4009
 2139TIP3    H227909   3.805   1.470   2.584 -0.5141 -0.3880 -0.4450
 2140TIP3   OH227910   0.346   6.418  16.116 -0.0358  0.2529 -0.0586
 2140TIP3    H127911   0.395   6.359  16.173 -0.7608 -1.0325 -0.7155
 2140TIP3    H227912   0.397   6.421  16.035  0.0315  0.5992 -0.0062
 2141TIP3   OH227913   6.260   2.240   1.844 -0.1834 -0.1484  0.6901
 2141TIP3    H127914   6.271   2.241   1.749 -0.9300  0.0729  0.6059
 2141TIP3    H227915   6.195   2.308   1.862 -0.8826 -0.9472  1.2512
 2142TIP3   OH227916   4.790   2.887   3.622 -0.2633  0.2897  0.3209
 2142TIP3    H127917   4.704   2.925   3.600 -0.1188  0.7224  0.5020
 2142TIP3    H227918   4.770   2.820   3.687 -0.6415 -0.6478 -0.7277
 2143TIP3   OH227919   0.945   0.884  12.352 -0.2009 -0.5422 -0.2985
 2143TIP3    H127920   0.892   0.882  12.272  1.0162 -1.7925 -1.1376
 2143TIP3    H227921   0.907   0.954  12.404 -1.7127 -0.3951 -1.5032
 2144TIP3   OH227922   6.660   4.137  14.930  0.4515 -0.5069 -0.1854
 2144TIP3    H127923   6.568   4.112  14.941  0.5020 -0.7896 -0.4017
 2144TIP3    H227924   6.688   4.163  15.018  0.3381 -1.0209  0.0081
 2145TIP3   OH227925   1.117   3.505   3.608 -0.0161 -0.1090 -0.0742
 2145TIP3    H127926   1.149   3.463   3.688  1.2301 -1.2634 -1.1293
 2145TIP3    H227927   1.022   3.507   3.619  0.1683  0.7016  1.8528
 2146TIP3   OH227928   2.512   5.594  14.696 -0.0353  0.6919  0.2176
 2146TIP3    H127929   2.454   5.602  14.621  0.6387  1.7526 -0.2234
 2146TIP3    H227930   2.478   5.658  14.759 -0.6834 -0.2956  0.8789
 2147TIP3   OH227931   2.496   1.475  16.827  0.3149 -0.2191  0.4880
 2147TIP3    H127932   2.438   1.484  16.902  0.7567  0.8958  0.7149
 2147TIP3    H227933   2.437   1.463  16.753 -0.2725  1.4263  0.6382
 2148TIP3   OH227934   0.030   5.277  10.899 -0.0819 -0.3832  0.3335
 2148TIP3    H127935   0.051   5.191  10.863 -1.1587 -0.4232 -0.2432
 2148TIP3    H227936  -0.040   5.260  10.962 -2.5549  0.3599 -2.0194
 2149TIP3   OH227937   3.550   0.939  12.618  0.1497 -0.5361 -0.0848
 2149TIP3    H127938   3.560   0.922  12.525 -0.6944  1.3119 -0.5711
 2149TIP3    H227939   3.491   0.871  12.650 -0.5003 -0.5045 -1.1674
 2150TIP3   OH227940   6.022   2.415  15.250  0.1727 -0.8470 -0.0856
 2150TIP3    H127941   6.081   2.388  15.179  0.6692 -1.1917  0.4391
 2150TIP3    H227942   5.935   2.390  15.220 -0.0493  1.6209 -1.8420
 2151TIP3   OH227943   6.372   6.131  13.942  0.6478 -0.3446  0.3550
 2151TIP3    H127944   6.325   6.069  13.887  1.4175 -0.3242 -0.3467
 2151TIP3    H227945   6.305   6.192  13.973  0.2568 -0.1680 -0.8121
 2152TIP3   OH227946   0.430   5.333  16.811  0.5873 -0.0011 -0.0608
 2152TIP3    H127947   0.452   5.267  16.745  1.0587  0.7890 -0.7164
 2152TIP3    H227948   0.337   5.352  16.797  0.8325  0.6199 -0.9369
 2153TIP3   OH227949   4.355   6.402   0.457 -0.2067  0.3041  0.0757
 2153TIP3    H127950   4.367   6.445   0.373 -1.2040  0.9792  0.2692
 2153TIP3    H227951   4.322   6.470   0.515  1.9041  0.2622  1.4603
 2154TIP3   OH227952   0.482   1.905   5.479 -0.2262 -0.2584 -0.2347
 2154TIP3    H127953   0.521   1.819   5.487 -1.3870 -0.7775  0.1165
 2154TIP3    H227954   0.396   1.896   5.520  0.6558  1.7987  2.3270
 2155TIP3   OH227955   0.509   3.427  12.218  0.0201 -0.0099 -0.2011
 2155TIP3    H127956   0.474   3.493  12.158 -0.1562  0.0741 -0.0052
 2155TIP3    H227957   0.600   3.455  12.233 -0.1822  0.4345  0.2236
 2156TIP3   OH227958   4.059   6.081  12.513 -0.2202 -0.4320 -0.0244
 2156TIP3    H127959   4.137   6.037  12.477  0.5278 -0.2985  1.3623
 2156TIP3    H227960   4.065   6.170  12.479  1.7058  0.3406  2.0654
 2157TIP3   OH227961   2.232   5.662  13.533  0.7167 -0.0182 -0.6862
 2157TIP3    H127962   2.304   5.600  13.527  1.5874  0.8651  0.2594
 2157TIP3    H227963   2.218   5.691  13.442 -0.5655 -2.4778 -1.3513
 2158TIP3   OH227964   1.923   2.995  12.994  0.1562 -0.0234 -0.1668
 2158TIP3    H127965   1.920   3.062  13.062 -2.4738  0.7336 -0.9095
 2158TIP3    H227966   1.978   3.033  12.926 -2.6707  2.3480 -1.3591
 2159TIP3   OH227967   6.228   3.223   5.966 -0.1041 -0.3370  0.1690
 2159TIP3    H127968   6.307   3.169   5.957 -0.0570 -0.1938 -0.2596
 2159TIP3    H227969   6.226   3.246   6.059  1.3784  1.2061 -0.1409
 2160TIP3   OH227970   3.975   1.878   5.576  0.8426  0.9390  0.2613
 2160TIP3    H127971   4.020   1.794   5.569 -0.3068  0.3491 -0.4102
 2160TIP3    H227972   4.039   1.942   5.546  1.6736  0.2901  0.5849
 2161TIP3   OH227973   0.256   1.552  12.087  0.0834  0.3456 -0.3717
 2161TIP3    H127974   0.172   1.597  12.079  0.2479  0.8163  0.4273
 2161TIP3    H227975   0.319   1.622  12.103  0.4347 -0.1077  0.2620
 2162TIP3   OH227976   5.744   3.106  14.310 -0.1312  0.5914  0.6223
 2162TIP3    H127977   5.707   3.022  14.284  1.9425  0.0433 -0.7604
 2162TIP3    H227978   5.776   3.144  14.228  1.5535  1.3987  1.6137
 2163TIP3   OH227979   3.421   5.575  16.864  0.1123 -0.1943  0.8021
 2163TIP3    H127980   3.382   5.512  16.925 -0.1125 -0.0463  0.8144
 2163TIP3    H227981   3.348   5.634  16.841  0.3270  0.0824  0.8195
 2164TIP3   OH227982   4.464   4.593   0.772  0.0853  0.1746 -0.2769
 2164TIP3    H127983   4.494   4.528   0.709 -0.8695 -0.2763 -0.2871
 2164TIP3    H227984   4.387   4.554   0.813  0.5886  0.5199  1.0700
 2165TIP3   OH227985   0.675   6.819  11.110 -0.2485  0.2686  0.6237
 2165TIP3    H127986   0.672   6.763  11.033 -0.9884  1.0868  0.0465
 2165TIP3    H227987   0.586   6.853  11.120 -0.3195 -0.2576  2.1789
 2166TIP3   OH227988   5.359   1.442  10.822 -0.8464 -0.0098 -0.1545
 2166TIP3    H127989   5.400   1.528  10.809 -0.1572 -0.2317  0.4990
 2166TIP3    H227990   5.405   1.385  10.760  0.2024 -0.3642  0.9124
 2167TIP3   OH227991   5.848   5.996   0.225 -0.1873  0.0148 -0.3170
 2167TIP3    H127992   5.877   6.084   0.248  4.7940 -1.3652  0.0426
 2167TIP3    H227993   5.864   5.990   0.130 -3.8511  0.4047 -1.0729
 2168TIP3   OH227994   2.919   5.695   3.378  0.3287  0.2402 -0.6992
 2168TIP3    H127995   2.892   5.750   3.452  0.7951 -0.9112  0.3683
 2168TIP3    H227996   2.946   5.613   3.419  1.6380 -0.0415 -2.0691
 2169TIP3   OH227997   1.920   4.182   1.333 -0.3786  0.2079 -0.4209
 2169TIP3    H127998   1.858   4.204   1.263  1.1142  0.9454 -1.5886
 2169TIP3    H227999   1.918   4.258   1.391 -0.0151  0.5993 -0.9030
 2170TIP3   OH228000   0.749   4.410  13.243  0.5708 -0.2196 -0.0945
 2170TIP3    H128001   0.705   4.434  13.324  0.4673 -0.9524  0.0726
 2170TIP3    H228002   0.842   4.420  13.263  0.5081  2.4312 -0.7945
 2171TIP3   OH228003   3.813   1.671  14.630 -0.2789  0.3235 -0.4427
 2171TIP3    H128004   3.738   1.709  14.584  0.4140  0.6679 -1.3030
 2171TIP3    H228005   3.843   1.740  14.689 -0.5962  0.2053 -0.1396
 2172TIP3   OH228006   4.216   3.989  15.643  0.8806  0.4939 -0.3429
 2172TIP3    H128007   4.264   3.906  15.631 -0.4188 -0.6693  1.8240
 2172TIP3    H228008   4.124   3.962  15.649  0.3790  2.1817 -0.1449
 2173TIP3   OH228009   3.599   4.535   5.514 -0.0444  0.1176  0.2270
 2173TIP3    H128010   3.605   4.602   5.582  1.1398  0.3657 -0.1009
 2173TIP3    H228011   3.508   4.539   5.484  0.4217  2.8745 -1.0638
 2174TIP3   OH228012   2.482   3.165   3.759 -0.6375  0.3577  0.0529
 2174TIP3    H128013   2.495   3.250   3.718 -1.7201 -0.0708 -1.2528
 2174TIP3    H228014   2.465   3.185   3.851 -0.2188  1.4899 -0.0996
 2175TIP3   OH228015   3.756   4.873  16.217 -0.2213 -0.3629 -0.1101
 2175TIP3    H128016   3.692   4.803  16.214  1.7400 -2.2445 -1.8834
 2175TIP3    H228017   3.789   4.871  16.307 -0.4783 -1.4834 -0.0201
 2176TIP3   OH228018   1.722   4.163   0.099 -0.3416 -0.0132  0.3702
 2176TIP3    H128019   1.805   4.121   0.075 -0.0521  0.6156  0.2496
 2176TIP3    H228020   1.725   4.168   0.194 -0.4037 -0.3086  0.3907
 2177TIP3   OH228021   5.326   4.633   1.394  0.3506 -0.0950  0.3031
 2177TIP3    H128022   5.323   4.672   1.306  1.7130 -0.8894 -0.1285
 2177TIP3    H228023   5.419   4.622   1.412  0.0978  0.3510  2.0016
 2178TIP3   OH228024   3.263   0.420  15.297 -0.2092 -0.3469 -0.8093
 2178TIP3    H128025   3.317   0.382  15.367  0.9610 -0.4941 -1.7601
 2178TIP3    H228026   3.197   0.354  15.279 -1.3014  0.1793  0.9577
 2179TIP3   OH228027   3.977   4.814   1.830  0.2350  0.0484 -0.5213
 2179TIP3    H128028   3.903   4.843   1.776 -0.6855  1.3440  1.3003
 2179TIP3    H228029   4.030   4.893   1.841 -0.0358  0.0401  1.0630
 2180TIP3   OH228030   2.054   3.552  16.119  0.6083  0.0461 -0.2470
 2180TIP3    H128031   2.001   3.539  16.197  1.8461  1.5059  0.8990
 2180TIP3    H228032   2.135   3.505  16.136  1.1102  0.8431 -0.3993
 2181TIP3   OH228033   6.316   1.084   2.079 -0.1446 -0.0253  0.8687
 2181TIP3    H128034   6.350   1.069   2.167 -1.1371 -1.5026  1.0396
 2181TIP3    H228035   6.360   1.019   2.025 -0.4009  0.1127  0.4889
 2182TIP3   OH228036   4.789   1.182  11.317 -0.5892 -0.0528 -0.3227
 2182TIP3    H128037   4.795   1.175  11.222 -2.2315  1.3299 -0.5827
 2182TIP3    H228038   4.867   1.232  11.342 -0.3961 -0.0012 -0.9969
 2183TIP3   OH228039   5.819   3.714   5.195  0.3631  0.5075 -0.4222
 2183TIP3    H128040   5.735   3.708   5.150  0.1390  2.1299 -0.3014
 2183TIP3    H228041   5.819   3.641   5.256 -1.2861  0.8811  0.0745
 2184TIP3   OH228042   2.107   1.711  16.504  0.4878  0.4091 -0.1520
 2184TIP3    H128043   2.076   1.773  16.438 -2.2123  1.1087  1.5790
 2184TIP3    H228044   2.135   1.766  16.578 -0.5312 -0.3236  0.8308
 2185TIP3   OH228045   4.718   2.874   2.357 -0.2888 -0.3760 -0.0558
 2185TIP3    H128046   4.631   2.894   2.322 -0.7828 -0.7310  0.9483
 2185TIP3    H228047   4.771   2.855   2.279 -1.1890 -0.4852 -0.6568
 2186TIP3   OH228048   6.430   2.247   4.461  0.1703  0.5706 -0.4926
 2186TIP3    H128049   6.467   2.326   4.500 -0.3105  1.3301 -1.5373
 2186TIP3    H228050   6.369   2.279   4.394 -0.1051 -0.6811 -0.8665
 2187TIP3   OH228051   1.392   5.121   0.659 -0.1357  0.7301  0.1486
 2187TIP3    H128052   1.313   5.168   0.634 -1.3105 -1.1967  0.0852
 2187TIP3    H228053   1.368   5.029   0.654  2.2822  0.0575 -0.4294
 2188TIP3   OH228054   5.600   2.423  14.048 -0.0216 -0.1125  0.1726
 2188TIP3    H128055   5.557   2.470  14.120  1.4075  0.0078  0.9856
 2188TIP3    H228056   5.552   2.340  14.041  1.4874 -1.3810  3.1881
 2189TIP3   OH228057   6.002   0.054   0.853  0.5146  0.4522 -0.7006
 2189TIP3    H128058   5.926   0.025   0.802  0.2900  0.6465 -0.4792
 2189TIP3    H228059   6.076   0.011   0.811  0.0410 -1.8425  0.6247
 2190TIP3   OH228060   6.744   4.916   0.903 -0.5896  0.7331  0.6159
 2190TIP3    H128061   6.800   4.931   0.979  2.8284 -0.2235 -1.4649
 2190TIP3    H228062   6.770   4.830   0.870 -1.1803  1.4898 -2.1476
 2191TIP3   OH228063   6.000   6.390  14.287  0.7711  0.6955  0.2581
 2191TIP3    H128064   6.010   6.460  14.222  0.5653 -0.3900 -0.9907
 2191TIP3    H228065   6.035   6.312  14.244  2.2577  0.2681  2.1277
 2192TIP3   OH228066   0.382   3.344  11.280 -0.5506  0.1124  0.7018
 2192TIP3    H128067   0.371   3.422  11.226  0.2014 -0.0572  0.2838
 2192TIP3    H228068   0.463   3.359  11.328  0.5342 -1.1136 -0.6431
 2193TIP3   OH228069   0.132   0.814  11.269 -0.2177  0.1321 -0.2174
 2193TIP3    H128070   0.068   0.838  11.202  0.4069  0.4747 -0.7133
 2193TIP3    H228071   0.182   0.895  11.283 -1.1233  0.4260  1.5771
 2194TIP3   OH228072   0.213   3.795   4.759 -0.1993  0.1649 -0.1994
 2194TIP3    H128073   0.120   3.804   4.778 -0.4451  0.8085 -1.5802
 2194TIP3    H228074   0.216   3.769   4.667  1.0250  1.8260 -0.6597
 2195TIP3   OH228075   2.634   6.398  12.213  0.5165 -0.4351 -0.1775
 2195TIP3    H128076   2.648   6.444  12.130 -2.1407 -1.2625 -1.1928
 2195TIP3    H228077   2.656   6.307  12.194  2.1038 -0.2694  0.7316
 2196TIP3   OH228078   2.264   3.337   3.331  0.4079 -0.3943  0.1077
 2196TIP3    H128079   2.178   3.360   3.367  1.2884  2.5854  0.5212
 2196TIP3    H228080   2.246   3.310   3.241 -1.0622 -1.1869  0.5939
 2197TIP3   OH228081   4.726   0.223   2.114 -0.2575  0.0540 -0.1603
 2197TIP3    H128082   4.683   0.276   2.180 -1.7733 -1.5463  0.2171
 2197TIP3    H228083   4.657   0.165   2.081  0.8971 -0.4603 -1.8200
 2198TIP3   OH228084   2.101   4.734   0.986  0.7462  0.2380  0.1166
 2198TIP3    H128085   2.077   4.796   0.918 -2.0564  0.2530  0.9862
 2198TIP3    H228086   2.099   4.649   0.943 -2.0082  0.1367  0.2745
 2199TIP3   OH228087   6.491   2.632  12.479 -0.3970 -0.0565 -0.1052
 2199TIP3    H128088   6.582   2.625  12.451 -0.3115  0.8959 -0.1066
 2199TIP3    H228089   6.495   2.682  12.560 -0.7776 -1.5300  0.8517
 2200TIP3   OH228090   4.196   5.728   3.629  0.2205 -0.2373  0.4383
 2200TIP3    H128091   4.220   5.723   3.536 -1.9327 -0.7514 -0.1301
 2200TIP3    H228092   4.179   5.821   3.644  1.1348 -0.0679  0.4910
 2201TIP3   OH228093   2.995   6.470   1.123 -0.1486  0.1693 -0.6168
 2201TIP3    H128094   2.946   6.511   1.052 -0.4280  0.1525 -0.4324
 2201TIP3    H228095   3.005   6.539   1.188  0.3278  0.2587 -0.7770
 2202TIP3   OH228096   0.247   1.833   2.898  0.0050  1.0182  0.6186
 2202TIP3    H128097   0.183   1.768   2.870 -1.3560  1.6037  2.1931
 2202TIP3    H228098   0.328   1.783   2.911 -0.5254 -0.0147  0.0717
 2203TIP3   OH228099   3.265   6.179  15.848 -0.2810  0.3824 -0.1320
 2203TIP3    H128100   3.274   6.192  15.754  0.4564  2.2290  0.1358
 2203TIP3    H228101   3.181   6.136  15.859 -0.4645  0.3114 -1.6265
 2204TIP3   OH228102   1.687   2.113   5.095  0.0479 -0.4920  0.1995
 2204TIP3    H128103   1.597   2.112   5.062  0.2093 -0.1074 -0.2694
 2204TIP3    H228104   1.678   2.122   5.189 -0.4037  2.3177 -0.0275
 2205TIP3   OH228105   3.135   1.237   4.463  0.3189 -0.7059  0.5432
 2205TIP3    H128106   3.085   1.158   4.483 -1.2949  0.0950 -0.1396
 2205TIP3    H228107   3.226   1.208   4.459 -0.3877 -2.9332 -1.5887
 2206TIP3   OH228108   4.386   1.581   3.295 -0.1927 -0.0537 -0.1896
 2206TIP3    H128109   4.364   1.581   3.202 -0.7387  0.4984 -0.0675
 2206TIP3    H228110   4.320   1.638   3.335  1.0481  1.0843  0.2889
 2207TIP3   OH228111   3.896   5.525  16.394  0.1448  0.2579 -0.0230
 2207TIP3    H128112   3.929   5.549  16.481  0.9317 -2.0898  0.3861
 2207TIP3    H228113   3.801   5.518  16.406  0.2508 -0.0639  0.6524
 2208TIP3   OH228114   2.963   5.752   4.086  0.1525  0.4546 -0.6089
 2208TIP3    H128115   2.872   5.776   4.101 -0.2516 -0.7616 -0.9969
 2208TIP3    H228116   2.994   5.722   4.171 -0.2345 -0.4393 -0.7747
 2209TIP3   OH228117   1.299   6.204   2.839  0.0445 -0.4516 -0.3845
 2209TIP3    H128118   1.233   6.262   2.877  0.4750 -0.2297  0.0434
 2209TIP3    H228119   1.380   6.228   2.883  0.5505 -0.2478 -1.4070
 2210TIP3   OH228120   2.401   1.098  13.023 -0.5862  0.4020 -0.3001
 2210TIP3    H128121   2.486   1.058  13.007 -0.7404  0.2198 -0.6735
 2210TIP3    H228122   2.339   1.025  13.022 -0.8155  0.5943 -0.5857
 2211TIP3   OH228123   0.327   6.795   2.070  0.2115 -0.0168  1.1004
 2211TIP3    H128124   0.349   6.709   2.034  1.1888  0.3966  0.6883
 2211TIP3    H228125   0.280   6.839   2.000  0.7316  0.2040  0.8822
 2212TIP3   OH228126   3.908   3.360   5.617 -0.5222  0.0883 -0.4609
 2212TIP3    H128127   3.889   3.447   5.652 -0.0571 -0.2828  0.8087
 2212TIP3    H228128   3.918   3.373   5.523 -1.1153  1.2837 -0.3798
 2213TIP3   OH228129   0.807   0.503   1.070  0.2949  0.5928  0.2889
 2213TIP3    H128130   0.841   0.509   0.981  0.6229 -1.5226  0.2033
 2213TIP3    H228131   0.719   0.539   1.066  0.5364  1.0966 -0.7409
 2214TIP3   OH228132   0.391   1.734   3.621 -0.0665  0.0800 -0.3433
 2214TIP3    H128133   0.433   1.791   3.557 -0.8955  0.9417 -0.1413
 2214TIP3    H228134   0.386   1.787   3.701  1.6117 -1.2101  0.7137
 2215TIP3   OH228135   0.442   6.702   2.868 -0.3533 -0.3050 -0.4835
 2215TIP3    H128136   0.420   6.730   2.957 -1.3127  1.5760 -1.2481
 2215TIP3    H228137   0.538   6.701   2.866 -0.3054  1.1070  0.1702
 2216TIP3   OH228138   5.539   2.345  13.345 -0.4665 -0.7528 -0.1619
 2216TIP3    H128139   5.543   2.327  13.251  0.5370  2.2522 -0.8136
 2216TIP3    H228140   5.625   2.322  13.378 -0.5452 -1.0182 -0.1405
 2217TIP3   OH228141   5.503   4.839   4.828 -0.3148 -0.9242  0.4496
 2217TIP3    H128142   5.481   4.897   4.901 -2.9768 -1.4815  0.1815
 2217TIP3    H228143   5.592   4.864   4.804 -0.5956  1.5926  1.6935
 2218TIP3   OH228144   3.625   5.884   4.928 -0.0741  0.1484 -0.2771
 2218TIP3    H128145   3.645   5.954   4.990  1.3566 -0.3742 -0.1297
 2218TIP3    H228146   3.703   5.876   4.874 -1.0983  0.2468 -1.8394
 2219TIP3   OH228147   4.950   1.555   4.494  0.4651  0.0631  0.2147
 2219TIP3    H128148   5.000   1.576   4.573 -0.8044 -1.1584  1.3915
 2219TIP3    H228149   4.868   1.602   4.504  0.9609  1.3045 -1.2562
 2220TIP3   OH228150   3.824   0.624  11.101  0.3657 -0.1392  0.3813
 2220TIP3    H128151   3.832   0.615  11.196 -0.0513  1.0559  0.5532
 2220TIP3    H228152   3.837   0.717  11.085 -1.0789 -0.0713 -0.5629
 2221TIP3   OH228153   6.807   6.379   4.426 -0.3031  0.4423 -0.4113
 2221TIP3    H128154   6.747   6.433   4.374 -0.2164 -0.0108 -0.9961
 2221TIP3    H228155   6.877   6.356   4.365 -0.7323 -0.9610 -0.4093
 2222TIP3   OH228156   4.887   5.032  14.835  0.3909 -0.1654  0.4015
 2222TIP3    H128157   4.874   4.945  14.872 -2.0551 -0.3353 -0.6347
 2222TIP3    H228158   4.939   5.017  14.756  1.5928 -0.4118  1.2260
 2223TIP3   OH228159   6.718   3.210  15.089  0.0914  0.0754  0.3459
 2223TIP3    H128160   6.739   3.120  15.115  1.7092  0.2570 -0.2304
 2223TIP3    H228161   6.772   3.264  15.147 -0.2960  0.6543  0.1695
 2224TIP3   OH228162   0.215   0.683   3.551 -0.2263  0.4561 -0.6366
 2224TIP3    H128163   0.232   0.612   3.613  0.8622 -0.5919 -2.0434
 2224TIP3    H228164   0.219   0.763   3.603 -0.4857 -0.4559  0.8229
 2225TIP3   OH228165   3.921   0.021   2.377  0.6537 -0.0909  0.0131
 2225TIP3    H128166   3.831   0.051   2.359  0.6492  0.4942  0.9669
 2225TIP3    H228167   3.944  -0.031   2.300 -0.8119 -0.9379  0.1110
 2226TIP3   OH228168   5.315   3.413   2.334  0.6159 -0.1333  0.2611
 2226TIP3    H128169   5.297   3.466   2.411  0.2630 -0.0117  0.0986
 2226TIP3    H228170   5.400   3.373   2.351  0.7184  0.2022  0.5404
 2227TIP3   OH228171   0.835   2.875  13.187  0.3870 -0.5407 -0.0842
 2227TIP3    H128172   0.906   2.887  13.125  1.5000 -0.7951  1.1098
 2227TIP3    H228173   0.859   2.928  13.263 -2.2918  2.0825 -0.8659
 2228TIP3   OH228174   2.628   2.980  13.049 -0.2785  0.0468 -0.1900
 2228TIP3    H128175   2.541   2.942  13.043  0.1106 -1.2483  1.4055
 2228TIP3    H228176   2.614   3.067  13.086 -0.9259  0.0063 -0.3349
 2229TIP3   OH228177   5.140   3.422  14.398 -0.1950 -0.4856 -0.4212
 2229TIP3    H128178   5.223   3.428  14.349  0.7454  0.1448  1.1595
 2229TIP3    H228179   5.128   3.328  14.413  0.3053 -0.5774 -0.5663
 2230TIP3   OH228180   0.737   1.037   3.462 -0.3906 -0.3239 -0.1243
 2230TIP3    H128181   0.735   1.121   3.416  1.5910  0.6164  1.3513
 2230TIP3    H228182   0.818   0.995   3.431 -0.2291 -0.6974  0.7805
 2231TIP3   OH228183   0.599   0.800   3.929  0.2868  0.0179  0.3780
 2231TIP3    H128184   0.627   0.827   3.841 -1.8763  0.8868 -0.0973
 2231TIP3    H228185   0.592   0.881   3.978 -1.7668 -0.0588  0.3129
 2232TIP3   OH228186   5.027   1.390  12.797  0.1237 -0.0680 -0.5280
 2232TIP3    H128187   5.063   1.338  12.725 -0.0056 -0.5636 -0.2431
 2232TIP3    H228188   5.033   1.481  12.767  1.2496 -0.1644 -0.6468
 2233TIP3   OH228189   3.775   4.634   5.340 -0.1160  0.0837  0.3279
 2233TIP3    H128190   3.747   4.710   5.391 -1.6656 -0.0732 -0.2384
 2233TIP3    H228191   3.728   4.560   5.380  1.5800 -0.6708  1.0550
 2234TIP3   OH228192   1.287   1.196   5.276 -0.1380 -0.6286  0.2412
 2234TIP3    H128193   1.211   1.141   5.290 -0.6430  0.0203  0.1062
 2234TIP3    H228194   1.274   1.235   5.189 -0.8108  1.2521  1.1297
 2235TIP3   OH228195   3.520   1.494   5.288  0.1953  0.0930  0.0369
 2235TIP3    H128196   3.576   1.417   5.298  0.8485  0.8485  3.4121
 2235TIP3    H228197   3.432   1.458   5.280  0.3424 -1.1456  2.7234
 2236TIP3   OH228198   1.596   3.622   1.233 -0.1124 -0.1219  0.6988
 2236TIP3    H128199   1.682   3.660   1.250  0.1452  0.2405 -1.2786
 2236TIP3    H228200   1.600   3.590   1.143 -2.3791  0.9051  0.1544
 2237TIP3   OH228201   2.605   6.192   1.369  0.0633  0.4460 -0.8313
 2237TIP3    H128202   2.650   6.270   1.336  3.9337 -0.5985  1.2394
 2237TIP3    H228203   2.570   6.219   1.454  0.3992  0.2324 -0.6235
 2238TIP3   OH228204   5.509   5.272  10.902 -0.1342 -0.3567  0.0132
 2238TIP3    H128205   5.455   5.273  10.823 -0.8155 -1.4682  0.4456
 2238TIP3    H228206   5.448   5.261  10.974  0.6618 -2.4778  0.4529
 2239TIP3   OH228207   3.616   0.938   4.550  0.1693  0.2920 -0.5620
 2239TIP3    H128208   3.538   0.901   4.591  1.1268 -1.0759  0.1085
 2239TIP3    H228209   3.677   0.864   4.544  1.3658  1.2943 -1.1870
 2240TIP3   OH228210   0.763   5.811  10.484  0.3303  0.5129  0.1182
 2240TIP3    H128211   0.780   5.761  10.404  0.0363 -0.1190  0.4397
 2240TIP3    H228212   0.827   5.778  10.547 -1.4809 -1.3276  1.0997
 2241TIP3   OH228213   6.481   1.114  12.811  0.0621  0.0697  0.2820
 2241TIP3    H128214   6.438   1.081  12.890 -0.1442  0.4218  0.3153
 2241TIP3    H228215   6.424   1.086  12.739  0.4816 -0.6439  0.2160
 2242TIP3   OH228216   6.051   2.590   3.010  0.2238 -0.0907 -0.1537
 2242TIP3    H128217   6.073   2.620   3.098  1.7288 -2.3425  0.3191
 2242TIP3    H228218   5.958   2.612   2.999 -0.6471 -1.7299  2.9113
 2243TIP3   OH228219   5.311   6.131   0.730 -0.1907  0.0774 -0.4636
 2243TIP3    H128220   5.225   6.163   0.758  0.4474  0.8470  0.6935
 2243TIP3    H228221   5.350   6.096   0.810  1.9054  2.7906 -0.1519
 2244TIP3   OH228222   3.496   3.684   6.875  0.0423 -0.4614 -0.3112
 2244TIP3    H128223   3.452   3.627   6.812  0.6527  0.4489 -1.5929
 2244TIP3    H228224   3.579   3.639   6.893 -0.5347 -1.2048  0.6275
 2245TIP3   OH228225   3.071   0.348   3.144  0.4000  0.3620 -0.3784
 2245TIP3    H128226   3.035   0.287   3.079 -1.2951 -0.0307  0.8530
 2245TIP3    H228227   3.096   0.293   3.218  1.7773  0.8638 -0.4413
 2246TIP3   OH228228   5.071   0.488  11.692  0.3138  0.7077  0.1558
 2246TIP3    H128229   5.022   0.492  11.610  1.0270  3.9612 -0.2607
 2246TIP3    H228230   5.046   0.568  11.739  1.3377 -0.1341  2.2761
 2247TIP3   OH228231   0.243   3.212   4.298  0.1574 -0.2652  0.2827
 2247TIP3    H128232   0.209   3.137   4.249  1.3875 -0.7833  0.1897
 2247TIP3    H228233   0.276   3.173   4.380 -1.1533  0.4774  1.1933
 2248TIP3   OH228234   5.074   5.602   1.604 -0.1228 -0.4844 -0.0299
 2248TIP3    H128235   5.036   5.636   1.523 -1.7610 -0.0581  0.8741
 2248TIP3    H228236   5.134   5.533   1.576 -0.4861 -0.1934 -1.6057
 2249TIP3   OH228237   5.876   6.011  15.059 -0.6306 -0.0610  0.3025
 2249TIP3    H128238   5.915   5.933  15.099 -1.1485 -0.5189 -0.0714
 2249TIP3    H228239   5.878   5.993  14.965 -1.5669 -0.0175  0.2642
 2250TIP3   OH228240   3.487   4.587  11.857  0.3529 -0.3465  0.1461
 2250TIP3    H128241   3.506   4.622  11.944  1.6824 -3.4115  1.2197
 2250TIP3    H228242   3.566   4.604  11.806  0.3496 -0.3309  0.1458
 2251TIP3   OH228243   3.623   5.309   2.496 -0.2923 -0.1286  0.2601
 2251TIP3    H128244   3.565   5.385   2.507 -0.7270 -0.4437  0.1530
 2251TIP3    H228245   3.598   5.271   2.412  0.6563  0.2280 -0.1959
 2252TIP3   OH228246   5.524   4.414   3.703 -0.2482 -0.4934  0.7473
 2252TIP3    H128247   5.557   4.397   3.615 -1.7335  0.6724 -0.0937
 2252TIP3    H228248   5.519   4.328   3.745 -0.6675 -1.2186 -0.7444
 2253TIP3   OH228249   5.504   6.596  15.628  0.1253  0.5599 -0.4376
 2253TIP3    H128250   5.433   6.658  15.644 -0.4589 -0.2153  0.0689
 2253TIP3    H228251   5.580   6.633  15.673 -0.0731  1.1656 -0.5950
 2254TIP3   OH228252   3.614   5.387   4.208  0.3174 -0.0777 -0.0788
 2254TIP3    H128253   3.598   5.335   4.130 -1.2615 -0.3187  0.3720
 2254TIP3    H228254   3.589   5.476   4.184 -0.3148 -0.1795  0.1830
 2255TIP3   OH228255   6.724   2.411  16.883 -0.6035  0.2954 -0.6965
 2255TIP3    H128256   6.747   2.505  16.884 -2.5038  0.8182  1.3431
 2255TIP3    H228257   6.720   2.389  16.790  2.7872  1.4007 -1.2847
 2256TIP3   OH228258   1.703   5.020   0.894  0.3976  0.0108 -0.4631
 2256TIP3    H128259   1.734   5.073   0.820 -0.8425  0.5130 -0.6593
 2256TIP3    H228260   1.774   5.024   0.958  0.9687  0.6227 -1.1160
 2257TIP3   OH228261   3.197   1.246   4.099 -0.0721  0.2493 -0.3401
 2257TIP3    H128262   3.104   1.260   4.081 -0.2813 -0.4857  0.1468
 2257TIP3    H228263   3.204   1.252   4.194  0.0915 -1.3452 -0.2283
 2258TIP3   OH228264   4.506   3.811   3.382  0.0070  0.3335  0.4532
 2258TIP3    H128265   4.472   3.885   3.432 -0.7366  1.4742 -1.6356
 2258TIP3    H228266   4.588   3.843   3.344  0.3634 -0.3789  0.6080
 2259TIP3   OH228267   4.090   5.000   5.516 -0.6530 -0.1891 -0.0021
 2259TIP3    H128268   4.069   4.909   5.495 -0.8549 -0.1080 -0.1553
 2259TIP3    H228269   4.065   5.049   5.437  0.7412 -0.1661 -0.4608
 2260TIP3   OH228270   2.427   1.595   4.670  0.0736 -0.0395  0.9019
 2260TIP3    H128271   2.397   1.685   4.687  0.1513 -0.1178  1.4489
 2260TIP3    H228272   2.351   1.540   4.691 -0.0686 -0.0857  0.2916
 2261TIP3   OH228273   6.096   5.418   6.006  0.0031  0.0169 -0.1902
 2261TIP3    H128274   6.167   5.442   6.066 -0.6843  2.3605 -0.2000
 2261TIP3    H228275   6.130   5.437   5.919  0.1626 -1.0810 -0.3727
 2262TIP3   OH228276   0.258   5.223   3.834  0.3732  0.1760 -0.5995
 2262TIP3    H128277   0.339   5.272   3.821  1.3160 -0.5574  2.0350
 2262TIP3    H228278   0.280   5.132   3.812 -0.2052  0.2009 -1.3565
 2263TIP3   OH228279   5.140   0.017   1.565 -0.3460  0.1903  0.5620
 2263TIP3    H128280   5.109  -0.049   1.502  1.7807  0.8154 -1.2988
 2263TIP3    H228281   5.079   0.090   1.554 -1.5991 -0.7116  1.2547
 2264TIP3   OH228282   6.754   2.560  11.531  0.6295 -0.2856  0.5507
 2264TIP3    H128283   6.668   2.517  11.529  1.1770 -1.4798  1.9965
 2264TIP3    H228284   6.763   2.592  11.621  1.3793  0.5573  0.1946
 2265TIP3   OH228285   3.151   2.231  11.872  0.0556 -0.0705  0.1869
 2265TIP3    H128286   3.083   2.189  11.820 -1.3401 -0.6782  2.3661
 2265TIP3    H228287   3.208   2.160  11.901  2.0428  0.4877 -2.0431
 2266TIP3   OH228288   2.449   1.950   5.291 -0.5568  0.6180  0.3403
 2266TIP3    H128289   2.462   1.855   5.286 -1.5100  0.4892 -0.0832
 2266TIP3    H228290   2.487   1.976   5.375 -2.1857 -0.4925  1.4780
 2267TIP3   OH228291   1.812   3.183   0.514  0.5248 -0.5096 -0.2028
 2267TIP3    H128292   1.817   3.217   0.603 -0.1283 -1.3462  0.1624
 2267TIP3    H228293   1.724   3.205   0.485  0.6946 -0.3488 -0.6129
 2268TIP3   OH228294   5.002   4.008   5.805  0.1847  0.3856 -0.3790
 2268TIP3    H128295   5.001   3.913   5.813 -1.4322  0.2689 -1.5482
 2268TIP3    H228296   4.911   4.035   5.816  0.4396  1.6826 -1.1334
 2269TIP3   OH228297   5.358   1.933   3.781  0.1265  0.1160  0.7602
 2269TIP3    H128298   5.453   1.938   3.782  0.2417 -1.3370  2.5300
 2269TIP3    H228299   5.339   1.839   3.777 -1.2564  0.3870  0.2271
 2270TIP3   OH228300   0.259   3.033   2.271  0.0488  0.2970 -0.8122
 2270TIP3    H128301   0.354   3.037   2.258  0.1451 -0.6246 -0.4745
 2270TIP3    H228302   0.238   3.113   2.321  0.5712  0.7372 -1.2850
 2271TIP3   OH228303   5.055   1.029  14.436 -0.8723  0.2035  0.2045
 2271TIP3    H128304   5.109   1.016  14.358 -0.2133  0.9787  0.5158
 2271TIP3    H228305   5.026   0.941  14.460  1.4867 -0.4623  0.8884
 2272TIP3   OH228306   5.694   4.887  16.227  0.0168 -0.1747  0.1238
 2272TIP3    H128307   5.741   4.812  16.194 -0.2497 -1.7033  2.9090
 2272TIP3    H228308   5.756   4.933  16.284 -0.0642  1.3051 -0.9137
 2273TIP3   OH228309   4.757   2.783  16.614 -0.0301  0.2871 -0.1021
 2273TIP3    H128310   4.699   2.798  16.539 -2.0416 -0.7780  1.1300
 2273TIP3    H228311   4.803   2.866  16.626  0.2391  0.5300 -2.3824
 2274TIP3   OH228312   0.567   3.323   5.008 -0.2350  0.2181 -0.1577
 2274TIP3    H128313   0.660   3.307   5.023 -0.7079 -1.6422  1.0927
 2274TIP3    H228314   0.522   3.282   5.082 -2.0351  1.9781 -0.1609
 2275TIP3   OH228315   3.898   1.465   5.347 -0.1076  0.2261 -0.0827
 2275TIP3    H128316   3.914   1.413   5.268  0.6326  0.8706 -0.3700
 2275TIP3    H228317   3.884   1.554   5.314  1.5465  0.7613  0.5762
 2276TIP3   OH228318   0.029   2.058   5.761 -0.4767 -0.2824 -0.2301
 2276TIP3    H128319   0.112   2.075   5.806 -0.5737  0.2801 -0.2641
 2276TIP3    H228320   0.007   1.968   5.786 -0.5105 -0.0011  0.8158
 2277TIP3   OH228321   3.888   3.378   1.059 -0.2798 -0.4617 -0.4354
 2277TIP3    H128322   3.800   3.347   1.080 -0.2533  0.3744  1.0342
 2277TIP3    H228323   3.942   3.298   1.056 -0.8036 -0.8442  0.1561
 2278TIP3   OH228324   5.365   3.764  16.909  0.1774 -0.3773 -0.0445
 2278TIP3    H128325   5.290   3.704  16.911  1.5216 -2.1673 -1.4329
 2278TIP3    H228326   5.330   3.843  16.868 -1.1520 -0.8439  0.1102
 2279TIP3   OH228327   2.774   5.648  14.664 -0.8381  0.1768 -0.3487
 2279TIP3    H128328   2.681   5.627  14.672 -0.7538 -0.8358 -1.6715
 2279TIP3    H228329   2.781   5.696  14.581 -0.2731  0.8690  0.0913
 2280TIP3   OH228330   3.166   2.165  13.083  0.2056 -0.5242 -0.0023
 2280TIP3    H128331   3.144   2.079  13.048 -0.2432 -0.1923 -0.5611
 2280TIP3    H228332   3.139   2.162  13.175 -0.9390 -0.5864 -0.3250
 2281TIP3   OH228333   4.508   5.826   3.047 -0.3464  0.5826  0.6627
 2281TIP3    H128334   4.584   5.860   3.094 -0.3305  0.9359  0.3873
 2281TIP3    H228335   4.453   5.787   3.115 -0.2969  1.0344  0.9664
 2282TIP3   OH228336   3.063   5.151   4.877  0.2627 -0.4357  0.3387
 2282TIP3    H128337   2.969   5.137   4.867  0.2566  0.0800 -0.3845
 2282TIP3    H228338   3.103   5.071   4.843  0.0879 -0.6840  0.7112
 2283TIP3   OH228339   2.971   2.887   5.884  0.3084 -0.4299  0.0935
 2283TIP3    H128340   2.921   2.825   5.832  0.7108 -0.3883 -0.3455
 2283TIP3    H228341   2.927   2.971   5.872 -0.1172 -0.5905  0.5267
 2284TIP3   OH228342   3.035   1.756   0.729  0.0371 -0.4287 -0.1961
 2284TIP3    H128343   2.950   1.726   0.697  0.6394  0.5304 -3.0238
 2284TIP3    H228344   3.090   1.678   0.727 -0.3045 -0.6715 -0.2248
 2285TIP3   OH228345   4.176   1.454   0.365  0.1910  0.5418 -0.2247
 2285TIP3    H128346   4.092   1.465   0.408  1.0393  0.7789  1.4381
 2285TIP3    H228347   4.165   1.498   0.280 -1.2845  0.7218  0.0334
 2286TIP3   OH228348   6.810   3.152  15.465  0.3369  0.0903  0.5584
 2286TIP3    H128349   6.732   3.100  15.484  1.3118 -1.9129 -0.6209
 2286TIP3    H228350   6.883   3.097  15.493  1.3902  1.1273 -0.0555
 2287TIP3   OH228351   0.870   4.878   2.445 -0.1855  0.3386  0.2101
 2287TIP3    H128352   0.829   4.965   2.452  0.4187  0.8977 -2.2700
 2287TIP3    H228353   0.959   4.891   2.476  0.2632  0.9394 -1.2549
 2288TIP3   OH228354   4.722   1.478   1.545 -0.0673  0.3703 -0.9650
 2288TIP3    H128355   4.798   1.503   1.598 -0.3702 -0.9681  0.1569
 2288TIP3    H228356   4.721   1.383   1.547 -1.0392  0.3328 -2.0520
 2289TIP3   OH228357   5.452   3.352  14.600 -0.7057 -0.7284  0.1580
 2289TIP3    H128358   5.413   3.347  14.687 -0.2027  0.4312  0.4630
 2289TIP3    H228359   5.447   3.445  14.576 -0.7483 -1.0087 -1.0127
 2290TIP3   OH228360   5.264   3.140   0.074  0.0782  0.2427 -0.1126
 2290TIP3    H128361   5.199   3.126   0.142 -0.1358  0.4746 -0.2671
 2290TIP3    H228362   5.338   3.085   0.100 -0.5349 -0.7733 -0.4329
 2291TIP3   OH228363   3.248   2.392  12.940 -0.5370  0.7500 -0.6377
 2291TIP3    H128364   3.235   2.316  12.997  0.3176  2.1947  1.6540
 2291TIP3    H228365   3.185   2.380  12.869 -1.7073 -1.1587  0.6150
 2292TIP3   OH228366   2.054   5.414  14.115 -0.4248 -0.5287  0.1431
 2292TIP3    H128367   2.130   5.375  14.157  0.3008  0.2779 -0.4032
 2292TIP3    H228368   2.033   5.355  14.043  1.7440  0.9176 -1.7845
 2293TIP3   OH228369   2.471   2.899   3.681  0.4643  0.1680  0.7398
 2293TIP3    H128370   2.453   2.990   3.706 -0.4207 -0.8561  4.4297
 2293TIP3    H228371   2.559   2.882   3.716  1.0957 -0.1334 -0.9191
 2294TIP3   OH228372   6.244   1.002   1.165  0.4531 -0.1397 -0.1319
 2294TIP3    H128373   6.187   1.077   1.150  0.6404 -0.2203 -1.3690
 2294TIP3    H228374   6.332   1.040   1.177  0.5690 -0.1515 -0.8802
 2295TIP3   OH228375   5.690   6.442  13.607 -0.2393 -0.3118 -0.2463
 2295TIP3    H128376   5.744   6.513  13.641 -2.1394  0.4737  1.2881
 2295TIP3    H228377   5.653   6.475  13.526  0.2146 -0.2009 -0.4081
 2296TIP3   OH228378   3.136   3.709   2.054  0.1476  0.0104  0.6163
 2296TIP3    H128379   3.230   3.723   2.042  0.5330 -2.8567 -0.6757
 2296TIP3    H228380   3.094   3.770   1.993  1.1721  1.0092  0.8950
 2297TIP3   OH228381   5.049   6.173   0.854  0.1069 -0.3256  0.1492
 2297TIP3    H128382   4.971   6.137   0.812  0.2526  0.9120 -1.2689
 2297TIP3    H228383   5.048   6.136   0.942  0.0526 -3.4288 -1.0390
 2298TIP3   OH228384   5.282   0.513   0.200  0.3919 -0.6087 -0.1208
 2298TIP3    H128385   5.352   0.492   0.138 -1.1223 -0.3654 -1.9917
 2298TIP3    H228386   5.208   0.459   0.172 -0.5149 -0.0927  1.1740
 2299TIP3   OH228387   0.210   4.584  16.173  0.4370 -0.4872  0.4893
 2299TIP3    H128388   0.158   4.508  16.145  0.0237 -0.5352  1.3467
 2299TIP3    H228389   0.227   4.632  16.093 -1.2702 -0.2742  0.2093
 2300TIP3   OH228390   1.180   3.143  12.623 -0.1239  0.5611 -0.1902
 2300TIP3    H128391   1.089   3.173  12.623 -0.6139 -0.8220 -0.2736
 2300TIP3    H228392   1.192   3.101  12.538  0.6656  0.9248 -0.2683
 2301TIP3   OH228393   6.694   0.129  16.328 -0.5931 -0.4625  0.5366
 2301TIP3    H128394   6.748   0.107  16.403 -1.4739  0.8722  1.6078
 2301TIP3    H228395   6.649   0.210  16.353 -1.4489 -0.3629 -1.1479
 2302TIP3   OH228396   1.336   1.052  12.072 -0.8937  0.1516  0.0335
 2302TIP3    H128397   1.269   1.031  12.007 -1.1731  0.0910  0.3412
 2302TIP3    H228398   1.301   1.020  12.155 -0.1336 -0.6420  0.0765
 2303TIP3   OH228399   0.712   3.365  13.701 -0.3118 -0.0265 -0.4129
 2303TIP3    H128400   0.649   3.430  13.732  1.4508  1.0591  1.1284
 2303TIP3    H228401   0.775   3.415  13.648  0.7366 -0.5430  0.2995
 2304TIP3   OH228402   2.370   2.150  11.355 -0.3245 -0.5438  0.4530
 2304TIP3    H128403   2.302   2.193  11.408 -0.5924  1.7378 -1.5576
 2304TIP3    H228404   2.451   2.197  11.378 -0.3620  0.1439 -0.7465
 2305TIP3   OH228405   2.749   5.762   2.450  0.6596 -0.8661 -0.1081
 2305TIP3    H128406   2.820   5.711   2.411  1.3755  0.4402 -0.5849
 2305TIP3    H228407   2.750   5.737   2.543  1.9527 -0.6700 -0.0427
 2306TIP3   OH228408   4.933   4.058   2.760 -0.2555 -0.4629  0.0602
 2306TIP3    H128409   4.893   4.119   2.697  1.7967  0.1700 -0.7143
 2306TIP3    H228410   4.916   4.098   2.846 -1.5228 -0.3983 -0.1920
 2307TIP3   OH228411   6.430   0.722   3.565  0.7783  0.2121 -0.4594
 2307TIP3    H128412   6.475   0.773   3.497  0.3842 -0.0320 -0.9106
 2307TIP3    H228413   6.500   0.682   3.616  1.0821  0.5928 -0.5720
 2308TIP3   OH228414   5.334   6.265  14.196 -0.6662 -0.8317  0.0820
 2308TIP3    H128415   5.259   6.321  14.217 -0.5472 -0.1924 -1.1152
 2308TIP3    H228416   5.336   6.262  14.101  1.6383  0.3137  0.0199
 2309TIP3   OH228417   1.407   1.504   1.283 -0.2765 -0.1902 -1.0058
 2309TIP3    H128418   1.486   1.512   1.228  0.6401  1.3227  0.4599
 2309TIP3    H228419   1.437   1.459   1.361 -1.5064 -2.0095 -1.5174
 2310TIP3   OH228420   5.032   6.581   2.893 -0.3443  0.1888 -0.8832
 2310TIP3    H128421   4.994   6.493   2.893  0.2325 -0.1091  1.0405
 2310TIP3    H228422   5.123   6.568   2.869  0.1604 -0.0039  0.9778
 2311TIP3   OH228423   1.168   0.485  11.542  0.6239  0.3346  0.7330
 2311TIP3    H128424   1.231   0.420  11.574 -0.5073 -0.4082  1.5131
 2311TIP3    H228425   1.216   0.568  11.544  2.0565 -0.4194 -0.1374
 2312TIP3   OH228426   0.988   5.383   1.913 -0.2032  0.5118 -0.0610
 2312TIP3    H128427   1.038   5.399   1.833  0.4613  1.8563  0.5974
 2312TIP3    H228428   0.915   5.445   1.909  0.2052  1.0640  0.6647
 2313TIP3   OH228429   0.284   2.274   3.005  0.2843  0.1523  0.4473
 2313TIP3    H128430   0.366   2.289   3.051 -0.3142  0.0563  1.5771
 2313TIP3    H228431   0.243   2.360   2.999  0.1781  0.1012  0.4355
 2314TIP3   OH228432   6.352   4.158   2.005 -0.6211  0.5933  0.2180
 2314TIP3    H128433   6.281   4.217   1.979 -0.0218  1.7328  1.1091
 2314TIP3    H228434   6.349   4.157   2.100 -0.2243 -0.3468  0.2303
 2315TIP3   OH228435   1.913   0.797   2.739 -0.1375 -0.3282 -0.5102
 2315TIP3    H128436   1.887   0.715   2.698  0.4477 -0.3523 -0.8458
 2315TIP3    H228437   1.918   0.777   2.832 -2.4656 -0.0169 -0.2542
 2316TIP3   OH228438   5.366   0.562   5.872  0.4275 -0.4260  0.2721
 2316TIP3    H128439   5.410   0.622   5.933  1.4253 -0.2143 -0.6163
 2316TIP3    H228440   5.292   0.528   5.921 -0.3363  1.7354  0.7456
 2317TIP3   OH228441   1.887   5.515   0.983  0.3688  0.2381 -0.1958
 2317TIP3    H128442   1.821   5.514   0.914 -1.1174  2.1700  1.0977
 2317TIP3    H228443   1.867   5.439   1.037 -1.0446  0.9674  0.3524
 2318TIP3   OH228444   3.088   3.946  13.098 -0.0133 -0.0556 -0.0599
 2318TIP3    H128445   3.059   3.888  13.168 -0.5821 -0.8344 -0.9165
 2318TIP3    H228446   3.063   4.034  13.127 -0.4189 -0.3916  0.6201
 2319TIP3   OH228447   4.644   3.268   0.025 -0.2329 -0.0689 -0.2104
 2319TIP3    H128448   4.647   3.181   0.063  1.5759  0.3052  0.6041
 2319TIP3    H228449   4.710   3.318   0.073 -0.1536  1.3355 -1.6793
 2320TIP3   OH228450   1.684   0.416  14.234  0.7273  0.0055  0.1086
 2320TIP3    H128451   1.657   0.456  14.151  1.6776 -1.4553 -0.9503
 2320TIP3    H228452   1.726   0.487  14.283  0.9792  0.6719 -1.0511
 2321TIP3   OH228453   5.837   1.801   5.157 -0.0490  0.3908  0.4372
 2321TIP3    H128454   5.906   1.754   5.110  0.0484 -0.5668  1.5048
 2321TIP3    H228455   5.877   1.824   5.241 -0.8566  0.2869  0.8578
 2322TIP3   OH228456   5.425   4.350  16.392 -0.2607  0.0626  0.3947
 2322TIP3    H128457   5.416   4.331  16.486 -1.6030 -0.0610  0.2521
 2322TIP3    H228458   5.518   4.335  16.374 -0.3056 -1.6132  1.3338
 2323TIP3   OH228459   0.440   2.953   0.515  0.1152 -0.3320  0.3929
 2323TIP3    H128460   0.384   2.884   0.480 -0.5050  0.7565 -0.8571
 2323TIP3    H228461   0.413   3.032   0.468  0.1237  0.9798  2.4608
 2324TIP3   OH228462   6.663   0.398   1.405  0.8160 -1.0396  0.0292
 2324TIP3    H128463   6.603   0.403   1.331 -0.3352 -0.8282  0.9513
 2324TIP3    H228464   6.728   0.466   1.387 -0.9554  0.8732  0.4734
 2325TIP3   OH228465   2.061   5.573  12.765 -0.0461  0.1966 -0.0501
 2325TIP3    H128466   1.990   5.577  12.828 -0.1651  0.6330 -0.2109
 2325TIP3    H228467   2.137   5.543  12.816 -0.5800 -1.3198 -0.1017
 2326TIP3   OH228468   3.838   1.897   2.063 -0.5514 -0.5050  0.8224
 2326TIP3    H128469   3.904   1.956   2.029  0.3166 -0.6591  2.1890
 2326TIP3    H228470   3.756   1.946   2.056  0.0966  0.7400  1.5996
 2327TIP3   OH228471   1.996   5.329  15.222  0.1817 -0.4305 -0.8773
 2327TIP3    H128472   2.087   5.317  15.197  0.9424  0.5489  1.2144
 2327TIP3    H228473   1.974   5.416  15.188  0.6990  0.2094  0.3915
 2328TIP3   OH228474   6.015   5.381  16.266  0.0156 -0.6151 -0.4315
 2328TIP3    H128475   6.089   5.436  16.292  1.2061 -2.0320 -0.7228
 2328TIP3    H228476   5.950   5.395  16.335  0.9068 -0.0299  0.3201
 2329TIP3   OH228477   5.293   3.764  13.302 -0.3272  0.4004  0.0015
 2329TIP3    H128478   5.331   3.680  13.327 -0.6642  0.5831  1.1445
 2329TIP3    H228479   5.333   3.783  13.217 -0.5034 -1.0731 -0.4449
 2330TIP3   OH228480   2.441   0.516   0.023  0.3505  0.1179 -0.5493
 2330TIP3    H128481   2.506   0.570  -0.022  1.1707 -2.3328 -2.5308
 2330TIP3    H228482   2.467   0.519   0.115  0.3085  3.0162 -0.5268
 2331TIP3   OH228483   0.715   2.977  12.898 -0.8531 -0.1858  0.3198
 2331TIP3    H128484   0.694   3.052  12.843 -0.6857 -0.3289  0.0537
 2331TIP3    H228485   0.661   2.988  12.976 -1.1435 -0.0110  0.0995
 2332TIP3   OH228486   3.048   2.919   0.981 -0.3551  0.2622 -0.0564
 2332TIP3    H128487   3.008   3.006   0.977 -0.7055  0.0879 -0.6489
 2332TIP3    H228488   3.095   2.911   0.898  0.6113  0.3183  0.4822
 2333TIP3   OH228489   1.108   2.483  15.267 -0.1782 -0.4890 -0.2344
 2333TIP3    H128490   1.093   2.578  15.271  0.7635 -0.2692 -1.4723
 2333TIP3    H228491   1.068   2.455  15.185  0.4761 -0.9786 -0.3968
 2334TIP3   OH228492   6.335   0.697  15.528  0.1339 -0.3361  0.3857
 2334TIP3    H128493   6.401   0.644  15.573 -0.7756 -0.9917  0.9966
 2334TIP3    H228494   6.322   0.772  15.586  0.3781 -0.1792  0.2386
 2335TIP3   OH228495   2.013   4.720   2.265  0.1703 -0.3653  0.5603
 2335TIP3    H128496   2.046   4.772   2.338  1.0926  0.4845 -0.4324
 2335TIP3    H228497   2.091   4.677   2.229  0.1935  1.1816 -1.4370
 2336TIP3   OH228498   2.697   6.235  13.339 -0.7284  0.3369  0.1418
 2336TIP3    H128499   2.635   6.190  13.396 -0.2586 -1.1574 -0.4865
 2336TIP3    H228500   2.763   6.270  13.399 -0.6127 -0.6141  0.5898
 2337TIP3   OH228501   0.558   3.306  17.001  0.3290  0.1354 -0.3694
 2337TIP3    H128502   0.600   3.326  17.085 -2.0242  1.3126  0.6301
 2337TIP3    H228503   0.592   3.220  16.977  0.1482 -0.8297  2.4511
 2338TIP3   OH228504   5.123   3.784  15.232 -1.0831 -0.2309  0.1487
 2338TIP3    H128505   5.100   3.724  15.161 -0.1488  1.8740 -2.0794
 2338TIP3    H228506   5.101   3.871  15.199  4.2633  1.4684  0.0140
 2339TIP3   OH228507   4.279   4.334   0.685  0.1382  0.4255 -0.1972
 2339TIP3    H128508   4.364   4.302   0.717  0.1527  1.6982  1.1212
 2339TIP3    H228509   4.216   4.302   0.749  0.1315  2.7800  1.0783
 2340TIP3   OH228510   2.061   6.023   1.640 -0.3701 -0.1968  0.0228
 2340TIP3    H128511   2.006   6.082   1.691 -3.9562 -0.7741 -2.7376
 2340TIP3    H228512   2.143   6.071   1.626 -0.9473  1.6763  2.5176
 2341TIP3   OH228513   4.148   1.298  12.359  0.7290  0.3409 -0.7974
 2341TIP3    H128514   4.146   1.393  12.345  0.2043  0.3939 -0.3800
 2341TIP3    H228515   4.238   1.280  12.384  0.1313  1.2220  2.4046
 2342TIP3   OH228516   0.524   0.802  14.716 -0.1579  0.0355  0.3429
 2342TIP3    H128517   0.594   0.766  14.770  0.3092  0.3675 -0.0364
 2342TIP3    H228518   0.461   0.730  14.707 -0.2601 -0.0216  1.3405
 2343TIP3   OH228519   1.774   5.008  11.277  0.1146  0.4553 -0.2927
 2343TIP3    H128520   1.756   5.102  11.283  1.0208  0.5758  0.9212
 2343TIP3    H228521   1.726   4.979  11.199  1.7294  2.3775 -2.1134
 2344TIP3   OH228522   2.143   1.669  11.361 -0.1470  0.2865 -0.1624
 2344TIP3    H128523   2.192   1.736  11.314  0.2904 -0.0108 -0.1403
 2344TIP3    H228524   2.094   1.623  11.292  0.9171 -0.5034 -0.4185
 2345TIP3   OH228525   6.380   2.995   1.952 -0.0514 -0.3950 -0.0981
 2345TIP3    H128526   6.359   3.073   1.900  0.4391 -1.3948 -1.8659
 2345TIP3    H228527   6.447   3.024   2.013  0.2046  0.5513 -0.8069
 2346TIP3   OH228528   5.637   0.154   6.192  0.3143  0.0916 -0.8922
 2346TIP3    H128529   5.543   0.152   6.173  0.5598 -0.5098 -2.1838
 2346TIP3    H228530   5.644   0.139   6.286 -0.8510 -0.7450 -0.9284
 2347TIP3   OH228531   5.772   4.306  11.621  0.0986  0.2462  0.0901
 2347TIP3    H128532   5.701   4.311  11.557  1.4832  1.8979 -1.4539
 2347TIP3    H228533   5.800   4.397  11.632  1.2277 -0.2364  1.5359
 2348TIP3   OH228534   5.325   5.437  14.235 -0.0059 -0.6846  0.0135
 2348TIP3    H128535   5.413   5.444  14.198 -0.0076 -0.2932  0.0861
 2348TIP3    H228536   5.327   5.355  14.285 -0.0153 -1.2538 -0.8829
 2349TIP3   OH228537   0.465   3.366  15.614 -0.1053  0.3481 -0.0758
 2349TIP3    H128538   0.386   3.420  15.620 -0.3706  0.2305 -1.9538
 2349TIP3    H228539   0.500   3.384  15.527  1.4986 -0.2266  0.4167
 2350TIP3   OH228540   3.006   3.007  13.461  0.0631  0.0706 -0.0784
 2350TIP3    H128541   3.093   3.010  13.501  0.2090  0.1441 -0.3936
 2350TIP3    H228542   2.974   2.919  13.478  1.3352 -0.9153 -2.2979
 2351TIP3   OH228543   3.741   3.481   1.679  0.3481  0.5586 -0.3410
 2351TIP3    H128544   3.709   3.391   1.668 -2.2034  1.3101  0.3252
 2351TIP3    H228545   3.764   3.509   1.590  1.1708 -0.7014 -0.5564
 2352TIP3   OH228546   3.700   2.608   3.928 -0.1836 -0.1637  0.0345
 2352TIP3    H128547   3.679   2.545   3.998 -1.4244  2.4161  2.1580
 2352TIP3    H228548   3.639   2.586   3.857 -0.7444 -1.2246  0.8102
 2353TIP3   OH228549   2.353   4.127   2.742 -0.1413 -0.4655 -0.7088
 2353TIP3    H128550   2.308   4.100   2.662  0.8642  0.5890 -1.6645
 2353TIP3    H228551   2.445   4.135   2.716  0.2298 -0.2966  0.6027
 2354TIP3   OH228552   5.496   4.520  15.531  0.6380  0.5463 -0.0578
 2354TIP3    H128553   5.491   4.433  15.493 -0.6286 -0.5800  2.4733
 2354TIP3    H228554   5.544   4.508  15.613  1.3285  2.4489 -0.1283
 2355TIP3   OH228555   0.505   4.145   3.162  0.0354 -0.0413  0.2637
 2355TIP3    H128556   0.557   4.207   3.111  1.4331 -0.0204  1.6344
 2355TIP3    H228557   0.483   4.193   3.241  1.3427 -1.3085  1.4642
 2356TIP3   OH228558   1.406   0.978   5.877  0.1757  0.2494  0.2467
 2356TIP3    H128559   1.314   0.962   5.856 -0.2342  1.5013  0.9327
 2356TIP3    H228560   1.403   1.019   5.964  1.4150 -0.0534  0.4506
 2357TIP3   OH228561   4.759   2.512  13.732  0.5530  0.6059  0.1571
 2357TIP3    H128562   4.699   2.444  13.762  1.3273 -0.1276  0.0778
 2357TIP3    H228563   4.783   2.559  13.812  0.8799  0.0661  0.3877
 2358TIP3   OH228564   4.752   4.655   4.894  0.3196  0.2275 -0.5934
 2358TIP3    H128565   4.673   4.709   4.886  1.0435  1.2589 -1.1099
 2358TIP3    H228566   4.762   4.642   4.989 -0.7623 -0.3858 -0.5491
 2359TIP3   OH228567   4.040   4.852   6.441 -0.3831 -0.3997 -0.0145
 2359TIP3    H128568   4.020   4.800   6.520 -1.6160 -1.5820 -1.0557
 2359TIP3    H228569   4.111   4.804   6.399  2.3868  1.8212  1.7942
 2360TIP3   OH228570   6.744   6.702   4.462 -0.3378  0.0237  0.4448
 2360TIP3    H128571   6.762   6.782   4.414 -1.6590  0.8166  1.2109
 2360TIP3    H228572   6.815   6.642   4.437  0.4002  1.2521 -0.5028
 2361TIP3   OH228573   3.432   6.328  14.401 -0.6828  0.2411  0.2287
 2361TIP3    H128574   3.436   6.397  14.467 -2.4074  1.6411 -1.0236
 2361TIP3    H228575   3.363   6.270  14.431 -2.8106  1.8951 -1.1130
 2362TIP3   OH228576   1.409   6.335   1.704  1.0865 -0.1799  0.1250
 2362TIP3    H128577   1.385   6.403   1.766  1.1889 -0.1748  0.1598
 2362TIP3    H228578   1.395   6.376   1.618 -0.3711 -0.6451  0.1171
 2363TIP3   OH228579   3.151   2.347   5.786 -0.8188  0.2388 -0.4926
 2363TIP3    H128580   3.070   2.297   5.782  1.6759 -4.2750 -0.2649
 2363TIP3    H228581   3.161   2.370   5.878 -1.0681 -0.6326 -0.2437
 2364TIP3   OH228582   1.073   4.226  13.145  0.2480  0.3339  0.2435
 2364TIP3    H128583   1.048   4.312  13.110  0.3335 -0.4769 -1.9286
 2364TIP3    H228584   1.003   4.167  13.118  0.3518 -0.3794  1.4344
 2365TIP3   OH228585   6.351   0.418  12.338  0.2568 -0.1559  0.0544
 2365TIP3    H128586   6.274   0.365  12.356  0.1252  0.2290  0.6401
 2365TIP3    H228587   6.330   0.462  12.255  0.5766 -1.3857 -0.7026
 2366TIP3   OH228588   2.548   0.566   0.706 -0.3252  0.6491 -0.0947
 2366TIP3    H128589   2.642   0.548   0.712  0.0132  2.0035 -0.8291
 2366TIP3    H228590   2.522   0.532   0.620 -0.2797  1.1425 -0.3093
 2367TIP3   OH228591   1.181   4.526   5.240  0.3188 -0.1017 -0.0123
 2367TIP3    H128592   1.104   4.477   5.212 -0.9852  0.5786  2.1419
 2367TIP3    H228593   1.189   4.597   5.176 -1.4196  0.3501  0.2309
 2368TIP3   OH228594   2.740   1.050   0.863 -0.7250  0.0542  0.1274
 2368TIP3    H128595   2.831   1.021   0.869 -1.2271 -1.4303  1.0434
 2368TIP3    H228596   2.721   1.091   0.947 -0.8005  0.7533 -0.2169
 2369TIP3   OH228597   2.501   5.275  14.975 -0.1245 -0.3328  0.2965
 2369TIP3    H128598   2.493   5.361  14.935 -0.3192 -1.2783 -1.8328
 2369TIP3    H228599   2.571   5.284  15.040  2.5464  0.5420 -2.4957
 2370TIP3   OH228600   3.163   5.672   4.321 -0.1305 -0.3779  0.6379
 2370TIP3    H128601   3.148   5.640   4.410  1.9542 -1.1042  0.7986
 2370TIP3    H228602   3.153   5.767   4.327  1.0430 -0.3052  1.9222
 2371TIP3   OH228603   4.540   6.441   2.605 -0.1977 -0.0689 -0.5873
 2371TIP3    H128604   4.561   6.373   2.541 -0.8118 -0.1796 -0.6745
 2371TIP3    H228605   4.622   6.455   2.653  0.3004  0.1053 -1.4757
 2372TIP3   OH228606   1.444   4.987   3.583 -0.2074  0.2502 -0.0394
 2372TIP3    H128607   1.371   4.927   3.596 -0.7864  0.2707 -2.6715
 2372TIP3    H228608   1.497   4.946   3.515  0.9244  1.3761  0.1363
 2373TIP3   OH228609   1.336   6.221  16.811 -0.1748 -0.1172 -0.0213
 2373TIP3    H128610   1.413   6.277  16.812 -0.8399  0.8261  1.5388
 2373TIP3    H228611   1.264   6.277  16.842 -1.4579 -1.0223 -1.2108
 2374TIP3   OH228612   1.263   6.676  16.051  0.7706 -0.1724 -0.2989
 2374TIP3    H128613   1.256   6.583  16.027  1.3226 -0.3572  0.2288
 2374TIP3    H228614   1.290   6.675  16.143 -2.2190  0.5019  0.6801
 2375TIP3   OH228615   5.631   2.357  16.508 -0.2818  0.3584  0.0739
 2375TIP3    H128616   5.571   2.431  16.496  1.2700  2.1018  2.0699
 2375TIP3    H228617   5.705   2.395  16.556  1.5061 -2.1142 -0.5557
 2376TIP3   OH228618   5.155   2.564  13.932 -0.0840 -0.5326  0.1805
 2376TIP3    H128619   5.140   2.612  14.014 -0.2455 -1.4668  0.7098
 2376TIP3    H228620   5.229   2.608  13.891 -0.0522 -0.0103  0.7913
 2377TIP3   OH228621   2.395   1.049   1.902  0.3242  0.0232  0.9294
 2377TIP3    H128622   2.408   0.965   1.944 -1.8683 -0.5223  0.6318
 2377TIP3    H228623   2.307   1.076   1.928  0.3655  1.4477 -0.2577
 2378TIP3   OH228624   2.608   4.753  12.615 -0.0009  0.5719 -0.2975
 2378TIP3    H128625   2.683   4.807  12.641  1.2430 -0.2577 -1.9840
 2378TIP3    H228626   2.579   4.790  12.532 -1.9049  1.2559  0.6124
 2379TIP3   OH228627   2.205   3.907   4.974  0.2092  0.0614 -0.8407
 2379TIP3    H128628   2.282   3.867   4.934  0.7731 -1.3256  1.4818
 2379TIP3    H228629   2.132   3.854   4.943  0.7193 -1.4715  0.4683
 2380TIP3   OH228630   5.512   1.325   3.130 -0.6291  0.2855  1.0270
 2380TIP3    H128631   5.473   1.291   3.211  0.0524 -0.2412  1.1360
 2380TIP3    H228632   5.469   1.410   3.117 -1.3036  0.0271  1.5213
 2381TIP3   OH228633   6.076   0.223   4.686 -0.5430  0.0937 -0.2646
 2381TIP3    H128634   6.062   0.308   4.645  1.7508  1.2676  1.2035
 2381TIP3    H228635   6.159   0.192   4.650 -0.3109 -0.5238  0.7554
 2382TIP3   OH228636   0.507   2.597  12.202  0.0204 -0.1083  0.3937
 2382TIP3    H128637   0.527   2.514  12.246  0.6022  0.2913  0.9021
 2382TIP3    H228638   0.487   2.658  12.274 -0.2714  0.2294  0.0314
 2383TIP3   OH228639   0.035   2.187   0.383 -0.0418 -0.4541  0.3272
 2383TIP3    H128640  -0.030   2.119   0.364  0.1594 -0.8756  1.0719
 2383TIP3    H228641  -0.017   2.266   0.401 -0.4424 -1.0830  2.1302
 2384TIP3   OH228642   2.806   4.663  11.804  0.5317 -0.2959  0.4575
 2384TIP3    H128643   2.779   4.573  11.823  3.6299 -1.1316  1.5316
 2384TIP3    H228644   2.864   4.655  11.729  0.3736  0.9161  0.1937
 2385TIP3   OH228645   2.399   6.425  16.945  0.4187 -0.4903  0.3330
 2385TIP3    H128646   2.320   6.426  16.999  0.1117  1.6353 -0.0826
 2385TIP3    H228647   2.372   6.460  16.861  1.7009 -0.1513  0.0366
 2386TIP3   OH228648   5.492   4.179   1.028  0.6670 -0.1771 -0.4402
 2386TIP3    H128649   5.571   4.159   0.977 -0.2133  0.7093 -2.2724
 2386TIP3    H228650   5.439   4.100   1.022  1.3373 -0.7498  0.7356
 2387TIP3   OH228651   0.283   5.397   1.232  0.3976  0.4425 -0.1182
 2387TIP3    H128652   0.370   5.438   1.228  1.1118 -0.6797  1.8755
 2387TIP3    H228653   0.295   5.323   1.293 -0.9528 -2.3400 -2.9425
 2388TIP3   OH228654   0.667   0.495  15.074 -0.5625 -0.0808  0.1398
 2388TIP3    H128655   0.589   0.481  15.129 -0.1619  0.2151  0.7981
 2388TIP3    H228656   0.686   0.409  15.036 -0.4961 -0.4287  0.9436
 2389TIP3   OH228657   6.276   2.113  17.288  0.8031 -0.3701 -0.2450
 2389TIP3    H128658   6.231   2.029  17.283  0.3036 -0.1451  0.3576
 2389TIP3    H228659   6.345   2.099  17.353  0.6826 -0.2978 -0.1012
 2390TIP3   OH228660   1.123   5.735  13.629  0.1695  0.2151 -0.7245
 2390TIP3    H128661   1.170   5.743  13.546 -1.1434 -2.5854 -1.8822
 2390TIP3    H228662   1.049   5.795  13.621  0.7076  0.8470 -1.0566
 2391TIP3   OH228663   0.417   1.678  12.726  0.2904  0.0102 -0.1933
 2391TIP3    H128664   0.357   1.612  12.759  0.8453  0.3169  1.5269
 2391TIP3    H228665   0.452   1.640  12.645 -0.3393 -1.2449  0.0992
 2392TIP3   OH228666   4.323   5.823   5.177  0.1329  1.1534  1.0463
 2392TIP3    H128667   4.283   5.836   5.091  0.1492 -0.0475  0.8479
 2392TIP3    H228668   4.266   5.873   5.237 -0.8965  0.5825  0.5793
 2393TIP3   OH228669   2.993   6.515  12.124  0.2747  0.0584 -0.0864
 2393TIP3    H128670   3.006   6.423  12.098  1.1772  0.0627  0.2918
 2393TIP3    H228671   3.067   6.561  12.084 -1.1879  0.9575 -1.8406
 2394TIP3   OH228672   3.735   5.593   4.872  0.1929  1.0213  0.0403
 2394TIP3    H128673   3.776   5.506   4.868 -0.0520  0.9010  0.1352
 2394TIP3    H228674   3.782   5.644   4.806  1.0581  1.1212  0.7198
 2395TIP3   OH228675   0.957   5.777   3.130 -0.6525  0.6631  0.1862
 2395TIP3    H128676   0.989   5.801   3.217  1.7345 -1.2615 -0.0665
 2395TIP3    H228677   1.019   5.816   3.069 -1.0147  0.1177 -0.5509
 2396TIP3   OH228678   2.747   0.139   3.286 -0.0590  0.3683  0.5745
 2396TIP3    H128679   2.741   0.135   3.381  1.5808  2.5978  0.8326
 2396TIP3    H228680   2.713   0.225   3.262  1.0305  0.4975 -0.6783
 2397TIP3   OH228681   0.556   6.301  11.179 -0.1370  0.4589 -0.3029
 2397TIP3    H128682   0.640   6.341  11.202  0.2182 -0.8539  0.8205
 2397TIP3    H228683   0.577   6.242  11.106  0.6019 -2.1038  1.8350
 2398TIP3   OH228684   1.941   0.471  15.992  0.4395 -0.2734 -0.1002
 2398TIP3    H128685   2.000   0.447  16.062  0.0805  1.2344  0.7614
 2398TIP3    H228686   1.882   0.396  15.983  1.0503 -0.8428  0.5740
 2399TIP3   OH228687   6.713   2.210  13.031  0.4741 -0.0911  0.1860
 2399TIP3    H128688   6.655   2.183  13.102 -1.2548  0.0879 -1.1035
 2399TIP3    H228689   6.703   2.143  12.965 -1.0527  1.6984 -1.5247
 2400TIP3   OH228690   0.981   5.151   0.790  0.5099  0.2109 -0.0510
 2400TIP3    H128691   0.948   5.223   0.737  3.4023  1.5053 -0.2708
 2400TIP3    H228692   0.963   5.177   0.880  1.5984  1.2580 -0.1278
 2401TIP3   OH228693   4.286   0.382   4.897  0.1182 -0.1077  0.2678
 2401TIP3    H128694   4.278   0.292   4.929 -0.2097  0.2069  1.0964
 2401TIP3    H228695   4.381   0.396   4.890  0.3865  0.6188  3.6016
 2402TIP3   OH228696   6.806   0.141   5.158  0.1256 -0.1859 -0.0414
 2402TIP3    H128697   6.890   0.117   5.198  0.9198  1.2506 -0.7829
 2402TIP3    H228698   6.756   0.180   5.230  1.2755  1.7348 -0.2191
 2403TIP3   OH228699   3.718   3.458   2.925  0.0907  0.4207  0.4501
 2403TIP3    H128700   3.696   3.513   3.000 -0.9376  2.3166 -1.1334
 2403TIP3    H228701   3.635   3.419   2.898  0.5603 -0.7579  0.6435
 2404TIP3   OH228702   3.906   2.171   4.240  0.4551  0.3821 -0.2233
 2404TIP3    H128703   3.932   2.084   4.269  0.4400 -0.0183 -1.3728
 2404TIP3    H228704   3.811   2.173   4.253  0.6433  0.8162  1.2816
 2405TIP3   OH228705   4.151   0.704  11.792  0.2140 -0.6287  0.1073
 2405TIP3    H128706   4.140   0.738  11.881 -2.7648  1.9533 -1.0789
 2405TIP3    H228707   4.227   0.751  11.758  0.5976 -0.6767  0.8686
 2406TIP3   OH228708   1.142   5.150  15.259 -0.0310 -0.1769  0.8468
 2406TIP3    H128709   1.080   5.143  15.187 -1.4656  0.9296  1.9276
 2406TIP3    H228710   1.091   5.182  15.333  1.5905 -0.3492  2.1145
 2407TIP3   OH228711   1.261   5.971  14.129  0.4585  0.9960  0.2044
 2407TIP3    H128712   1.352   5.944  14.142  0.0134 -1.2541 -0.9972
 2407TIP3    H228713   1.209   5.908  14.180 -0.6597 -1.0576 -3.2000
 2408TIP3   OH228714   2.277   5.094   2.578  0.6810  0.2281 -0.0691
 2408TIP3    H128715   2.356   5.089   2.525 -0.3276  0.4969 -1.6717
 2408TIP3    H228716   2.265   5.187   2.596  1.3591  0.0869  1.2081
 2409TIP3   OH228717   1.382   6.429  11.649 -0.0110 -0.2605 -0.1180
 2409TIP3    H128718   1.474   6.456  11.645 -0.3973  0.9809 -1.4581
 2409TIP3    H228719   1.334   6.509  11.672 -0.8391 -0.7019 -0.2464
 2410TIP3   OH228720   4.159   3.032   4.800  0.1148 -0.1925 -0.3881
 2410TIP3    H128721   4.124   2.949   4.832  1.3041 -1.2586 -1.7484
 2410TIP3    H228722   4.213   3.065   4.873 -1.3019  0.0331  0.6090
 2411TIP3   OH228723   3.046   3.788   3.876  0.1098 -0.1884  0.5275
 2411TIP3    H128724   3.131   3.756   3.845 -0.2807  0.0758 -0.8769
 2411TIP3    H228725   3.055   3.883   3.876 -0.8196 -0.0520 -1.6520
 2412TIP3   OH228726   5.927   5.665  15.549 -0.4049 -0.4930 -0.1648
 2412TIP3    H128727   5.995   5.676  15.482  0.6640 -0.0119  0.9580
 2412TIP3    H228728   5.969   5.692  15.630 -2.1337  0.3663  0.4863
 2413TIP3   OH228729   0.857   5.144   3.103 -0.2285 -0.0737 -0.2288
 2413TIP3    H128730   0.812   5.226   3.082  0.9886  0.3569 -1.2550
 2413TIP3    H228731   0.898   5.118   3.021 -1.9709 -2.6328 -0.4023
 2414TIP3   OH228732   6.582   1.347  11.621 -0.4226  0.2770  0.4888
 2414TIP3    H128733   6.634   1.316  11.696 -0.2190 -0.1194  0.1871
 2414TIP3    H228734   6.615   1.435  11.603  1.1000 -0.4611 -0.5540
 2415TIP3   OH228735   1.950   5.951  12.963  0.1268  0.3962  0.0610
 2415TIP3    H128736   2.027   6.007  12.951 -0.6682  1.0786 -2.3737
 2415TIP3    H228737   1.889   6.006  13.013  0.9960  0.0047  1.6305
 2416TIP3   OH228738   0.278   5.527   3.936  0.1740  0.6365 -0.0687
 2416TIP3    H128739   0.351   5.557   3.883  0.3155 -0.2847 -0.4180
 2416TIP3    H228740   0.317   5.469   4.001 -0.0846  1.2077  0.6095
 2417TIP3   OH228741   2.919   5.917  13.163 -0.5036  0.5028  0.0177
 2417TIP3    H128742   2.926   6.008  13.192  0.2253  0.5763 -0.3507
 2417TIP3    H228743   2.868   5.921  13.082 -0.7874  0.5395  0.1980
 2418TIP3   OH228744   2.524   4.348  14.953 -0.1998 -0.2701  0.0323
 2418TIP3    H128745   2.590   4.414  14.975  1.7679 -2.0576 -0.1536
 2418TIP3    H228746   2.506   4.362  14.860 -2.4392  2.1184  0.7022
 2419TIP3   OH228747   5.338   2.268   0.948  0.7457  0.5291  0.1577
 2419TIP3    H128748   5.394   2.320   1.006  1.3367 -0.3694  0.4201
 2419TIP3    H228749   5.399   2.216   0.896  0.1762 -0.0975  0.0963
 2420TIP3   OH228750   6.623   1.857  12.550  0.1573 -0.2530  0.2744
 2420TIP3    H128751   6.691   1.913  12.514 -0.7352  0.5430 -0.2212
 2420TIP3    H228752   6.644   1.770  12.517  1.0924 -0.0731  0.3725
 2421TIP3   OH228753   5.383   2.139   5.046  0.2968 -0.2102 -0.4934
 2421TIP3    H128754   5.334   2.125   5.127  0.3638  0.5817 -0.2975
 2421TIP3    H228755   5.430   2.057   5.032 -2.8017 -1.8860 -1.9477
 2422TIP3   OH228756   0.843   2.305  13.197  0.0539  0.0662  0.3530
 2422TIP3    H128757   0.752   2.306  13.168  0.2840 -0.5228 -0.4409
 2422TIP3    H228758   0.838   2.309  13.292 -0.7609  1.3182  0.2837
 2423TIP3   OH228759   0.350   4.653  14.625  0.3146 -0.0025  0.2565
 2423TIP3    H128760   0.324   4.593  14.555  2.3414 -0.2271 -0.3566
 2423TIP3    H228761   0.322   4.610  14.705  0.5470 -1.1371 -0.2511
 2424TIP3   OH228762   3.717   2.872   5.693 -0.1719  0.0462  0.3020
 2424TIP3    H128763   3.727   2.809   5.621  3.5875  0.7815 -0.0511
 2424TIP3    H228764   3.680   2.822   5.765 -1.3176 -1.4404 -1.2618
 2425TIP3   OH228765   4.454   2.305   6.542 -0.1801 -0.1329 -0.0238
 2425TIP3    H128766   4.395   2.365   6.497  1.1420 -0.4160 -2.2699
 2425TIP3    H228767   4.398   2.233   6.571 -0.9515 -0.5611 -2.3964
 2426TIP3   OH228768   0.810   3.071   2.932  0.2693  0.0866 -0.1041
 2426TIP3    H128769   0.818   2.994   2.876  0.3766 -0.7579  1.0257
 2426TIP3    H228770   0.897   3.112   2.928  0.1500  0.2817 -0.8738
 2427TIP3   OH228771   4.673   1.905   4.267  0.1885  0.5841  0.3819
 2427TIP3    H128772   4.691   1.994   4.296  0.4465  0.3027  1.0931
 2427TIP3    H228773   4.614   1.916   4.192  0.3833  1.3559  0.3343
 2428TIP3   OH228774   2.254   0.097   2.995  0.0510 -0.9049  0.3972
 2428TIP3    H128775   2.216   0.182   2.976  0.4619 -0.9510 -0.6577
 2428TIP3    H228776   2.185   0.050   3.043 -0.5195 -0.3299  0.1476
 2429TIP3   OH228777   2.333   6.146  13.707 -0.2870  0.1688 -0.2550
 2429TIP3    H128778   2.412   6.095  13.723 -0.5810 -0.1188  0.3072
 2429TIP3    H228779   2.262   6.090  13.735 -0.7652  0.1061 -1.5075
 2430TIP3   OH228780   3.474   4.434   0.115 -0.1990 -0.4288  0.0843
 2430TIP3    H128781   3.509   4.346   0.098 -0.3124 -0.3693 -0.4847
 2430TIP3    H228782   3.391   4.437   0.067 -1.9766 -1.2083  2.8746
 2431TIP3   OH228783   1.582   1.719  13.978  0.0870 -0.2246  0.2498
 2431TIP3    H128784   1.492   1.741  13.952 -0.1142 -2.2530 -0.9222
 2431TIP3    H228785   1.580   1.625  13.993  2.1181 -0.3579 -0.1217
 2432TIP3   OH228786   2.822   6.144   6.006  0.1743  0.2288  0.3641
 2432TIP3    H128787   2.797   6.164   5.916  1.1442  1.1550  0.2716
 2432TIP3    H228788   2.918   6.145   6.005  0.1995  0.2365  1.4021
 2433TIP3   OH228789   5.640   0.923   0.426  0.8590 -0.2046  0.0672
 2433TIP3    H128790   5.561   0.971   0.402  0.4032 -0.1548  1.5767
 2433TIP3    H228791   5.681   0.901   0.342  0.2459  1.4040 -0.6956
 2434TIP3   OH228792   1.255   1.325   3.256  0.7429 -0.2560  0.1807
 2434TIP3    H128793   1.318   1.379   3.304 -0.3782  0.3679  0.9854
 2434TIP3    H228794   1.299   1.240   3.248  2.0073  0.3846  0.0181
 2435TIP3   OH228795   5.139   6.308  15.492 -0.0735 -0.1968 -0.4166
 2435TIP3    H128796   5.135   6.310  15.587  1.7566  0.3861 -0.3099
 2435TIP3    H228797   5.110   6.220  15.469 -0.3368 -0.4154  0.6880
 2436TIP3   OH228798   5.319   2.329   3.121 -0.3982  0.1499 -0.5041
 2436TIP3    H128799   5.378   2.316   3.195  0.7203 -2.7004 -1.7798
 2436TIP3    H228800   5.254   2.259   3.130 -2.0653  1.6042 -0.6204
 2437TIP3   OH228801   0.505   5.108  14.561 -0.1933  0.5397 -0.7107
 2437TIP3    H128802   0.451   5.031  14.579 -0.0582  0.3646 -1.0494
 2437TIP3    H228803   0.455   5.181  14.597  0.5352  0.1078  1.3399
 2438TIP3   OH228804   3.600   4.928   2.133  0.1933 -0.0198 -0.0916
 2438TIP3    H128805   3.582   4.943   2.040 -0.2010 -0.8597 -0.1594
 2438TIP3    H228806   3.548   4.994   2.178 -0.1133 -0.0147 -0.4429
 2439TIP3   OH228807   3.852   0.259  13.829  0.8018  0.5114 -0.2120
 2439TIP3    H128808   3.901   0.183  13.799 -0.0394 -0.4700  0.8259
 2439TIP3    H228809   3.779   0.266  13.768  0.5788  0.1411  0.0059
 2440TIP3   OH228810   6.443   2.319   0.169  0.0995  0.2920 -0.1446
 2440TIP3    H128811   6.361   2.343   0.126  1.7485  6.1504 -0.8804
 2440TIP3    H228812   6.423   2.320   0.262 -0.8498  0.7810 -0.3448
 2441TIP3   OH228813   6.702   5.793  15.045 -0.3352 -0.0992  0.0731
 2441TIP3    H128814   6.745   5.784  15.130 -0.4202 -1.0806  0.0222
 2441TIP3    H228815   6.678   5.885  15.040  0.1389  0.0762  0.8862
 2442TIP3   OH228816   1.057   6.792  16.946 -0.3638  0.2136  0.0104
 2442TIP3    H128817   1.058   6.878  16.903 -0.7189  0.1347 -0.1688
 2442TIP3    H228818   1.148   6.763  16.946 -0.1649  0.8163  0.5364
 2443TIP3   OH228819   6.764   5.242  12.671  0.1688  0.2652 -0.0861
 2443TIP3    H128820   6.843   5.296  12.680  0.1792  0.4301 -1.0988
 2443TIP3    H228821   6.692   5.301  12.696  0.3502  0.1279  0.7947
 2444TIP3   OH228822   4.347   3.625  13.894 -0.5028 -0.0761  0.4631
 2444TIP3    H128823   4.273   3.588  13.943 -1.1711 -2.4530 -2.0665
 2444TIP3    H228824   4.306   3.686  13.832 -0.0614  0.3346  0.5681
 2445TIP3   OH228825   0.891   2.760   3.479 -0.0890  0.2034  0.3627
 2445TIP3    H128826   0.803   2.748   3.513  0.0596 -0.3989  0.5387
 2445TIP3    H228827   0.937   2.809   3.547  0.0097 -0.3994  0.7345
 2446TIP3   OH228828   3.047   3.874   3.485 -0.2421 -0.3520 -0.2940
 2446TIP3    H128829   3.091   3.931   3.547 -1.5554 -1.8087  2.1549
 2446TIP3    H228830   3.038   3.927   3.405  2.2350  1.3229  0.4240
 2447TIP3   OH228831   0.689   5.438   5.204  0.4740  0.5227  0.3925
 2447TIP3    H128832   0.635   5.485   5.141  0.1116 -0.1320  0.2082
 2447TIP3    H228833   0.773   5.427   5.160  0.3538  0.4377  0.1797
 2448TIP3   OH228834   2.198   2.571   0.600 -0.2240 -0.4035 -0.4757
 2448TIP3    H128835   2.186   2.583   0.505  1.2198  0.2805 -0.6004
 2448TIP3    H228836   2.291   2.554   0.610  0.0832  1.8217  1.0209
 2449TIP3   OH228837   4.116   5.598  15.560 -0.8839 -0.2155 -0.3611
 2449TIP3    H128838   4.049   5.662  15.536 -0.4658  0.1171 -0.6455
 2449TIP3    H228839   4.097   5.577  15.652 -2.1295 -1.0627 -0.7894
 2450TIP3   OH228840   6.167   1.522   3.783  0.1243  0.2087  0.0479
 2450TIP3    H128841   6.077   1.540   3.756 -0.2874 -0.5924  0.8367
 2450TIP3    H228842   6.203   1.607   3.805  0.1409  0.7709 -1.9616
 2451TIP3   OH228843   1.359   6.204  10.778 -0.4183 -0.5960  0.0915
 2451TIP3    H128844   1.333   6.187  10.687  0.0930 -1.2592  0.0584
 2451TIP3    H228845   1.433   6.144  10.793 -1.5401 -1.7114  1.4547
 2452TIP3   OH228846   6.596   6.089   0.084  0.3906  0.7278 -0.0786
 2452TIP3    H128847   6.516   6.038   0.088  0.6926  0.1303 -1.1242
 2452TIP3    H228848   6.643   6.054   0.008  1.0559  1.9095 -0.2470
 2453TIP3   OH228849   2.605   6.468  13.881  0.2189  0.6945 -0.1495
 2453TIP3    H128850   2.514   6.461  13.910  0.9195 -0.5551  1.9220
 2453TIP3    H228851   2.626   6.561  13.892 -0.1117  0.5848  1.7321
 2454TIP3   OH228852   3.102   3.292  14.842 -0.0500  0.6564  0.5428
 2454TIP3    H128853   3.118   3.294  14.937 -2.2217  0.1501  0.9721
 2454TIP3    H228854   3.058   3.209  14.827  1.0143  0.3431 -1.0898
 2455TIP3   OH228855   3.567   6.735  14.877 -0.1303 -0.6350  0.1440
 2455TIP3    H128856   3.644   6.717  14.823  0.5150  0.7746  0.5311
 2455TIP3    H228857   3.534   6.649  14.902  2.0466 -1.3044  0.9795
 2456TIP3   OH228858   6.141   0.719  14.365 -0.1155 -0.2607  0.4510
 2456TIP3    H128859   6.153   0.811  14.387 -0.8836  0.6755 -2.6172
 2456TIP3    H228860   6.224   0.678  14.390  0.0453  1.0923  2.3627
 2457TIP3   OH228861   0.032   2.153   2.542 -0.1044 -0.0177 -0.9685
 2457TIP3    H128862   0.098   2.222   2.541  0.1208 -0.2316 -1.3006
 2457TIP3    H228863  -0.051   2.198   2.558  0.0840  0.2879 -0.8475
 2458TIP3   OH228864   2.706   4.440  11.926  0.6399  0.2883  0.3152
 2458TIP3    H128865   2.671   4.483  12.004 -2.3743 -0.9587 -0.2103
 2458TIP3    H228866   2.721   4.349  11.953 -1.7427 -0.5105 -0.7791
 2459TIP3   OH228867   3.206   3.246  14.075 -0.2666 -0.3239  0.7333
 2459TIP3    H128868   3.163   3.283  13.998 -1.7680 -0.7145  1.3551
 2459TIP3    H228869   3.214   3.320  14.135  0.2402 -0.1853  0.5064
 2460TIP3   OH228870   6.531   3.475  10.760  0.0795  0.3956 -0.2143
 2460TIP3    H128871   6.470   3.403  10.777  0.9169 -0.5534 -1.0648
 2460TIP3    H228872   6.614   3.432  10.742  0.7622  1.6198 -0.0903
 2461TIP3   OH228873   4.656   5.037   1.354 -0.0800  0.4616 -0.3303
 2461TIP3    H128874   4.698   5.011   1.272  0.6060  0.5443 -0.0122
 2461TIP3    H228875   4.565   5.011   1.343 -0.1136  0.9317 -1.3257
 2462TIP3   OH228876   0.037   3.852  14.341  0.4686 -0.2333 -0.4057
 2462TIP3    H128877   0.079   3.936  14.359 -0.1025  0.5018 -2.3309
 2462TIP3    H228878  -0.048   3.875  14.303 -0.5243 -1.6978  0.8020
 2463TIP3   OH228879   2.909   6.133  11.124  0.1779  0.1227  0.1866
 2463TIP3    H128880   2.978   6.129  11.058  0.7563  0.8292  0.7295
 2463TIP3    H228881   2.887   6.042  11.143  0.4214 -0.0912 -0.5459
 2464TIP3   OH228882   4.672   2.979   4.937  0.0472  0.2708 -0.7009
 2464TIP3    H128883   4.762   2.982   4.904  0.1819  0.6967 -0.2994
 2464TIP3    H228884   4.680   2.935   5.022 -0.3249 -1.0068 -1.3050
 2465TIP3   OH228885   0.958   0.886   3.421 -0.4181  0.0536  0.1463
 2465TIP3    H128886   0.959   0.816   3.355  2.7671  0.6258 -0.6049
 2465TIP3    H228887   0.993   0.844   3.500  0.5147  0.4875 -0.0167
 2466TIP3   OH228888   2.216   1.088   3.689  0.2277  0.2313 -0.1953
 2466TIP3    H128889   2.209   1.011   3.745  0.5624 -0.0323 -0.5126
 2466TIP3    H228890   2.309   1.113   3.695 -0.2841  1.9433  1.6754
 2467TIP3   OH228891   2.259   0.246   2.322  1.0914  0.0845 -0.2958
 2467TIP3    H128892   2.196   0.296   2.375  0.9356  0.3116 -0.6880
 2467TIP3    H228893   2.335   0.304   2.315  1.1204  0.0456 -0.3021
 2468TIP3   OH228894   2.531   2.588   2.928  0.4110 -0.0860 -0.0063
 2468TIP3    H128895   2.443   2.624   2.917  0.0060 -0.7281  0.9554
 2468TIP3    H228896   2.559   2.620   3.014 -0.2877 -2.6104  1.2687
 2469TIP3   OH228897   6.666   2.784   0.111  0.1787  0.0612 -0.1504
 2469TIP3    H128898   6.604   2.711   0.119  0.6452 -0.7891 -3.1197
 2469TIP3    H228899   6.751   2.745   0.133 -0.0236  0.7949  2.1971
 2470TIP3   OH228900   6.815   5.584  15.725  0.3335 -0.5294 -0.3478
 2470TIP3    H128901   6.823   5.622  15.812  0.1933 -3.9461  1.3523
 2470TIP3    H228902   6.903   5.553  15.704 -0.0681 -1.7761 -0.3009
 2471TIP3   OH228903   3.142   3.203  15.802 -0.0925 -0.5763  0.2992
 2471TIP3    H128904   3.047   3.201  15.813 -0.2262  0.7302 -0.4588
 2471TIP3    H228905   3.167   3.112  15.787 -1.3559 -0.7892 -0.5631
 2472TIP3   OH228906   0.090   2.517  13.979  0.0218 -0.0249 -0.2355
 2472TIP3    H128907   0.117   2.565  14.057 -1.0700 -1.3273  1.0176
 2472TIP3    H228908   0.002   2.549  13.960 -0.0194 -0.2675 -0.4642
 2473TIP3   OH228909   4.483   6.406   6.146 -0.1564 -0.0458  0.1214
 2473TIP3    H128910   4.452   6.415   6.056  0.6087 -1.6478 -0.3539
 2473TIP3    H228911   4.441   6.477   6.193 -2.8403 -0.8143 -0.9037
 2474TIP3   OH228912   2.568   2.271   4.093 -0.2310  0.3918  0.1184
 2474TIP3    H128913   2.497   2.322   4.132 -2.0765 -2.0306  0.1552
 2474TIP3    H228914   2.569   2.296   4.001 -2.2493 -0.5895 -0.2358
 2475TIP3   OH228915   1.232   4.444  13.037 -0.1709  0.4117  0.0571
 2475TIP3    H128916   1.256   4.437  12.945 -0.1396  0.1607  0.0839
 2475TIP3    H228917   1.313   4.423  13.085 -0.1243  0.7775  0.1384
 2476TIP3   OH228918   5.447   4.832  11.966 -0.3122 -0.2196  0.4820
 2476TIP3    H128919   5.491   4.747  11.969  1.5154  0.6930  1.5637
 2476TIP3    H228920   5.402   4.834  11.882 -1.1225 -2.5736  0.7988
 2477TIP3   OH228921   2.776   6.814  11.330  0.3450 -0.3177  0.4847
 2477TIP3    H128922   2.794   6.884  11.393  0.3121  0.7422 -0.6370
 2477TIP3    H228923   2.835   6.832  11.256 -1.2501 -0.1050 -0.8063
 2478TIP3   OH228924   2.186   0.780   1.913 -0.1448  0.0588  0.5613
 2478TIP3    H128925   2.125   0.841   1.956 -0.1259 -0.4251  1.2986
 2478TIP3    H228926   2.140   0.751   1.835 -0.4317  0.5002  0.5635
 2479TIP3   OH228927   4.120   6.059  10.718 -0.2987  0.0678  0.1037
 2479TIP3    H128928   4.078   6.122  10.777 -1.0681 -1.2359  1.0107
 2479TIP3    H228929   4.053   5.993  10.702  1.3680 -2.1293  1.6453
 2480TIP3   OH228930   3.249   6.815  15.696  0.4182 -0.9818  0.3535
 2480TIP3    H128931   3.238   6.722  15.678 -1.0859 -1.0795  1.5032
 2480TIP3    H228932   3.270   6.855  15.612 -1.8778 -1.9653 -0.7563
 2481TIP3   OH228933   6.463   0.369   3.150  0.0973 -0.0813 -0.5508
 2481TIP3    H128934   6.452   0.381   3.244  2.5720  0.0701 -0.2147
 2481TIP3    H228935   6.378   0.337   3.120 -1.2096  1.2474  1.4691
 2482TIP3   OH228936   1.885   5.390   2.724 -0.1748  0.5306  0.1088
 2482TIP3    H128937   1.930   5.464   2.764  1.8777 -0.2865 -0.5701
 2482TIP3    H228938   1.882   5.412   2.630 -1.0765  0.4888  0.1190
 2483TIP3   OH228939   5.351   5.301   0.592  0.3284 -0.4886 -0.1386
 2483TIP3    H128940   5.314   5.384   0.561  2.8914  1.0975  0.7046
 2483TIP3    H228941   5.322   5.236   0.528 -1.0376  1.2085 -1.3347
 2484TIP3   OH228942   0.190   2.279   2.741  0.2200  0.1483  0.3786
 2484TIP3    H128943   0.216   2.272   2.833  0.4698  0.5208  0.3397
 2484TIP3    H228944   0.125   2.210   2.729 -1.2502  1.3141  1.3371
 2485TIP3   OH228945   3.094   0.616  12.644 -0.4510  0.0534  0.1909
 2485TIP3    H128946   3.018   0.662  12.606 -0.9802 -0.0041  1.1625
 2485TIP3    H228947   3.152   0.601  12.569 -1.5834 -0.2712 -0.6513
 2486TIP3   OH228948   4.281   6.808   0.273  0.3183  0.3210 -0.1971
 2486TIP3    H128949   4.249   6.743   0.211  0.9539  0.8632 -1.1100
 2486TIP3    H228950   4.325   6.874   0.219  0.9798  0.7505  0.8324
 2487TIP3   OH228951   1.979   3.646  13.358 -0.3926 -1.1465 -0.2670
 2487TIP3    H128952   1.940   3.598  13.431 -0.3632 -1.1209 -0.2348
 2487TIP3    H228953   2.064   3.675  13.390 -1.6133  1.5752  0.8070
 2488TIP3   OH228954   6.707   2.709   3.415  0.1273  0.1806  0.5061
 2488TIP3    H128955   6.712   2.805   3.418 -0.1012  0.1799  0.9951
 2488TIP3    H228956   6.614   2.689   3.416  0.0812 -0.0056 -1.8012
 2489TIP3   OH228957   0.831   0.926   4.768  0.4122 -0.1371  0.3863
 2489TIP3    H128958   0.876   0.998   4.812 -0.9523  1.5443 -0.8457
 2489TIP3    H228959   0.860   0.932   4.677  0.8799 -1.6860  0.4045
 2490TIP3   OH228960   4.827   0.749   3.590 -0.1515 -0.0602 -0.0686
 2490TIP3    H128961   4.849   0.674   3.534 -0.6332 -2.2697  2.4604
 2490TIP3    H228962   4.733   0.740   3.605 -0.2811  1.2899 -0.0132
 2491TIP3   OH228963   2.904   2.802   4.905  0.1185 -0.8343  0.3223
 2491TIP3    H128964   2.831   2.818   4.965 -0.9112  0.0086 -1.0927
 2491TIP3    H228965   2.937   2.890   4.884 -0.5571 -0.9867 -1.5292
 2492TIP3   OH228966   1.137   6.489  11.318  0.8641  0.0763 -0.5188
 2492TIP3    H128967   1.095   6.446  11.243  0.6119  2.2334 -1.7013
 2492TIP3    H228968   1.218   6.441  11.332 -1.3432 -3.5598  1.1513
 2493TIP3   OH228969   6.634   5.030   2.781  0.1405 -0.3083 -0.1005
 2493TIP3    H128970   6.586   5.113   2.786 -0.1762 -0.3774 -1.6426
 2493TIP3    H228971   6.568   4.963   2.796 -0.0189 -0.3573 -1.0039
 2494TIP3   OH228972   5.064   0.884  13.322 -0.0364 -0.3732  0.0562
 2494TIP3    H128973   5.011   0.813  13.360 -0.2345 -0.1727  0.1554
 2494TIP3    H228974   5.076   0.946  13.394 -2.7067  1.3763 -0.8356
 2495TIP3   OH228975   3.852   6.152   1.882  0.1180 -0.1283 -0.7303
 2495TIP3    H128976   3.937   6.119   1.854 -0.8410 -1.8735 -1.7388
 2495TIP3    H228977   3.813   6.081   1.932  0.0235  1.3901  1.5044
 2496TIP3   OH228978   1.323   1.047  16.058 -0.5036  0.1167 -0.4896
 2496TIP3    H128979   1.311   0.955  16.084  0.4375  0.4436  1.2609
 2496TIP3    H228980   1.414   1.052  16.030  0.1667  0.9598  1.6509
 2497TIP3   OH228981   0.200   5.204   2.969 -0.4039 -0.4809  0.2666
 2497TIP3    H128982   0.180   5.115   2.938 -0.9126 -0.3577  0.2214
 2497TIP3    H228983   0.115   5.239   2.996 -0.5522  0.7183 -1.5872
 2498TIP3   OH228984   3.308   3.159  14.718 -0.1462  0.0037 -0.2307
 2498TIP3    H128985   3.292   3.068  14.741 -0.3195  0.0260 -0.2630
 2498TIP3    H228986   3.285   3.208  14.797 -0.6475  0.0722 -0.4178
 2499TIP3   OH228987   6.581   1.552  14.514 -1.0797  0.3381  0.0579
 2499TIP3    H128988   6.607   1.574  14.603 -0.5927 -2.2754  0.6316
 2499TIP3    H228989   6.662   1.558  14.463 -0.3955 -2.2000  0.6999
 2500TIP3   OH228990   6.184   1.988  11.177 -0.1336 -0.6131 -0.8292
 2500TIP3    H128991   6.119   1.999  11.246  0.2835 -0.6950 -0.4101
 2500TIP3    H228992   6.174   2.066  11.122 -1.4297 -1.2323 -1.5117
 2501TIP3   OH228993   3.019   5.307   1.352 -0.1560  0.2007  0.0634
 2501TIP3    H128994   2.931   5.331   1.322  0.9036  0.3928 -3.2676
 2501TIP3    H228995   3.009   5.219   1.390 -1.7006  0.0495 -0.6485
 2502TIP3   OH228996   2.974   2.626   5.579  0.1573  0.1000 -0.4448
 2502TIP3    H128997   2.916   2.685   5.628  0.3974  0.7386 -0.9177
 2502TIP3    H228998   2.927   2.543   5.576 -1.1308  0.8237 -1.5368
 2503TIP3   OH228999   0.646   2.447   3.882  0.3332 -0.1077 -0.1543
 2503TIP3    H129000   0.701   2.369   3.890  3.9283  2.1541 -0.2682
 2503TIP3    H229001   0.642   2.482   3.971  0.5257  0.6239 -0.4255
 2504TIP3   OH229002   6.687   3.204   6.303  0.0662 -0.4619 -0.0895
 2504TIP3    H129003   6.594   3.210   6.325  0.1698  1.2000  0.0546
 2504TIP3    H229004   6.720   3.294   6.313  1.9025 -1.1653  0.7876
 2505TIP3   OH229005   6.496   2.177  12.188  0.2415  0.4792  0.4000
 2505TIP3    H129006   6.561   2.236  12.227 -0.4007  0.9968  0.7174
 2505TIP3    H229007   6.462   2.225  12.113 -0.5448  0.6869  0.8686
 2506TIP3   OH229008   5.248   4.297   2.678  0.1088  0.1929  0.3961
 2506TIP3    H129009   5.231   4.203   2.677 -0.9487  0.3456  1.7876
 2506TIP3    H229010   5.201   4.330   2.754  2.5719  1.4522  1.5159
 2507TIP3   OH229011   6.730   5.304   4.631  0.0276  0.1209  0.1353
 2507TIP3    H129012   6.659   5.270   4.686 -1.1919  1.6290 -0.4074
 2507TIP3    H229013   6.737   5.397   4.656  2.1191 -0.0796  0.4649
 2508TIP3   OH229014   1.003   0.196   2.940 -0.4060  0.0006  0.3700
 2508TIP3    H129015   0.919   0.240   2.947 -1.0282 -1.2469  1.4038
 2508TIP3    H229016   1.008   0.165   2.850 -3.1315 -3.6313  1.2193
 2509TIP3   OH229017   6.650   4.991   3.986 -0.1017  0.3232  0.6217
 2509TIP3    H129018   6.686   4.943   3.911 -3.0043 -3.7543  1.4749
 2509TIP3    H229019   6.586   5.051   3.948  0.2415  0.1355 -0.2675
 2510TIP3   OH229020   3.153   2.062   6.298 -0.1150 -0.2019  0.5883
 2510TIP3    H129021   3.192   2.108   6.372 -0.3293 -1.7272  1.7203
 2510TIP3    H229022   3.223   2.007   6.263 -0.3335 -0.3836  0.4285
 2511TIP3   OH229023   4.764   1.630  11.245 -0.0800 -0.4545 -0.0393
 2511TIP3    H129024   4.812   1.637  11.327  0.3477  1.8826 -0.4131
 2511TIP3    H229025   4.680   1.673  11.263 -0.8909 -1.8693 -0.2465
 2512TIP3   OH229026   5.489   1.245  14.396 -0.5289  0.8723 -0.1387
 2512TIP3    H129027   5.403   1.214  14.424 -0.8373  0.1791 -1.7492
 2512TIP3    H229028   5.520   1.298  14.470 -0.6336 -1.9708  2.1454
 2513TIP3   OH229029   1.819   1.781  14.327 -0.1118 -0.0939 -0.2054
 2513TIP3    H129030   1.728   1.809  14.315 -0.7568 -1.7495  0.3736
 2513TIP3    H229031   1.828   1.705  14.268 -0.3067 -2.2315  2.3222
 2514TIP3   OH229032   4.800   4.450   2.446 -0.1730 -0.2406  0.1505
 2514TIP3    H129033   4.720   4.398   2.452  0.6000 -1.3180  2.1527
 2514TIP3    H229034   4.778   4.534   2.486 -0.4452 -0.3292  0.1848
 2515TIP3   OH229035   1.268   3.371  14.045  0.0252  0.1928  0.0289
 2515TIP3    H129036   1.295   3.463  14.054 -3.2673  1.3023  0.2583
 2515TIP3    H229037   1.252   3.342  14.134  0.4796 -0.4132 -0.0854
 2516TIP3   OH229038   2.467   1.943  14.340  0.2713  0.7021 -0.0729
 2516TIP3    H129039   2.408   1.960  14.414  0.4857  3.0433 -0.3599
 2516TIP3    H229040   2.475   2.027  14.296  2.7025  0.1334 -0.8851
 2517TIP3   OH229041   5.737   4.757  13.654  0.1919 -0.0255 -0.0314
 2517TIP3    H129042   5.665   4.742  13.593  1.8006  0.1528 -2.0449
 2517TIP3    H229043   5.762   4.669  13.684 -0.6762 -0.1022  0.5183
 2518TIP3   OH229044   5.847   6.262  17.237  0.3369  0.1000  0.4276
 2518TIP3    H129045   5.898   6.315  17.298  0.5391 -0.9098  1.1465
 2518TIP3    H229046   5.873   6.172  17.254 -1.3155 -0.4095  0.4819
 2519TIP3   OH229047   1.546   4.133  13.813  0.9584  0.6036 -0.2640
 2519TIP3    H129048   1.616   4.081  13.776 -0.1856 -0.6134 -0.7952
 2519TIP3    H229049   1.520   4.192  13.743  2.0270  1.6944  0.2270
 2520TIP3   OH229050   1.504   5.400  14.400 -0.1650 -0.4622  0.0267
 2520TIP3    H129051   1.533   5.318  14.361 -1.4535 -1.8050  1.7535
 2520TIP3    H229052   1.422   5.379  14.444 -0.0023  1.5000  1.4222
 2521TIP3   OH229053   2.206   2.086  15.150  0.0362  0.1310  0.0467
 2521TIP3    H129054   2.111   2.092  15.134  0.2764 -0.8758 -2.1048
 2521TIP3    H229055   2.222   1.993  15.163  1.0064 -0.0288 -1.9584
 2522TIP3   OH229056   0.991   2.379   0.998 -0.0191 -0.2585 -0.3195
 2522TIP3    H129057   1.054   2.321   0.954 -1.2063 -1.8594 -0.0210
 2522TIP3    H229058   0.999   2.355   1.091 -0.1783  0.4256 -0.1303
 2523TIP3   OH229059   3.081   6.353  14.974 -0.0986 -1.2542 -0.2871
 2523TIP3    H129060   3.153   6.357  14.911  0.0653 -0.8791 -0.0786
 2523TIP3    H229061   3.062   6.259  14.982  0.6755 -1.4020  0.0031
 2524TIP3   OH229062   4.175   5.304   4.110  0.8784  0.0260  0.5290
 2524TIP3    H129063   4.128   5.225   4.081 -0.0307  0.7114  0.0971
 2524TIP3    H229064   4.219   5.337   4.032  2.3463 -0.7552  0.9868
 2525TIP3   OH229065   4.485   6.470   3.384 -0.5485 -0.3057  0.4988
 2525TIP3    H129066   4.515   6.424   3.462 -1.9990  0.3607  1.4926
 2525TIP3    H229067   4.547   6.541   3.372 -1.3683  0.7577  2.2305
 2526TIP3   OH229068   4.120   2.665  11.912  0.1528  0.3599 -0.1105
 2526TIP3    H129069   4.024   2.669  11.912  0.0694 -1.1588 -0.0902
 2526TIP3    H229070   4.143   2.647  11.821  0.3840  0.0806  0.0015
 2527TIP3   OH229071   0.071   2.300   5.049  0.0023 -0.0280 -0.6530
 2527TIP3    H129072   0.120   2.245   5.110 -0.0234 -0.1271 -0.7208
 2527TIP3    H229073   0.048   2.241   4.977 -1.2009 -0.2756 -0.0939
 2528TIP3   OH229074   6.434   0.835  11.358 -0.3025  0.3035  0.2742
 2528TIP3    H129075   6.348   0.840  11.316  0.0370  0.3242 -0.4266
 2528TIP3    H229076   6.489   0.893  11.306  0.1961  0.0969  0.5709
 2529TIP3   OH229077   6.348   0.225   1.667  0.4894 -0.0833  0.2283
 2529TIP3    H129078   6.354   0.321   1.662 -1.0819 -0.0183 -2.6162
 2529TIP3    H229079   6.414   0.194   1.605 -0.2237 -0.7550 -0.2082
 2530TIP3   OH229080   5.850   2.411  14.973 -0.0388  0.1366 -0.0894
 2530TIP3    H129081   5.904   2.481  15.009 -0.9663  0.1709  1.3239
 2530TIP3    H229082   5.906   2.334  14.973  0.4905  0.5208 -0.1260
 2531TIP3   OH229083   3.193   6.101  14.502 -0.0201 -0.0610 -0.1896
 2531TIP3    H129084   3.142   6.033  14.458  0.5340 -1.2183  0.8618
 2531TIP3    H229085   3.269   6.054  14.537 -0.5573  0.7165  2.1909
 2532TIP3   OH229086   5.465   4.866  16.497  0.0157 -0.1873 -0.4021
 2532TIP3    H129087   5.466   4.830  16.586  2.1677 -2.2842 -1.1781
 2532TIP3    H229088   5.397   4.816  16.452 -1.7732  1.5561  0.2442
 2533TIP3   OH229089   5.514   1.109   1.792 -0.0982 -0.2753 -0.2521
 2533TIP3    H129090   5.582   1.150   1.738  0.4890 -1.5600 -0.5140
 2533TIP3    H229091   5.435   1.113   1.739 -0.3544  1.5219  0.1812
 2534TIP3   OH229092   0.041   5.362   1.614 -0.4753  0.1333 -0.8234
 2534TIP3    H129093   0.049   5.443   1.562  0.7189 -0.0724 -1.0040
 2534TIP3    H229094   0.114   5.368   1.676 -0.9374 -0.3829 -0.2272
 2535TIP3   OH229095   3.211   5.328  15.822  0.1816 -0.0928 -0.3414
 2535TIP3    H129096   3.140   5.361  15.878  1.3164 -1.5507  2.1021
 2535TIP3    H229097   3.286   5.383  15.843  0.4102 -0.0670 -1.1775
 2536TIP3   OH229098   4.274   4.179  14.315 -0.6787  0.1615  0.1296
 2536TIP3    H129099   4.212   4.224  14.258 -0.0472  1.2497  0.2764
 2536TIP3    H229100   4.267   4.224  14.399 -0.5224 -0.4519  0.4753
 2537TIP3   OH229101   6.312   2.712   0.264  0.5271  0.0490 -0.7626
 2537TIP3    H129102   6.243   2.777   0.260  0.7484  0.3403 -0.0390
 2537TIP3    H229103   6.299   2.658   0.186 -0.3721  0.2336 -0.7460
 2538TIP3   OH229104   5.101   5.999   1.898  0.1154 -0.2981  0.5594
 2538TIP3    H129105   5.188   6.029   1.872 -0.0565  0.2942  0.6546
 2538TIP3    H229106   5.084   5.923   1.843 -0.0404  0.6387 -0.7346
 2539TIP3   OH229107   6.474   1.990   5.616  0.3313 -0.0841  0.2055
 2539TIP3    H129108   6.419   2.037   5.679 -0.7478 -1.8247  0.6198
 2539TIP3    H229109   6.414   1.932   5.569  1.6017 -1.0361 -0.3164
 2540TIP3   OH229110   0.149   5.087  10.531  0.0265  0.7143  0.5857
 2540TIP3    H129111   0.180   5.016  10.475  0.6553  2.1553 -1.0029
 2540TIP3    H229112   0.222   5.103  10.591 -0.1825 -0.0578  1.0625
 2541TIP3   OH229113   0.985   0.745   0.187 -0.2824 -0.1172 -0.1392
 2541TIP3    H129114   0.978   0.735   0.092 -0.2434  0.9877 -0.2721
 2541TIP3    H229115   0.897   0.771   0.214 -0.1459  0.1434  0.0496
 2542TIP3   OH229116   5.490   1.106  11.212 -0.3528 -0.1216  0.3991
 2542TIP3    H129117   5.585   1.093  11.213 -0.4351 -0.7472  0.6036
 2542TIP3    H229118   5.469   1.117  11.119 -0.2821 -1.6718  0.1668
 2543TIP3   OH229119   2.790   2.048  14.271 -0.1246  0.0894  0.0953
 2543TIP3    H129120   2.774   2.031  14.364 -2.0560 -2.4738 -0.6057
 2543TIP3    H229121   2.883   2.073  14.267 -0.1251  0.7856  2.7321
 2544TIP3   OH229122   6.821   4.960  15.475  0.1491 -0.1334  0.2757
 2544TIP3    H129123   6.772   4.888  15.434 -0.6712  1.4785 -1.7967
 2544TIP3    H229124   6.754   5.015  15.514  0.6586  0.1444  0.7695
 2545TIP3   OH229125   0.692   1.165  16.910  0.6807 -0.5829 -0.4349
 2545TIP3    H129126   0.710   1.232  16.976 -1.5581 -0.8583  0.5322
 2545TIP3    H229127   0.694   1.212  16.826 -1.6665  0.9392  0.2777
 2546TIP3   OH229128   2.405   4.264  11.910 -0.2511  0.2243  0.6023
 2546TIP3    H129129   2.399   4.192  11.847  0.6103  0.9505 -0.3366
 2546TIP3    H229130   2.428   4.222  11.992 -3.1181 -0.9582  0.9128
 2547TIP3   OH229131   1.466   6.481   5.558  0.3746 -0.2711 -1.1492
 2547TIP3    H129132   1.464   6.411   5.492 -0.3482 -0.6988 -0.6893
 2547TIP3    H229133   1.557   6.482   5.588  0.4649 -0.8178 -1.3780
 2548TIP3   OH229134   4.281   4.359   1.398 -0.1113  0.4386 -0.7918
 2548TIP3    H129135   4.225   4.284   1.420  0.3167  0.5956  1.0568
 2548TIP3    H229136   4.370   4.323   1.394  0.5705  1.1607  3.1403
 2549TIP3   OH229137   3.513   6.693   4.121 -0.2125 -0.3641 -0.5821
 2549TIP3    H129138   3.453   6.768   4.125 -0.1250 -0.2827 -0.7891
 2549TIP3    H229139   3.458   6.617   4.138 -0.0382 -0.1251  1.2546
 2550TIP3   OH229140   0.530   2.789  13.344  0.6184  0.3695  0.7127
 2550TIP3    H129141   0.463   2.724  13.365 -0.6338  1.2200 -0.4340
 2550TIP3    H229142   0.531   2.792  13.248  2.1319  0.5767  0.7122
 2551TIP3   OH229143   2.090   5.649  13.210  0.0501  0.2780 -0.4917
 2551TIP3    H129144   2.141   5.725  13.239  0.7664  0.0896 -1.2008
 2551TIP3    H229145   2.137   5.574  13.247 -1.5651  0.2099  1.5741
 2552TIP3   OH229146   1.177   5.207  16.514  0.8338  0.2126 -0.3080
 2552TIP3    H129147   1.167   5.135  16.453 -0.2822  0.7365 -0.7714
 2552TIP3    H229148   1.258   5.250  16.488 -0.0751  0.9706 -2.0420
 2553TIP3   OH229149   6.123   2.831  10.179 -0.2164 -0.1290 -0.1162
 2553TIP3    H129150   6.062   2.778  10.127 -0.0593 -0.7547  0.3279
 2553TIP3    H229151   6.108   2.921  10.149 -2.6671  0.0073  1.2123
 2554TIP3   OH229152   1.088   4.347   4.810 -0.9611  0.4537 -0.0160
 2554TIP3    H129153   1.080   4.285   4.738 -0.3801  0.1683  0.1572
 2554TIP3    H229154   1.155   4.309   4.867 -1.6244  0.5195  0.8278
 2555TIP3   OH229155   1.598   4.088  14.755 -0.4307 -0.4461  0.0690
 2555TIP3    H129156   1.681   4.096  14.801 -1.5844  0.4062  2.1505
 2555TIP3    H229157   1.561   4.005  14.785 -1.0542 -0.0331  0.4823
 2556TIP3   OH229158   4.787   4.498  13.756 -0.4580 -0.1477 -0.1351
 2556TIP3    H129159   4.805   4.474  13.847  0.2138 -0.2219 -0.2829
 2556TIP3    H229160   4.760   4.590  13.761 -1.1345 -0.3599  0.2149
 2557TIP3   OH229161   5.453   3.527  13.300  0.0090 -0.0196 -0.4290
 2557TIP3    H129162   5.480   3.443  13.336 -1.0361 -0.1706  0.0645
 2557TIP3    H229163   5.410   3.505  13.217  1.0895  0.1905 -1.0689
 2558TIP3   OH229164   0.867   1.716  12.107 -0.7022  0.4477  0.3988
 2558TIP3    H129165   0.938   1.760  12.153 -0.3225  0.6568 -0.3701
 2558TIP3    H229166   0.906   1.635  12.075  0.5121  2.3729 -3.6549
 2559TIP3   OH229167   5.123   4.680  15.109  0.1927 -0.2163 -0.1606
 2559TIP3    H129168   5.111   4.601  15.056  0.9850  1.0956 -2.4480
 2559TIP3    H229169   5.216   4.680  15.132  0.0100 -0.3814  0.6234
 2560TIP3   OH229170   0.549   5.041   2.518 -0.4052  0.1928 -0.1986
 2560TIP3    H129171   0.612   5.054   2.447  0.1871 -0.7994  0.1159
 2560TIP3    H229172   0.464   5.033   2.474 -0.0935 -0.0453 -0.7639
 2561TIP3   OH229173   3.387   1.839   1.615  0.2182  0.6086 -0.0682
 2561TIP3    H129174   3.354   1.749   1.624 -0.9115  1.0478  0.4572
 2561TIP3    H229175   3.373   1.861   1.523  1.5302 -0.1217 -0.4601
 2562TIP3   OH229176   5.775   2.629   0.537  0.6524  0.6366  0.1639
 2562TIP3    H129177   5.758   2.629   0.631 -1.0469  1.3477 -0.0964
 2562TIP3    H229178   5.844   2.695   0.524  0.3284  1.1161  0.8357
 2563TIP3   OH229179   3.835   4.848  12.847 -0.1633 -0.6736  0.1202
 2563TIP3    H129180   3.801   4.785  12.911 -0.6622 -0.1386  0.3883
 2563TIP3    H229181   3.885   4.794  12.786 -0.1167 -1.2625  0.6570
 2564TIP3   OH229182   4.658   3.098  16.148  0.2703  0.2763  0.1312
 2564TIP3    H129183   4.588   3.040  16.118  0.9754  0.7326 -2.6800
 2564TIP3    H229184   4.627   3.186  16.127  0.8078  0.6280  0.7985
 2565TIP3   OH229185   3.580   6.209   3.775  0.6845 -0.0373  0.3264
 2565TIP3    H129186   3.579   6.164   3.691  0.0172  1.2370 -0.3899
 2565TIP3    H229187   3.586   6.302   3.752 -0.6457  0.4208  1.6194
 2566TIP3   OH229188   1.003   3.625  15.114 -0.1603 -0.7362 -0.5445
 2566TIP3    H129189   0.937   3.693  15.128  1.8381  1.3353 -0.5660
 2566TIP3    H229190   1.010   3.618  15.019 -0.4195 -1.0026 -0.5417
 2567TIP3   OH229191   6.639   2.759   4.168 -0.1190  0.0002  0.0357
 2567TIP3    H129192   6.556   2.727   4.133 -0.9463 -0.6144  2.3302
 2567TIP3    H229193   6.634   2.854   4.156 -1.1363 -0.0327  0.0528
 2568TIP3   OH229194   2.339   3.724   5.411 -0.2724  0.8338 -0.6049
 2568TIP3    H129195   2.296   3.788   5.468  1.9798  2.4822 -0.6030
 2568TIP3    H229196   2.398   3.777   5.357  1.7799 -1.2483 -0.5247
 2569TIP3   OH229197   0.334   5.596  12.234  0.3058  0.0118 -0.0101
 2569TIP3    H129198   0.424   5.600  12.266  0.0612 -0.4070  0.7279
 2569TIP3    H229199   0.337   5.643  12.150  1.1753  0.1348  0.0821
 2570TIP3   OH229200   1.093   2.730  11.631 -0.1529 -0.5955  0.5956
 2570TIP3    H129201   1.186   2.717  11.652 -0.0159  0.0446  0.3954
 2570TIP3    H229202   1.047   2.683  11.700  0.3172 -0.1776  1.2104
 2571TIP3   OH229203   4.169   3.435  15.917 -0.0292  0.2068 -0.2039
 2571TIP3    H129204   4.101   3.502  15.916  0.4591  1.1246  4.5478
 2571TIP3    H229205   4.127   3.359  15.957  0.6077 -0.8939 -1.5277
 2572TIP3   OH229206   5.450   1.444  14.864 -0.0341  0.0421 -0.5530
 2572TIP3    H129207   5.502   1.497  14.924  0.3376 -1.1636  0.2293
 2572TIP3    H229208   5.381   1.406  14.918  0.8988 -1.8738 -0.6013
 2573TIP3   OH229209   0.888   3.843  16.015  0.2914  0.3516 -0.1418
 2573TIP3    H129210   0.802   3.806  16.034  0.0125  1.4644  0.8455
 2573TIP3    H229211   0.899   3.912  16.080  1.9087  0.2668 -0.2941
 2574TIP3   OH229212   5.739   0.050   4.308 -0.1509 -0.2564  0.8470
 2574TIP3    H129213   5.717  -0.044   4.311  1.6973 -0.7626 -0.0421
 2574TIP3    H229214   5.659   0.094   4.335 -1.0803 -2.0984  1.2512
 2575TIP3   OH229215   1.196   6.784   6.330  0.3076 -0.5877 -0.1270
 2575TIP3    H129216   1.169   6.726   6.402  0.3937  1.3099  1.5192
 2575TIP3    H229217   1.287   6.807   6.351  0.2658  0.1418 -0.7386
 2576TIP3   OH229218   5.147   5.111   2.861  0.9288  0.1147  0.8218
 2576TIP3    H129219   5.133   5.033   2.916  0.2295 -0.9133 -0.7413
 2576TIP3    H229220   5.074   5.169   2.882  0.7155 -0.2324  1.0462
 2577TIP3   OH229221   4.904   2.439   3.271  0.1780 -0.3265  0.6787
 2577TIP3    H129222   4.917   2.396   3.187 -1.1258  2.1302 -0.9079
 2577TIP3    H229223   4.810   2.428   3.289 -0.0239  1.1022  0.6099
 2578TIP3   OH229224   5.003   5.698  16.462  0.3556  0.0807  0.5245
 2578TIP3    H129225   5.002   5.602  16.458 -2.5429  0.0164  0.6939
 2578TIP3    H229226   5.034   5.717  16.550  0.2050 -0.7507  0.7689
 2579TIP3   OH229227   0.646   6.033   5.132 -0.6202  0.5627  0.2819
 2579TIP3    H129228   0.663   6.122   5.163 -1.5917  0.2633  1.7339
 2579TIP3    H229229   0.708   5.978   5.181 -1.9786  0.1214  1.5786
 2580TIP3   OH229230   3.979   0.413   1.190  0.1792 -0.3776 -0.1265
 2580TIP3    H129231   3.969   0.446   1.279 -1.3764 -0.3796 -0.2829
 2580TIP3    H229232   3.894   0.429   1.148  0.7751 -0.6747 -1.5126
 2581TIP3   OH229233   2.079   2.323   4.309  0.5423 -0.1657 -0.1050
 2581TIP3    H129234   2.138   2.288   4.375  0.7950  0.7182  0.1508
 2581TIP3    H229235   1.995   2.332   4.354  1.0404  1.6962  0.5091
 2582TIP3   OH229236   4.212   0.009   0.954 -0.0240  0.4477  0.0350
 2582TIP3    H129237   4.303  -0.012   0.931 -0.1148  0.5114 -0.3834
 2582TIP3    H229238   4.166  -0.075   0.948 -0.4452  0.7827 -1.9105
 2583TIP3   OH229239   6.681   0.879   1.787  0.3162  0.2692  0.6016
 2583TIP3    H129240   6.758   0.853   1.837  1.9352  1.8329 -0.9115
 2583TIP3    H229241   6.671   0.810   1.721  0.2420 -0.0845  0.9811
 2584TIP3   OH229242   5.477   2.289  16.241 -0.2963 -0.5793 -0.6680
 2584TIP3    H129243   5.463   2.364  16.299 -0.6945 -1.4036  0.3327
 2584TIP3    H229244   5.501   2.217  16.300 -1.0794 -1.5342 -1.4756
 2585TIP3   OH229245   2.076   2.599   2.473  0.3058 -0.1349  0.1306
 2585TIP3    H129246   2.023   2.521   2.458  2.6001 -1.7392 -0.1988
 2585TIP3    H229247   2.085   2.638   2.386 -0.0901 -0.0018  0.1458
 2586TIP3   OH229248   2.586   3.332   4.346  0.3778 -0.1877 -0.1943
 2586TIP3    H129249   2.645   3.401   4.316  0.0486 -0.5886 -1.8662
 2586TIP3    H229250   2.507   3.379   4.373  0.8487  0.2232  0.5014
 2587TIP3   OH229251   4.531   6.188  13.928 -0.5486  0.0911  0.0395
 2587TIP3    H129252   4.613   6.222  13.964 -0.6276 -1.1586  1.5084
 2587TIP3    H229253   4.558   6.138  13.851 -0.1399  1.0262 -0.4502
 2588TIP3   OH229254   6.516   0.881  17.231 -0.5196  0.4539  0.1205
 2588TIP3    H129255   6.526   0.830  17.311 -1.0395 -0.4245 -0.3626
 2588TIP3    H229256   6.600   0.872  17.186 -0.0579  1.3339  0.7618
 2589TIP3   OH229257   1.199   4.426  16.639  0.0708  0.4711  0.1208
 2589TIP3    H129258   1.182   4.439  16.733 -1.3179  0.6080 -0.1159
 2589TIP3    H229259   1.279   4.374  16.635 -0.2277 -0.1219  1.4050
 2590TIP3   OH229260   6.244   5.301   2.294 -0.0666 -0.2030 -0.1078
 2590TIP3    H129261   6.271   5.321   2.384 -0.6983  0.4113 -0.0505
 2590TIP3    H229262   6.201   5.215   2.300  0.1540 -0.2993  0.1226
 2591TIP3   OH229263   5.134   5.016   5.436 -0.3498 -0.2142  0.0378
 2591TIP3    H129264   5.164   5.057   5.517 -1.1916 -0.1027  0.3032
 2591TIP3    H229265   5.038   5.017   5.442 -0.4061 -1.2484 -0.4376
 2592TIP3   OH229266   5.525   6.446  12.874 -0.7718  0.4233  0.0332
 2592TIP3    H129267   5.592   6.478  12.814 -0.5738  0.9253  0.5096
 2592TIP3    H229268   5.478   6.525  12.902 -1.7666  0.0432 -0.5358
 2593TIP3   OH229269   4.093   1.039   4.560  0.6241 -0.2100 -0.3466
 2593TIP3    H129270   4.185   1.015   4.559 -0.0813 -3.5159 -2.9533
 2593TIP3    H229271   4.046   0.955   4.560 -2.3547  1.3174 -0.8054
 2594TIP3   OH229272   1.710   3.968  15.646  0.1717  0.4944  0.3859
 2594TIP3    H129273   1.748   4.053  15.628 -0.0557  0.7970  1.3099
 2594TIP3    H229274   1.631   3.965  15.591  0.8663  0.3377 -0.6286
 2595TIP3   OH229275   0.198   1.988   5.569 -0.0740  0.6348  0.1143
 2595TIP3    H129276   0.147   2.028   5.640 -0.7083  0.4374 -0.2191
 2595TIP3    H229277   0.268   2.051   5.552  0.5222  0.3533  1.3915
 2596TIP3   OH229278   6.664   6.617   2.615 -0.6202 -0.3918  0.0269
 2596TIP3    H129279   6.676   6.702   2.657  0.8402  0.4727 -1.9733
 2596TIP3    H229280   6.682   6.553   2.684 -1.2570  0.8902  1.4475
 2597TIP3   OH229281   6.824   5.655  16.854  1.0616  0.9177  0.1334
 2597TIP3    H129282   6.745   5.644  16.906  0.3925  2.4754 -0.4743
 2597TIP3    H229283   6.802   5.618  16.769  1.0390  1.1700  0.0262
 2598TIP3   OH229284   0.858   6.360  13.106 -0.3881 -0.1548 -0.5458
 2598TIP3    H129285   0.770   6.339  13.139 -0.6446 -0.2807 -1.2785
 2598TIP3    H229286   0.902   6.275  13.099 -0.9750 -0.3670 -2.2569
 2599TIP3   OH229287   0.045   0.775   2.577 -0.0942 -0.1138 -0.6790
 2599TIP3    H129288   0.027   0.687   2.608 -0.0039 -0.9880 -2.8836
 2599TIP3    H229289   0.134   0.794   2.606  0.5422 -1.4914 -1.6123
 2600TIP3   OH229290   6.610   2.852  14.385  0.0253  0.2342 -0.5216
 2600TIP3    H129291   6.638   2.943  14.381  1.7240 -0.1688  1.0537
 2600TIP3    H229292   6.691   2.801  14.393 -0.9527 -1.2071  1.2083
 2601TIP3   OH229293   4.961   3.744  16.444  0.3057 -0.1794 -0.5717
 2601TIP3    H129294   4.931   3.684  16.511  0.9314 -0.7108 -0.7526
 2601TIP3    H229295   5.025   3.800  16.488 -1.2315  1.2317 -0.0809
 2602TIP3   OH229296   0.792   0.204   0.539 -0.1247  0.5994 -0.2386
 2602TIP3    H129297   0.839   0.262   0.479  1.9526  1.1015  1.7263
 2602TIP3    H229298   0.855   0.135   0.559 -0.6331  0.6056  1.5506
 2603TIP3   OH229299   4.006   6.192  14.100  0.9889  0.1835  0.7294
 2603TIP3    H129300   3.976   6.252  14.032  2.6828  1.7551  1.2963
 2603TIP3    H229301   4.061   6.128  14.054 -1.0239 -1.2067  0.0860
 2604TIP3   OH229302   3.184   0.666   2.423  0.6232 -0.0562  0.2577
 2604TIP3    H129303   3.131   0.743   2.402  1.0368  0.5728  1.4108
 2604TIP3    H229304   3.191   0.619   2.341 -0.8738  0.3724 -0.1561
 2605TIP3   OH229305   1.947   3.542   2.178  0.3222  0.1007  0.0668
 2605TIP3    H129306   1.998   3.610   2.222 -0.3028 -0.6915  2.1292
 2605TIP3    H229307   2.014   3.481   2.144  0.8061  0.3135  0.6220
 2606TIP3   OH229308   3.868   3.048  11.626 -0.3757 -0.8782 -0.1955
 2606TIP3    H129309   3.841   3.120  11.568 -0.3509  0.8172  1.7476
 2606TIP3    H229310   3.955   3.023  11.596 -0.2675  0.1163 -0.7524
 2607TIP3   OH229311   3.129   4.668  13.510 -0.8620 -0.3195  0.1888
 2607TIP3    H129312   3.196   4.638  13.571 -1.1066  0.3489  0.8038
 2607TIP3    H229313   3.111   4.592  13.454  0.6549 -0.4077 -0.2269
 2608TIP3   OH229314   5.812   2.212  14.004 -0.3583 -0.3273  0.3293
 2608TIP3    H129315   5.736   2.171  13.963 -0.0185  0.3138 -1.0034
 2608TIP3    H229316   5.778   2.293  14.043 -0.2589  0.3487 -0.9274
 2609TIP3   OH229317   3.071   2.003  14.828  0.6448 -0.1690 -0.3834
 2609TIP3    H129318   3.138   2.002  14.897  2.6452  2.0490 -2.1431
 2609TIP3    H229319   2.991   2.027  14.874  1.9355  1.3639  1.2011
 2610TIP3   OH229320   2.816   6.453  14.968  0.1976 -0.0928  0.4258
 2610TIP3    H129321   2.903   6.449  15.007 -1.0241  1.8336  3.7963
 2610TIP3    H229322   2.769   6.378  15.004  0.4284 -1.2835 -1.5901
 2611TIP3   OH229323   6.168   2.302   5.775  0.2579 -0.0828  0.4338
 2611TIP3    H129324   6.132   2.274   5.690  0.9701  1.4638 -0.4145
 2611TIP3    H229325   6.161   2.397   5.773  1.1786  0.0282  1.7194
 2612TIP3   OH229326   0.900   3.547  16.130 -0.4215 -0.5969 -0.0999
 2612TIP3    H129327   0.898   3.631  16.085 -0.3506  0.1683  1.2701
 2612TIP3    H229328   0.967   3.557  16.198 -2.5497 -0.5792  2.1861
 2613TIP3   OH229329   4.189   5.327  14.630 -0.0700  0.0855  0.4422
 2613TIP3    H129330   4.107   5.355  14.589 -1.0139 -0.5611  1.7895
 2613TIP3    H229331   4.227   5.407  14.666 -1.2570  0.1127  1.7201
 2614TIP3   OH229332   4.182   2.800  15.041 -0.0922  0.3764 -0.9463
 2614TIP3    H129333   4.146   2.756  15.118 -0.8847  1.6463 -0.5548
 2614TIP3    H229334   4.277   2.785  15.047 -0.3499 -1.5479 -1.0492
 2615TIP3   OH229335   5.238   4.284  14.422 -0.3658 -0.5534  0.1313
 2615TIP3    H129336   5.163   4.228  14.441 -2.1090  1.8453  0.9394
 2615TIP3    H229337   5.228   4.308  14.330 -0.2678 -0.7070  0.0818
 2616TIP3   OH229338   5.863   4.879   1.029 -1.0843  0.2622  0.3405
 2616TIP3    H129339   5.897   4.856   1.115 -0.2917  0.4245  0.0803
 2616TIP3    H229340   5.936   4.863   0.969 -0.9835  2.0120 -0.0401
 2617TIP3   OH229341   0.423   2.239   4.374 -0.6355 -0.2046  0.0497
 2617TIP3    H129342   0.426   2.220   4.280 -1.9033 -0.5696  0.0647
 2617TIP3    H229343   0.458   2.160   4.415 -0.2996 -0.1353 -0.0946
 2618TIP3   OH229344   1.506   0.292  16.184 -0.3303  0.6919 -0.7513
 2618TIP3    H129345   1.427   0.284  16.130 -0.6880 -0.5514 -0.0719
 2618TIP3    H229346   1.529   0.385  16.178 -2.2739  1.2420 -0.3596
 2619TIP3   OH229347   4.685   3.003   0.094 -0.6306  0.2525  0.5868
 2619TIP3    H129348   4.731   2.999   0.178 -2.2866 -0.5574  1.5270
 2619TIP3    H229349   4.637   2.919   0.090  1.1431 -0.7515 -2.2412
 2620TIP3   OH229350   4.412   6.058   1.948  0.2343  0.0313  0.2626
 2620TIP3    H129351   4.482   6.077   1.885 -0.0715 -0.5913 -0.2697
 2620TIP3    H229352   4.366   5.983   1.911  1.5889 -2.0285  2.4169
 2621TIP3   OH229353   4.095   5.839   3.007 -0.0386 -0.3118  0.1684
 2621TIP3    H129354   4.030   5.807   3.069 -0.2301 -0.0835  0.0877
 2621TIP3    H229355   4.067   5.804   2.922 -0.5289  0.4578 -0.0018
 2622TIP3   OH229356   5.002   5.227   4.096 -0.4312 -0.0420  0.3497
 2622TIP3    H129357   4.982   5.248   4.187 -0.0049  0.4517  0.3331
 2622TIP3    H229358   5.015   5.132   4.096 -3.1775 -0.5096  0.2680
 2623TIP3   OH229359   0.081   5.999  14.277 -0.2260  0.4556  0.0051
 2623TIP3    H129360   0.008   6.061  14.275  0.4168  1.2169 -0.5241
 2623TIP3    H229361   0.144   6.035  14.214  1.0782  0.3962  1.2303
 2624TIP3   OH229362   3.029   4.891  15.636  0.1908 -0.2260 -0.6544
 2624TIP3    H129363   2.999   4.823  15.575 -2.2667  1.4188 -1.4314
 2624TIP3    H229364   2.987   4.867  15.719  2.1896 -1.5227  0.0758
 2625TIP3   OH229365   6.802   3.929   2.486  0.5707  0.0837  0.0630
 2625TIP3    H129366   6.769   3.905   2.400  2.5085 -0.5776 -0.5535
 2625TIP3    H229367   6.758   3.870   2.547  0.5306 -0.6935 -0.7019
 2626TIP3   OH229368   2.596   3.269  15.331 -0.1265  0.2114 -0.6507
 2626TIP3    H129369   2.586   3.309  15.245 -0.1349  2.5289  0.3493
 2626TIP3    H229370   2.515   3.289  15.377 -1.0128 -2.7987 -0.6887
 2627TIP3   OH229371   3.791   6.120  14.274 -0.3503  0.0076 -0.1909
 2627TIP3    H129372   3.821   6.135  14.363 -0.6506  0.0262 -0.0920
 2627TIP3    H229373   3.870   6.127  14.220 -0.0042 -0.8881  0.1672
 2628TIP3   OH229374   2.551   3.735  12.720  0.5106  0.4800  0.0056
 2628TIP3    H129375   2.642   3.748  12.749  1.1116 -0.8183 -1.2024
 2628TIP3    H229376   2.552   3.652  12.672 -1.1330  0.8939 -0.8295
 2629TIP3   OH229377   6.776   1.460   5.490 -0.0115  0.2593  0.8423
 2629TIP3    H129378   6.767   1.490   5.400 -1.0037 -1.0695  0.4718
 2629TIP3    H229379   6.788   1.540   5.541  0.7095  1.0234 -0.4635
 2630TIP3   OH229380   6.306   0.590  14.984 -0.6955  0.3910 -0.2484
 2630TIP3    H129381   6.219   0.622  15.007 -1.9015 -2.5203 -0.4438
 2630TIP3    H229382   6.357   0.599  15.065 -2.4718 -1.9117  1.2440
 2631TIP3   OH229383   5.278   5.808   1.994 -0.1614 -0.2204  0.3252
 2631TIP3    H129384   5.229   5.890   1.986  1.3753  0.9352  1.9254
 2631TIP3    H229385   5.243   5.766   2.072 -0.4890 -0.7722 -0.1136
 2632TIP3   OH229386   0.145   4.244   0.380  0.0135  0.6187  0.3126
 2632TIP3    H129387   0.191   4.238   0.296  0.2623  1.3353  0.3862
 2632TIP3    H229388   0.085   4.317   0.370 -0.5787  0.1588  0.4733
 2633TIP3   OH229389   4.596   2.945  16.751 -0.8808  0.1716 -0.1120
 2633TIP3    H129390   4.652   2.920  16.824  0.3145 -0.9308 -1.3430
 2633TIP3    H229391   4.577   2.862  16.706  0.2374  1.0259 -2.2942
 2634TIP3   OH229392   3.766   0.868   4.084 -0.3566 -0.0804 -0.5159
 2634TIP3    H129393   3.713   0.801   4.040 -0.0771 -1.0551  0.5854
 2634TIP3    H229394   3.724   0.951   4.061 -3.0010 -0.8528  1.1560
 2635TIP3   OH229395   6.280   1.775  12.135  0.7382 -0.2901  0.1642
 2635TIP3    H129396   6.345   1.708  12.156  3.3570  2.0058 -0.1106
 2635TIP3    H229397   6.293   1.842  12.201 -1.5182  0.2187  0.1746
 2636TIP3   OH229398   6.567   2.637   1.597 -0.2264  0.1311 -0.6925
 2636TIP3    H129399   6.576   2.720   1.550 -2.5078  0.6503 -0.3172
 2636TIP3    H229400   6.538   2.662   1.685  2.3160 -0.9313  0.5634
 2637TIP3   OH229401   3.205   3.614   4.547 -0.1208 -0.2350  0.1256
 2637TIP3    H129402   3.245   3.612   4.460  0.0424  2.8427  0.0119
 2637TIP3    H229403   3.195   3.522   4.571  3.8440 -1.2282 -1.2695
 2638TIP3   OH229404   5.583   3.680   5.101 -0.2132 -0.1345  0.3989
 2638TIP3    H129405   5.516   3.667   5.034 -1.0516 -0.4373  1.2711
 2638TIP3    H229406   5.542   3.649   5.182  0.9122 -0.1314  0.9886
 2639TIP3   OH229407   0.493   3.359   1.989  0.0836  0.1184  0.5507
 2639TIP3    H129408   0.463   3.282   1.940  0.8189  0.1082  0.0944
 2639TIP3    H229409   0.465   3.433   1.936  3.9475  0.0998 -1.9307
 2640TIP3   OH229410   4.641   2.436   3.351 -0.1037  0.2867 -0.2708
 2640TIP3    H129411   4.560   2.451   3.304  0.1718 -1.3408 -1.3375
 2640TIP3    H229412   4.620   2.368   3.415  0.2710  0.2929 -0.1345
 2641TIP3   OH229413   0.236   4.979   3.727  0.5930 -0.8421  0.0135
 2641TIP3    H129414   0.142   4.963   3.733  0.5843 -1.5699 -1.4809
 2641TIP3    H229415   0.277   4.894   3.741  1.0976 -0.3833  1.4896
 2642TIP3   OH229416   6.336   1.192  16.774 -0.7019  0.0636  0.0159
 2642TIP3    H129417   6.396   1.179  16.848 -0.2902  2.1770  0.1258
 2642TIP3    H229418   6.249   1.193  16.814 -0.4449  1.7625  0.6026
 2643TIP3   OH229419   0.813   2.908  15.378 -0.5373  0.2228 -0.8272
 2643TIP3    H129420   0.797   2.877  15.467  0.8827 -1.1207 -1.0010
 2643TIP3    H229421   0.793   3.002  15.382 -2.7066 -0.2122  0.2917
 2644TIP3   OH229422   0.126   0.639  10.989 -0.1724  0.0593 -0.4473
 2644TIP3    H129423   0.102   0.628  10.897  1.7309 -1.9675 -0.7779
 2644TIP3    H229424   0.139   0.550  11.021 -2.0592  0.6108  2.2201
 2645TIP3   OH229425   0.865   4.538   4.342 -0.0676  0.0802  0.5677
 2645TIP3    H129426   0.858   4.584   4.258 -1.2568 -2.1074 -0.6057
 2645TIP3    H229427   0.936   4.584   4.388  3.1740 -0.7487 -3.0438
 2646TIP3   OH229428   3.866   0.736   2.011  0.3905  0.2275 -0.2004
 2646TIP3    H129429   3.862   0.832   2.017  1.2772  0.2836 -0.2990
 2646TIP3    H229430   3.778   0.707   2.033  0.4282  1.0044  1.1175
 2647TIP3   OH229431   4.463   2.715  15.172  0.0509 -0.5498 -0.3090
 2647TIP3    H129432   4.447   2.637  15.119 -0.5338 -0.8632  0.3124
 2647TIP3    H229433   4.534   2.690  15.231  1.0684 -0.0276 -1.2751
 2648TIP3   OH229434   5.458   5.414  15.646 -0.4893  0.0597 -0.0997
 2648TIP3    H129435   5.369   5.435  15.673  0.1780  1.2637  1.2489
 2648TIP3    H229436   5.483   5.485  15.587 -0.3161 -0.1164 -0.2405
 2649TIP3   OH229437   4.061   4.676   5.898 -0.1698 -0.0287 -0.1036
 2649TIP3    H129438   4.007   4.754   5.909  2.0630  1.5066  0.7161
 2649TIP3    H229439   4.085   4.676   5.806  0.0534  0.4381 -0.0498
 2650TIP3   OH229440   4.370   2.619   4.103  0.2625  0.5355 -0.4296
 2650TIP3    H129441   4.415   2.540   4.134  1.3986  1.1963 -0.3232
 2650TIP3    H229442   4.418   2.691   4.145 -0.5371  1.2948 -0.8029
 2651TIP3   OH229443   3.809   5.927  12.245  0.0883 -0.0289 -0.0256
 2651TIP3    H129444   3.837   5.889  12.162  0.5771  1.1094 -0.4018
 2651TIP3    H229445   3.857   6.010  12.252 -2.2743  1.4530 -0.1334
 2652TIP3   OH229446   5.672   5.496   4.004 -0.4084  0.3295 -0.3924
 2652TIP3    H129447   5.706   5.582   4.030 -1.8665  0.9457 -0.4226
 2652TIP3    H229448   5.692   5.490   3.911 -0.9818  1.0019 -0.5738
 2653TIP3   OH229449   6.020   2.298  13.827  0.7803 -0.2097 -0.1902
 2653TIP3    H129450   6.074   2.312  13.905  0.7458 -1.5712  0.1068
 2653TIP3    H229451   5.935   2.272  13.862  0.2846  0.7135 -0.6747
 2654TIP3   OH229452   6.410   4.309   6.132  0.9313  0.6479 -0.9246
 2654TIP3    H129453   6.377   4.241   6.191  0.8017  0.6789 -0.9602
 2654TIP3    H229454   6.367   4.290   6.048  2.4882 -0.4866 -1.5021
 2655TIP3   OH229455   3.393   1.188   1.616  0.4670 -0.2502  0.0942
 2655TIP3    H129456   3.480   1.189   1.576 -0.6293 -0.6104 -2.4929
 2655TIP3    H229457   3.375   1.096   1.634  0.9772 -0.0868  1.6143
 2656TIP3   OH229458   3.759   2.552  14.101 -0.0610 -0.5852 -0.1963
 2656TIP3    H129459   3.805   2.625  14.060  1.6405 -1.4964 -0.0146
 2656TIP3    H229460   3.760   2.483  14.035 -1.4756 -0.5383 -0.2965
 2657TIP3   OH229461   6.131   6.545  11.682  0.3906 -0.0681  0.2498
 2657TIP3    H129462   6.116   6.638  11.670 -0.5094 -0.0484  1.3217
 2657TIP3    H229463   6.044   6.508  11.698  0.5432 -1.3297 -1.4960
 2658TIP3   OH229464   2.268   2.076   2.966 -0.1476  0.1279 -0.5228
 2658TIP3    H129465   2.273   2.171   2.969 -0.5601  0.1434  1.5290
 2658TIP3    H229466   2.342   2.047   3.020  0.4759 -0.7755 -1.7992
 2659TIP3   OH229467   6.630   3.885   0.246  0.2039  0.0163 -0.2750
 2659TIP3    H129468   6.691   3.915   0.178  0.0816  0.0372 -0.3764
 2659TIP3    H229469   6.676   3.813   0.290 -0.8166 -2.0126 -2.2730
 2660TIP3   OH229470   0.602   0.601   2.240  0.9198  0.0783  0.1554
 2660TIP3    H129471   0.686   0.645   2.253  0.3276  1.9041 -1.6442
 2660TIP3    H229472   0.551   0.626   2.317  1.0104  1.6100 -0.2425
 2661TIP3   OH229473   0.050   2.331   3.803 -0.1036  0.5562  0.5229
 2661TIP3    H129474   0.144   2.335   3.824  0.3576 -2.0598 -0.6918
 2661TIP3    H229475   0.041   2.254   3.747 -3.0592  0.5450  0.8606
 2662TIP3   OH229476   1.282   0.227   3.976 -0.5173 -0.3916  0.3569
 2662TIP3    H129477   1.212   0.232   3.911 -1.9426 -0.3438  1.8385
 2662TIP3    H229478   1.328   0.311   3.969  1.3551 -1.4962 -2.6392
 2663TIP3   OH229479   1.835   0.481  14.912 -0.2529  0.2454  0.3645
 2663TIP3    H129480   1.868   0.456  14.826  0.1448  3.1514 -0.4246
 2663TIP3    H229481   1.912   0.477  14.969 -0.2685 -0.5176  0.3503
 2664TIP3   OH229482   1.885   5.921  11.382  0.2875 -0.1796 -0.5231
 2664TIP3    H129483   1.843   5.976  11.449  0.1319  0.0128 -0.7727
 2664TIP3    H229484   1.855   5.959  11.299 -0.7592 -1.3535 -0.7055
 2665TIP3   OH229485   1.382   5.705  12.585  0.4554  0.6355  0.2188
 2665TIP3    H129486   1.325   5.781  12.573 -0.1258  0.2023  0.1997
 2665TIP3    H229487   1.346   5.659  12.660  2.4282  1.8242  2.0111
 2666TIP3   OH229488   0.823   5.135   1.434 -0.4565 -0.1982 -0.2412
 2666TIP3    H129489   0.744   5.182   1.408 -1.4406 -1.8618 -0.4221
 2666TIP3    H229490   0.834   5.156   1.527 -2.2597 -1.4185  0.3080
 2667TIP3   OH229491   5.937   1.787  15.403 -0.6886 -0.5456 -0.6338
 2667TIP3    H129492   6.023   1.823  15.383 -1.1924  1.0610 -0.0683
 2667TIP3    H229493   5.904   1.842  15.474 -1.9539 -1.4909 -0.4520
 2668TIP3   OH229494   2.455   0.227  17.146 -0.4843  0.1051  0.1413
 2668TIP3    H129495   2.374   0.236  17.196  0.5476  1.0744  1.7225
 2668TIP3    H229496   2.492   0.143  17.175  0.4558  0.9825  1.6115
 2669TIP3   OH229497   5.878   5.779   2.466  0.1043  0.1582 -0.0918
 2669TIP3    H129498   5.835   5.794   2.551 -0.3951 -0.5036 -0.2232
 2669TIP3    H229499   5.956   5.728   2.488 -0.4397 -0.6897 -0.1135
 2670TIP3   OH229500   1.018   2.666  10.426 -0.1458  0.0892 -0.2456
 2670TIP3    H129501   1.095   2.723  10.418  0.9549 -1.2460  0.3039
 2670TIP3    H229502   1.013   2.621  10.342  1.7700 -2.2674  0.7775
 2671TIP3   OH229503   2.766   5.813   4.752  0.2287 -0.2141  0.5250
 2671TIP3    H129504   2.799   5.898   4.720  0.1462  0.5412  2.3072
 2671TIP3    H229505   2.842   5.774   4.795 -0.0239 -0.5441  0.6666
 2672TIP3   OH229506   3.482   2.291  13.664 -0.0334  0.3234  0.1563
 2672TIP3    H129507   3.390   2.294  13.635  0.6371  0.3570 -2.1837
 2672TIP3    H229508   3.490   2.209  13.711 -1.6830  1.1826  2.1086
 2673TIP3   OH229509   2.615   0.497  15.163  0.2309  0.0356  1.1760
 2673TIP3    H129510   2.693   0.482  15.109 -0.9780  0.0098 -0.6683
 2673TIP3    H229511   2.627   0.585  15.198  0.1965  0.8686 -0.7708
 2674TIP3   OH229512   1.043   4.774   1.188 -0.2276 -0.2058 -1.0798
 2674TIP3    H129513   1.117   4.823   1.153 -0.6065  1.2872  0.0862
 2674TIP3    H229514   1.046   4.790   1.283 -2.1877  0.1868 -1.0228
 2675TIP3   OH229515   4.875   5.771   5.956  0.0214 -0.1307  0.5931
 2675TIP3    H129516   4.876   5.678   5.936  2.4450 -0.1777  0.5868
 2675TIP3    H229517   4.967   5.793   5.972 -0.5515  2.1399  1.1796
 2676TIP3   OH229518   4.485   3.907   2.850  0.2231  0.4086  0.1392
 2676TIP3    H129519   4.411   3.900   2.789  0.5509  0.0464 -0.2224
 2676TIP3    H229520   4.512   3.998   2.845 -0.9945  0.8653  1.2235
 2677TIP3   OH229521   5.250   4.887   4.656 -0.2868  0.5273 -0.0780
 2677TIP3    H129522   5.210   4.930   4.731 -0.2263 -1.7122  1.3113
 2677TIP3    H229523   5.340   4.868   4.684 -0.1049  0.1000 -0.9175
 2678TIP3   OH229524   2.241   4.923   2.816 -0.2856  0.2368  0.2919
 2678TIP3    H129525   2.294   4.965   2.748 -0.2138  0.8365  0.7093
 2678TIP3    H229526   2.279   4.954   2.899 -1.8527  1.4422  0.6167
 2679TIP3   OH229527   5.525   2.506  13.582  0.2990  0.1278 -0.0381
 2679TIP3    H129528   5.554   2.558  13.506  1.2449 -0.2303  0.0661
 2679TIP3    H229529   5.450   2.456  13.549 -1.3403  2.2905  0.1290
 2680TIP3   OH229530   1.843   1.399   4.015  0.1661 -0.6179  0.0340
 2680TIP3    H129531   1.909   1.347   3.970 -1.3099 -2.2506 -0.3919
 2680TIP3    H229532   1.890   1.443   4.086  2.0641 -0.0097 -1.5096
 2681TIP3   OH229533   3.076   4.256  16.538 -0.7513 -0.1945 -0.4221
 2681TIP3    H129534   3.094   4.168  16.572  0.6845  0.7509  1.5045
 2681TIP3    H229535   3.155   4.279  16.488 -1.3936 -0.2201 -1.4796
 2682TIP3   OH229536   4.114   6.005   3.618  0.0698 -0.0419  0.2375
 2682TIP3    H129537   4.188   6.032   3.672 -0.3907  0.7039  0.5179
 2682TIP3    H229538   4.075   6.088   3.589  0.4805 -0.4229 -1.4993
 2683TIP3   OH229539   0.438   2.637  11.048  0.4266  0.7430  0.1494
 2683TIP3    H129540   0.405   2.706  10.991 -1.8248  0.8995  1.5083
 2683TIP3    H229541   0.514   2.675  11.091  0.3220  1.6955 -0.4830
 2684TIP3   OH229542   4.018   5.560  13.915  0.1683  0.0788  0.7059
 2684TIP3    H129543   3.923   5.554  13.925  0.2850 -0.6591  1.5449
 2684TIP3    H229544   4.040   5.650  13.941 -0.1288 -0.2556  2.2112
 2685TIP3   OH229545   2.214   1.846  12.190 -0.2459 -0.0437  0.0350
 2685TIP3    H129546   2.258   1.888  12.263  0.6360 -0.1806 -0.4127
 2685TIP3    H229547   2.172   1.769  12.228  0.0651 -0.0179  0.4236
 2686TIP3   OH229548   2.466   5.498  13.514  0.3130  0.0045 -0.6807
 2686TIP3    H129549   2.532   5.433  13.492  1.0876  0.7146 -0.4971
 2686TIP3    H229550   2.513   5.581  13.515 -0.6825  0.5947 -1.0292
 2687TIP3   OH229551   3.006   6.825  10.421  0.5633  0.3588 -0.3845
 2687TIP3    H129552   3.035   6.916  10.422  3.2831 -0.4130 -0.7711
 2687TIP3    H229553   3.081   6.775  10.453 -0.8829 -1.7687 -0.0784
 2688TIP3   OH229554   2.635   1.994   1.820 -0.6962  0.0608  0.0479
 2688TIP3    H129555   2.616   1.906   1.854 -0.4383 -0.0554 -0.1042
 2688TIP3    H229556   2.730   2.004   1.832 -0.7925  0.4990  0.4874
 2689TIP3   OH229557   2.174   2.585  12.658 -0.4157  0.4435 -0.0896
 2689TIP3    H129558   2.233   2.535  12.714  0.4780  0.0263 -1.3595
 2689TIP3    H229559   2.094   2.532  12.653 -0.3573  0.3046  0.4763
 2690TIP3   OH229560   2.011   6.228  15.516 -0.2010  0.3428 -0.0241
 2690TIP3    H129561   2.020   6.158  15.579 -0.9973  1.1162  0.9798
 2690TIP3    H229562   2.085   6.286  15.533 -0.8831  0.9885  0.7809
 2691TIP3   OH229563   4.453   2.593  17.077  0.3829 -0.2414 -0.6878
 2691TIP3    H129564   4.507   2.607  17.155 -0.0244  0.4517 -0.5254
 2691TIP3    H229565   4.382   2.655  17.086  0.5708  0.1548 -1.8420
 2692TIP3   OH229566   5.251   0.839   4.397  0.0528  0.0302  0.0799
 2692TIP3    H129567   5.276   0.757   4.441 -0.3179 -0.6146 -0.8679
 2692TIP3    H229568   5.317   0.851   4.330  0.2946  0.6983  0.4346
 2693TIP3   OH229569   0.978   0.236   3.872 -0.1520  0.3148 -0.7534
 2693TIP3    H129570   0.907   0.175   3.849 -0.7016 -0.1772  1.9420
 2693TIP3    H229571   0.933   0.319   3.888  0.0752  0.3723 -0.4190
 2694TIP3   OH229572   0.452   3.026   3.319 -0.5366  0.5996  0.1202
 2694TIP3    H129573   0.422   2.952   3.373 -0.4675  0.2482 -0.3116
 2694TIP3    H229574   0.525   2.989   3.269 -2.2388  0.1311 -2.1716
 2695TIP3   OH229575   3.865   0.997  16.459 -0.6109 -0.4626 -0.3152
 2695TIP3    H129576   3.808   0.964  16.530 -0.9691  2.2315  0.7662
 2695TIP3    H229577   3.951   1.004  16.499 -0.8093  1.0440 -0.0725
 2696TIP3   OH229578   1.681   5.894  11.698 -0.0478 -0.3535 -0.3673
 2696TIP3    H129579   1.642   5.829  11.756  0.3480 -1.8895 -1.7520
 2696TIP3    H229580   1.752   5.848  11.654  0.0472  0.9242 -1.6434
 2697TIP3   OH229581   0.350   2.317   0.073 -0.4116  0.2351 -0.0124
 2697TIP3    H129582   0.417   2.298   0.138 -0.8779 -1.2013  0.0992
 2697TIP3    H229583   0.360   2.248   0.008 -2.4500 -0.6898  0.5684
 2698TIP3   OH229584   6.046   3.353   4.306 -0.1295 -0.4732 -0.0532
 2698TIP3    H129585   5.999   3.305   4.238 -0.4530 -1.1137  0.6122
 2698TIP3    H229586   6.010   3.442   4.301  2.7860  0.7767 -3.5462
 2699TIP3   OH229587   3.057   6.445  11.132 -0.0023 -0.0593  0.0165
 2699TIP3    H129588   3.058   6.537  11.105  1.9707 -0.2217 -0.6615
 2699TIP3    H229589   3.117   6.401  11.070 -0.3999 -1.6787  0.7158
 2700TIP3   OH229590   6.800   6.305   3.591  0.5032 -0.0121 -0.1488
 2700TIP3    H129591   6.718   6.291   3.544  0.7313  0.5943 -0.7468
 2700TIP3    H229592   6.851   6.362   3.534  1.4524 -0.5928  0.0910
 2701TIP3   OH229593   3.399   1.274  13.546 -0.2700  0.5060 -0.0388
 2701TIP3    H129594   3.313   1.291  13.509  0.0795 -0.3632 -1.3533
 2701TIP3    H229595   3.460   1.292  13.474  0.6661  1.2885  0.9263
 2702TIP3   OH229596   4.572   1.073  14.810  0.2395  0.5932  0.5985
 2702TIP3    H129597   4.536   1.085  14.898 -1.8194 -0.9493  0.0656
 2702TIP3    H229598   4.545   1.151  14.762 -1.9981 -0.2190  0.4052
 2703TIP3   OH229599   0.762   6.160  12.027  0.0070  0.2486 -0.0909
 2703TIP3    H129600   0.813   6.237  12.052  1.0992 -0.8352  1.1776
 2703TIP3    H229601   0.671   6.188  12.038  0.3616  1.5537 -0.2969
 2704TIP3   OH229602   1.060   1.842  15.660  0.3304  0.4702 -0.5388
 2704TIP3    H129603   1.136   1.830  15.602 -0.2125 -0.9050 -0.9913
 2704TIP3    H229604   0.987   1.804  15.612 -0.2314 -0.2453  0.8379
 2705TIP3   OH229605   1.203   0.687  15.598 -0.6942 -0.2780 -0.2007
 2705TIP3    H129606   1.297   0.681  15.615 -0.8804 -1.1720  0.6148
 2705TIP3    H229607   1.194   0.760  15.537  0.6114 -0.7164 -0.9492
 2706TIP3   OH229608   6.032   1.335  17.285  0.3934  0.4686 -0.2166
 2706TIP3    H129609   5.965   1.402  17.271  2.5997  2.8896 -0.0801
 2706TIP3    H229610   6.111   1.372  17.245  1.7735 -2.0381 -0.0032
 2707TIP3   OH229611   6.171   5.242  16.824  0.0584  0.1936  0.5433
 2707TIP3    H129612   6.154   5.155  16.788 -0.8654  1.1008 -1.3452
 2707TIP3    H229613   6.189   5.226  16.917  0.7517 -2.0720  0.0805
 2708TIP3   OH229614   0.798   4.448   1.496 -0.3836 -0.1678  0.2403
 2708TIP3    H129615   0.864   4.383   1.519 -0.4866 -0.5500 -0.5167
 2708TIP3    H229616   0.715   4.407   1.518 -0.4373 -0.2011 -0.0228
 2709TIP3   OH229617   6.556   5.148   4.810 -0.1896 -0.1990  0.1393
 2709TIP3    H129618   6.624   5.081   4.819 -0.2233 -0.3036 -0.3678
 2709TIP3    H229619   6.478   5.107   4.847  0.3937  0.5442  2.3529
 2710TIP3   OH229620   4.746   5.381  11.759 -0.4207  0.2609  0.3427
 2710TIP3    H129621   4.744   5.299  11.710  0.8433  0.4571 -0.0778
 2710TIP3    H229622   4.822   5.428  11.724 -1.0081  1.5296  0.7052
 2711TIP3   OH229623   3.902   4.615  15.897  0.2033  0.3383 -0.4225
 2711TIP3    H129624   3.924   4.704  15.868 -0.0510  0.1213 -1.3232
 2711TIP3    H229625   3.921   4.615  15.991  0.7153  1.1824 -0.5154
 2712TIP3   OH229626   3.759   2.264   0.484  0.3462  0.0248  0.2477
 2712TIP3    H129627   3.743   2.262   0.579 -0.9355 -1.0574  0.0432
 2712TIP3    H229628   3.714   2.343   0.455  0.4039  0.1511  0.4954
 2713TIP3   OH229629   6.540   4.836  15.656 -0.1037 -0.3638 -1.2022
 2713TIP3    H129630   6.518   4.768  15.721  0.5991 -1.2352 -1.8525
 2713TIP3    H229631   6.565   4.912  15.709  3.6933 -2.0406 -0.3071
 2714TIP3   OH229632   5.605   2.970   5.942 -0.7204  0.5721  0.3394
 2714TIP3    H129633   5.556   2.930   6.013  0.9607  0.1762  1.3281
 2714TIP3    H229634   5.655   3.041   5.984  0.2572  0.3634 -0.4350
 2715TIP3   OH229635   5.848   5.185   4.714 -0.0305  0.2059 -0.2587
 2715TIP3    H129636   5.782   5.239   4.757 -0.3084  0.0022 -0.4232
 2715TIP3    H229637   5.800   5.141   4.643  0.0997 -0.5441  0.1042
 2716TIP3   OH229638   4.108   4.318   3.192  0.5598 -0.0717 -0.0225
 2716TIP3    H129639   4.131   4.229   3.163 -0.0664 -0.1570 -0.2651
 2716TIP3    H229640   4.184   4.347   3.243  0.8570 -0.6648 -0.1225
 2717TIP3   OH229641   0.631   5.878  13.036  0.6376 -0.3323 -1.1254
 2717TIP3    H129642   0.660   5.851  13.123  0.8939  0.0021 -1.1063
 2717TIP3    H229643   0.646   5.972  13.033 -0.6354 -0.1081 -1.0560
 2718TIP3   OH229644   1.761   1.849   2.436  0.4940 -0.0608 -0.0259
 2718TIP3    H129645   1.720   1.923   2.482 -1.2714  0.2371 -1.9174
 2718TIP3    H229646   1.854   1.858   2.456  0.0318  1.0240  2.0387
 2719TIP3   OH229647   1.995   5.008  12.390 -0.1827 -0.5984 -0.7800
 2719TIP3    H129648   2.023   4.981  12.477 -2.0251 -0.6389 -0.1694
 2719TIP3    H229649   2.030   5.096  12.379  1.0298 -1.0249 -0.4844
 2720TIP3   OH229650   1.247   2.271  14.478  0.8890  0.1672  0.0950
 2720TIP3    H129651   1.251   2.279  14.383 -0.0549 -1.6826 -0.1410
 2720TIP3    H229652   1.194   2.346  14.506 -0.8732 -0.5717 -1.1037
 2721TIP3   OH229653   2.004   4.932   5.991  0.2483 -0.4999 -0.0230
 2721TIP3    H129654   2.041   5.008   6.037 -0.6251 -0.2622  0.3061
 2721TIP3    H229655   2.005   4.862   6.057  2.5252 -1.2629 -0.7811
 2722TIP3   OH229656   0.079   0.249   6.344  0.0514 -0.2890  0.3534
 2722TIP3    H129657   0.016   0.252   6.415 -2.8759 -0.5719 -2.0627
 2722TIP3    H229658   0.113   0.159   6.346  0.3466 -0.1645  1.6167
 2723TIP3   OH229659   5.027   5.217  11.062  0.5676  0.0119 -0.1519
 2723TIP3    H129660   4.966   5.148  11.091  0.7020 -0.3789 -0.7717
 2723TIP3    H229661   5.014   5.220  10.967  1.2162  0.2194 -0.2323
 2724TIP3   OH229662   5.842   0.849  12.184  0.0213 -0.0471 -0.1140
 2724TIP3    H129663   5.786   0.864  12.261 -1.0267  0.0989 -0.8727
 2724TIP3    H229664   5.825   0.925  12.128  1.3769  0.2481 -0.1615
 2725TIP3   OH229665   4.669   3.461   2.911  0.4892 -0.1264 -0.0898
 2725TIP3    H129666   4.671   3.514   2.831 -0.5620 -0.4973 -0.3717
 2725TIP3    H229667   4.684   3.524   2.981 -2.2000  0.8341 -0.2914
 2726TIP3   OH229668   3.560   0.161  13.756  0.1002  0.2190  0.6519
 2726TIP3    H129669   3.527   0.171  13.845 -0.6174  0.7278  0.3412
 2726TIP3    H229670   3.561   0.249  13.720 -3.4601 -0.2709 -1.1352
 2727TIP3   OH229671   2.165   1.788   1.285  0.2621 -0.0241 -0.1057
 2727TIP3    H129672   2.239   1.766   1.228 -0.9337  0.2550 -1.8652
 2727TIP3    H229673   2.173   1.883   1.300 -0.0600  0.1214 -0.8120
 2728TIP3   OH229674   1.491   0.190   4.706 -0.4414 -0.3617  0.1089
 2728TIP3    H129675   1.508   0.207   4.799 -1.3895  2.1841 -0.0950
 2728TIP3    H229676   1.434   0.113   4.706  0.3793 -1.0140  1.5434
 2729TIP3   OH229677   1.204   0.908  11.456 -0.0270  0.2232  0.5918
 2729TIP3    H129678   1.256   0.948  11.526  1.6138  1.0006 -1.0051
 2729TIP3    H229679   1.134   0.861  11.502  0.2706  1.7109  2.6976
 2730TIP3   OH229680   2.891   3.018   4.525 -0.7416 -0.0364 -0.4306
 2730TIP3    H129681   2.861   2.928   4.514  1.6501 -1.3301  2.1515
 2730TIP3    H229682   2.982   3.017   4.496 -0.5306  1.4496  0.0564
 2731TIP3   OH229683   2.778   2.672   4.698  0.1762  0.1634 -0.0539
 2731TIP3    H129684   2.820   2.705   4.778  0.1381  1.1724 -0.4275
 2731TIP3    H229685   2.729   2.596   4.726 -0.9162  1.2672  1.1737
 2732TIP3   OH229686   2.886   1.061   1.368  0.2815  0.3139  0.2825
 2732TIP3    H129687   2.861   1.034   1.280  1.0547 -1.4805  0.5679
 2732TIP3    H229688   2.812   1.037   1.424  0.2540  0.4240  0.2952
 2733TIP3   OH229689   5.152   4.540  12.272  0.4792 -0.0718 -0.0954
 2733TIP3    H129690   5.236   4.571  12.239  0.2934 -0.8549 -1.3775
 2733TIP3    H229691   5.152   4.446  12.252 -0.5376 -0.1579  0.2444
 2734TIP3   OH229692   2.227   4.786   3.509 -0.3002  0.3260  0.2606
 2734TIP3    H129693   2.311   4.831   3.503  0.7942 -1.6045  0.3377
 2734TIP3    H229694   2.165   4.845   3.464  1.1576  1.5887 -0.1775
 2735TIP3   OH229695   5.467   0.295   0.963  0.4107  0.3748  0.1176
 2735TIP3    H129696   5.431   0.208   0.944  0.4658  0.5625 -0.9326
 2735TIP3    H229697   5.527   0.281   1.036  0.0219 -0.3743  0.3024
 2736TIP3   OH229698   5.073   4.418  15.231 -0.6941  0.6934 -0.6168
 2736TIP3    H129699   5.061   4.513  15.236 -0.6478  0.6438  0.7160
 2736TIP3    H229700   4.985   4.382  15.245 -0.9078  0.5294 -2.1474
 2737TIP3   OH229701   1.366   2.346  13.963 -0.2958 -0.1202  0.4180
 2737TIP3    H129702   1.447   2.295  13.961 -0.3649 -0.2762  1.2344
 2737TIP3    H229703   1.394   2.437  13.954 -0.2746 -0.3154 -2.8266
 2738TIP3   OH229704   1.674   6.433   4.532 -0.1786 -0.5160 -0.3101
 2738TIP3    H129705   1.665   6.350   4.485 -0.9123 -0.8612  0.4104
 2738TIP3    H229706   1.610   6.427   4.603 -0.0872  0.5835 -0.1244
 2739TIP3   OH229707   1.168   5.790  14.502 -0.6707 -0.0331 -0.3071
 2739TIP3    H129708   1.142   5.855  14.437  0.7877  0.1846 -0.7114
 2739TIP3    H229709   1.262   5.777  14.487 -0.6929 -1.3661  0.5354
 2740TIP3   OH229710   0.404   3.286   0.607  0.3251  0.0017 -0.5797
 2740TIP3    H129711   0.407   3.246   0.520  0.0946 -1.6724  0.1458
 2740TIP3    H229712   0.442   3.373   0.594 -0.2029  0.0131 -2.4567
 2741TIP3   OH229713   4.662   5.418   6.116  0.7662  0.1228 -0.2536
 2741TIP3    H129714   4.593   5.439   6.179  0.4152 -1.7553  0.0431
 2741TIP3    H229715   4.743   5.444   6.159  0.4121  0.3101  0.3075
 2742TIP3   OH229716   2.685   3.573  16.063 -0.0497 -0.5341 -0.0314
 2742TIP3    H129717   2.615   3.599  16.122 -0.6865 -0.4837 -0.7890
 2742TIP3    H229718   2.664   3.483  16.037  0.4301 -0.6939  0.1160
 2743TIP3   OH229719   3.888   4.489  13.161  0.0776 -0.0910 -0.2632
 2743TIP3    H129720   3.909   4.414  13.217 -0.2195 -0.3322 -0.4763
 2743TIP3    H229721   3.895   4.455  13.071  3.2778  0.9310 -0.5306
 2744TIP3   OH229722   5.276   1.236   3.839 -0.6561 -0.0685  0.3940
 2744TIP3    H129723   5.286   1.234   3.934  1.8934  2.3276  0.2893
 2744TIP3    H229724   5.191   1.196   3.823 -2.0514  1.1905  3.8077
 2745TIP3   OH229725   4.860   5.032  16.716  0.0436  0.2502  0.4519
 2745TIP3    H129726   4.769   5.054  16.694 -0.0056  0.2286  0.6296
 2745TIP3    H229727   4.884   4.966  16.651  0.2360  0.9155 -0.1668
 2746TIP3   OH229728   3.866   5.792   4.219  0.0714  0.4590 -0.2210
 2746TIP3    H129729   3.803   5.763   4.285  0.6833  0.4611  0.3768
 2746TIP3    H229730   3.826   5.869   4.180 -0.9549 -0.3900 -0.8750
 2747TIP3   OH229731   1.876   2.863  11.518 -0.3271  0.2109  0.0861
 2747TIP3    H129732   1.792   2.847  11.560  0.5009  1.9685  2.6957
 2747TIP3    H229733   1.920   2.778  11.517 -0.9388 -0.1583  1.6248
 2748TIP3   OH229734   0.669   4.445   6.094  0.2886 -0.1636  0.1425
 2748TIP3    H129735   0.629   4.484   6.171  1.6349 -0.4518  1.0144
 2748TIP3    H229736   0.762   4.463   6.102  0.5427 -0.7726 -1.0763
 2749TIP3   OH229737   1.189   0.236   5.083  0.2723 -0.1949  0.5971
 2749TIP3    H129738   1.143   0.237   5.000  0.4802 -1.3657  0.4539
 2749TIP3    H229739   1.177   0.147   5.116  0.8580  0.0274  1.4413
 2750TIP3   OH229740   6.165   0.737   2.454  0.0756 -0.5598  0.1476
 2750TIP3    H129741   6.119   0.732   2.537 -0.3386 -1.0247 -0.1057
 2750TIP3    H229742   6.173   0.831   2.436  2.1798 -0.3310  1.8078
 2751TIP3   OH229743   2.842   5.589   4.529 -0.4213  0.2157 -0.4569
 2751TIP3    H129744   2.855   5.667   4.583  0.9743 -0.2943 -0.0218
 2751TIP3    H229745   2.918   5.534   4.548 -0.6963 -0.6556 -1.7823
 2752TIP3   OH229746   5.565   3.575   3.955 -0.5972  0.0781 -0.3939
 2752TIP3    H129747   5.618   3.547   3.880  0.4546  0.6964  0.1132
 2752TIP3    H229748   5.505   3.501   3.970 -0.0895 -0.5071 -1.1526
 2753TIP3   OH229749   3.604   4.393   3.104  0.1743 -0.2502 -0.2071
 2753TIP3    H129750   3.588   4.380   3.011  0.5140  0.1939 -0.3317
 2753TIP3    H229751   3.697   4.414   3.110  0.1001 -0.0289  0.2054
 2754TIP3   OH229752   1.823   0.626   6.294  0.6037  0.5562 -0.0570
 2754TIP3    H129753   1.833   0.721   6.286 -1.4499  1.0515  2.0711
 2754TIP3    H229754   1.795   0.613   6.385 -0.1304 -2.0042 -0.5825
 2755TIP3   OH229755   4.266   0.028  17.265 -0.4707 -0.1261 -0.0930
 2755TIP3    H129756   4.285  -0.028  17.189 -0.7061 -0.0980 -0.1738
 2755TIP3    H229757   4.175   0.008  17.287 -0.1662 -0.6885  0.6584
 2756TIP3   OH229758   5.029   3.582   0.149  0.3439 -0.4435  0.1005
 2756TIP3    H129759   4.954   3.547   0.101 -0.1829  0.6247  0.0915
 2756TIP3    H229760   5.105   3.540   0.110 -0.1890 -0.7917 -0.5858
 2757TIP3   OH229761   3.269   5.806   1.634 -0.4250 -0.0588 -0.1884
 2757TIP3    H129762   3.263   5.743   1.706 -1.7552 -0.3772 -0.5574
 2757TIP3    H229763   3.199   5.781   1.574  1.1096 -0.2532 -1.9738
 2758TIP3   OH229764   3.989   4.300  10.661 -0.0733  0.3015 -0.2755
 2758TIP3    H129765   3.909   4.280  10.710 -0.4811 -0.0770 -1.0731
 2758TIP3    H229766   3.960   4.363  10.594  0.4451  0.6983 -0.1295
 2759TIP3   OH229767   3.887   2.556  15.798 -0.5880 -1.0312  0.0579
 2759TIP3    H129768   3.870   2.614  15.723 -1.8293 -0.7587  0.5254
 2759TIP3    H229769   3.977   2.528  15.787  0.2446  1.4143  0.0871
 2760TIP3   OH229770   3.934   6.063  13.587 -0.1980  0.2772 -0.2792
 2760TIP3    H129771   3.955   5.969  13.582 -0.1291  0.2306  0.7316
 2760TIP3    H229772   3.923   6.080  13.681 -0.9713  1.1210 -0.5128
 2761TIP3   OH229773   5.855   3.436  14.164 -0.7408 -0.6362 -0.8763
 2761TIP3    H129774   5.787   3.488  14.121 -0.7146  0.1939  0.0547
 2761TIP3    H229775   5.847   3.349  14.124 -2.4151 -0.5856 -0.7218
 2762TIP3   OH229776   5.858   3.909  14.114 -0.0532  0.9462  0.9579
 2762TIP3    H129777   5.871   3.838  14.177  1.0071 -0.0901 -0.3614
 2762TIP3    H229778   5.943   3.918  14.070 -1.5439 -0.7989 -2.7077
 2763TIP3   OH229779   2.142   1.427  14.340 -0.4451  0.0154  0.2305
 2763TIP3    H129780   2.094   1.345  14.335 -0.8800  0.3324 -0.9217
 2763TIP3    H229781   2.103   1.483  14.273  2.0260  0.0212 -1.3432
 2764TIP3   OH229782   0.493   4.332  10.434  0.6277  0.2466 -0.2687
 2764TIP3    H129783   0.479   4.419  10.471 -0.4939  0.1364 -0.3809
 2764TIP3    H229784   0.579   4.336  10.393  0.8835  1.0864  0.3319
 2765TIP3   OH229785   3.241   4.300   3.795  0.4502 -0.1515 -0.0267
 2765TIP3    H129786   3.205   4.382   3.826 -1.3095 -0.9796  0.2101
 2765TIP3    H229787   3.321   4.325   3.748  0.3468  1.5940  0.6819
 2766TIP3   OH229788   6.799   1.643   0.646  0.0938  0.3637  0.4326
 2766TIP3    H129789   6.891   1.631   0.622  0.1488  1.3474  0.1037
 2766TIP3    H229790   6.797   1.728   0.690 -0.5364 -0.0059  1.1249
 2767TIP3   OH229791   3.847   5.408  16.141  0.0965 -0.2061 -0.7295
 2767TIP3    H129792   3.880   5.443  16.224  0.9626 -0.9048 -0.7759
 2767TIP3    H229793   3.753   5.397  16.157  0.2834 -0.5384  0.2427
 2768TIP3   OH229794   4.114   1.046  12.559  0.7408  0.3592 -0.1992
 2768TIP3    H129795   4.142   1.137  12.568  0.9441  0.4832 -1.8306
 2768TIP3    H229796   4.033   1.041  12.611  1.0744  1.2852  0.4388
 2769TIP3   OH229797   6.029   6.522   2.777 -0.0333 -0.1502 -0.4890
 2769TIP3    H129798   5.957   6.571   2.738  0.5223 -1.0317 -2.7666
 2769TIP3    H229799   5.986   6.451   2.826 -0.7227  0.4609 -0.1870
 2770TIP3   OH229800   4.133   0.191   2.888 -0.0727  0.1567 -0.5941
 2770TIP3    H129801   4.095   0.237   2.963  1.0313 -0.3757  0.3209
 2770TIP3    H229802   4.059   0.148   2.845 -0.6053 -0.2464  0.7074
 2771TIP3   OH229803   4.553   5.021  12.573  0.0072 -0.0208  0.5289
 2771TIP3    H129804   4.633   4.977  12.601 -0.1079  0.4422  1.6371
 2771TIP3    H229805   4.501   5.030  12.653 -0.8308  0.3463 -0.0392
 2772TIP3   OH229806   0.706   5.065   3.331  0.2842  0.4786  0.1568
 2772TIP3    H129807   0.762   4.990   3.352  0.2700 -0.4394 -2.7567
 2772TIP3    H229808   0.739   5.099   3.248 -2.5684  0.7453 -0.9988
 2773TIP3   OH229809   1.054   5.851   4.636  0.3566 -0.4317 -0.2472
 2773TIP3    H129810   1.125   5.862   4.699  0.1031  1.2317 -0.2249
 2773TIP3    H229811   1.085   5.893   4.556 -0.8302  0.9030 -0.0396
 2774TIP3   OH229812   4.221   3.664   2.274  0.2908 -0.1952  0.4759
 2774TIP3    H129813   4.249   3.578   2.306 -0.7430 -1.1876 -1.1237
 2774TIP3    H229814   4.127   3.654   2.260  0.3445  0.8503 -0.7602
 2775TIP3   OH229815   6.190   5.963   3.565 -0.1206 -0.4388  0.1588
 2775TIP3    H129816   6.219   5.913   3.642 -1.6855  0.2855  1.2873
 2775TIP3    H229817   6.107   6.002   3.593  0.9018  2.6239 -0.7023
 2776TIP3   OH229818   5.689   5.617   6.126 -0.6495 -0.1438  0.1199
 2776TIP3    H129819   5.711   5.586   6.038 -0.7104 -1.4856  0.5443
 2776TIP3    H229820   5.628   5.689   6.113 -0.3355 -0.0652 -0.9440
 2777TIP3   OH229821   0.260   3.407   1.243 -0.0093 -0.4748  0.1960
 2777TIP3    H129822   0.240   3.498   1.266  1.0549  0.1871 -1.3332
 2777TIP3    H229823   0.174   3.367   1.227 -0.6304 -0.3282  2.7349
 2778TIP3   OH229824   6.350   4.057  14.898 -0.1290 -1.3808  0.4082
 2778TIP3    H129825   6.277   4.114  14.923 -0.8224 -2.4703  0.9513
 2778TIP3    H229826   6.319   4.011  14.819  1.4641  0.9184 -1.7025
 2779TIP3   OH229827   2.122   4.813  13.310 -0.4311  0.0645 -0.3929
 2779TIP3    H129828   2.049   4.829  13.370 -1.3432 -0.4358 -1.3408
 2779TIP3    H229829   2.169   4.739  13.349  0.3920  1.2316  0.9304
 2780TIP3   OH229830   2.687   6.579  12.440 -0.7127  0.0918 -0.3013
 2780TIP3    H129831   2.655   6.511  12.381 -4.1918  1.8940 -0.7561
 2780TIP3    H229832   2.665   6.547  12.528  1.1040 -0.9267 -0.1558
 2781TIP3   OH229833   4.499   6.253   2.147  0.2748 -0.1922  0.1580
 2781TIP3    H129834   4.479   6.162   2.166 -0.1579  0.0346  0.8383
 2781TIP3    H229835   4.431   6.280   2.085 -1.4095  0.4765  2.1961
 2782TIP3   OH229836   5.617   2.417  12.428  0.1711  0.5245 -0.8392
 2782TIP3    H129837   5.602   2.465  12.347 -1.9098 -0.7682 -1.2817
 2782TIP3    H229838   5.529   2.399  12.462  0.9542 -0.6140  0.7130
 2783TIP3   OH229839   0.361   6.542   4.806  0.0460  0.0822  0.6202
 2783TIP3    H129840   0.349   6.552   4.712 -0.4428 -0.4274  0.6185
 2783TIP3    H229841   0.279   6.501   4.836  0.3761 -0.1736  1.1917
 2784TIP3   OH229842   5.643   1.337   4.291  0.2970  0.1541  0.3714
 2784TIP3    H129843   5.645   1.409   4.354 -1.4868  0.8668 -0.3242
 2784TIP3    H229844   5.730   1.298   4.297  0.4866  0.7586  2.5952
 2785TIP3   OH229845   1.100   6.664   4.262  0.1718  0.8599 -0.7657
 2785TIP3    H129846   1.138   6.590   4.309 -1.7881  1.1451  1.4454
 2785TIP3    H229847   1.160   6.737   4.278  1.6679  0.0340 -2.2573
 2786TIP3   OH229848   0.214   1.481  14.178 -0.1620  0.3382  0.0962
 2786TIP3    H129849   0.154   1.471  14.105  0.9046  0.6724 -0.8568
 2786TIP3    H229850   0.243   1.392  14.199  0.2741  0.3183 -0.5515
 2787TIP3   OH229851   5.889   0.160   1.886  0.1712  0.3200 -0.0536
 2787TIP3    H129852   5.831   0.085   1.875 -1.2451  1.0793  1.6809
 2787TIP3    H229853   5.950   0.132   1.955 -0.1698  0.6321  0.3822
 2788TIP3   OH229854   6.503   3.699   5.983  0.4393 -0.5517  0.3182
 2788TIP3    H129855   6.539   3.730   5.900 -3.5759  2.0417 -0.7130
 2788TIP3    H229856   6.562   3.735   6.049  1.7525  0.3523 -1.2640
 2789TIP3   OH229857   5.565   6.468   5.460 -0.2749 -0.2148  0.2620
 2789TIP3    H129858   5.534   6.541   5.512  1.5436 -0.3807  1.7093
 2789TIP3    H229859   5.659   6.464   5.479 -0.0219 -1.8722 -1.0961
 2790TIP3   OH229860   6.277   3.794  12.144  0.6870  0.1169 -0.0979
 2790TIP3    H129861   6.222   3.872  12.147 -0.0176 -0.2407 -2.1758
 2790TIP3    H229862   6.228   3.728  12.194  0.4408  0.4950  0.1689
 2791TIP3   OH229863   4.743   0.948  12.467 -0.5115 -0.8785 -0.1338
 2791TIP3    H129864   4.668   1.001  12.441  0.8790  0.6211 -1.3511
 2791TIP3    H229865   4.762   0.894  12.390  0.8195  0.2106 -0.6192
 2792TIP3   OH229866   5.296   4.910  15.495 -0.6351 -0.3650  0.6389
 2792TIP3    H129867   5.265   4.902  15.586 -1.6228 -1.2724  0.2466
 2792TIP3    H229868   5.233   4.858  15.444  1.8849 -2.8968 -0.1427
 2793TIP3   OH229869   4.653   1.095   5.796  0.3957  0.3451 -0.2536
 2793TIP3    H129870   4.617   1.080   5.883 -0.2652 -1.1626 -0.7447
 2793TIP3    H229871   4.716   1.024   5.783  2.2434  1.8849 -0.1435
 2794TIP3   OH229872   0.226   3.538  15.451 -0.1587 -0.1957 -0.7798
 2794TIP3    H129873   0.248   3.510  15.362  1.4760  0.5787 -0.6662
 2794TIP3    H229874   0.189   3.626  15.440 -1.6165 -0.7858 -0.8118
 2795TIP3   OH229875   4.774   0.082   2.563 -0.0685 -0.0852  0.3677
 2795TIP3    H129876   4.696   0.037   2.530 -0.6179 -0.4815  2.1468
 2795TIP3    H229877   4.758   0.093   2.656  1.3554  1.2021  0.4925
 2796TIP3   OH229878   6.483   3.004   4.161  0.6530 -0.3826  0.3172
 2796TIP3    H129879   6.436   3.078   4.121  0.2311  0.8538  2.8528
 2796TIP3    H229880   6.432   2.927   4.135 -0.3873  0.4845 -0.3543
 2797TIP3   OH229881   0.093   1.899  10.439 -0.4383  0.2994 -0.2597
 2797TIP3    H129882   0.032   1.875  10.509 -0.2860 -0.0676 -0.2480
 2797TIP3    H229883   0.040   1.946  10.375 -0.6448  0.3541 -0.0503
 2798TIP3   OH229884   1.861   6.708   3.476  0.3191 -0.4282  0.1880
 2798TIP3    H129885   1.778   6.667   3.452 -0.0892 -0.2170  1.1717
 2798TIP3    H229886   1.853   6.725   3.570 -0.0714  3.0528 -0.3313
 2799TIP3   OH229887   6.331   0.508   2.392  0.2338 -0.1864 -0.3611
 2799TIP3    H129888   6.315   0.580   2.452 -0.0181  0.1996 -0.8832
 2799TIP3    H229889   6.251   0.456   2.395 -0.0406  0.2056 -0.8709
 2800TIP3   OH229890   1.590   0.486  12.570  1.0777 -0.7578 -0.2689
 2800TIP3    H129891   1.588   0.404  12.620  1.1810  0.3271  1.5996
 2800TIP3    H229892   1.501   0.498  12.539  0.3586 -0.2375  1.8176
 2801TIP3   OH229893   6.570   0.296   5.900  0.2390 -0.3229  0.1652
 2801TIP3    H129894   6.554   0.215   5.850 -0.7441 -0.2870  0.4014
 2801TIP3    H229895   6.615   0.266   5.979  2.6588 -0.2801 -1.1171
 2802TIP3   OH229896   3.269   6.555  15.592 -0.4659 -0.0758  0.0410
 2802TIP3    H129897   3.337   6.528  15.654  0.7754  0.3659 -1.0836
 2802TIP3    H229898   3.212   6.479  15.583 -0.1557 -0.4324  1.0436
 2803TIP3   OH229899   0.587   2.709   0.596 -0.1243 -0.0102  0.1597
 2803TIP3    H129900   0.635   2.781   0.556  0.5440  0.7040  2.1471
 2803TIP3    H229901   0.511   2.750   0.636 -0.0663 -0.4841  0.7791
 2804TIP3   OH229902   6.688   1.161   4.354 -0.4675  0.2538  0.0495
 2804TIP3    H129903   6.740   1.155   4.274 -0.7823  1.4747 -0.2750
 2804TIP3    H229904   6.633   1.238   4.341 -1.2255 -0.0971  1.0462
 2805TIP3   OH229905   3.401   3.480   1.046  0.5136  0.2130  0.0091
 2805TIP3    H129906   3.383   3.530   0.967 -0.2936  0.4164  0.3170
 2805TIP3    H229907   3.317   3.440   1.069  1.1387 -1.2824 -0.2297
 2806TIP3   OH229908   5.065   6.152   4.616 -0.4768  0.0536 -0.0710
 2806TIP3    H129909   5.019   6.142   4.700 -0.4997 -1.2884 -0.2223
 2806TIP3    H229910   5.056   6.245   4.594  0.9973  0.8154  2.2343
 2807TIP3   OH229911   5.283   5.369  16.502 -0.0372  0.3687 -0.0387
 2807TIP3    H129912   5.300   5.309  16.575 -0.2454  1.6669  1.1139
 2807TIP3    H229913   5.365   5.371  16.453 -0.1304 -1.1024 -0.2978
 2808TIP3   OH229914   1.931   5.782  15.517 -0.6793 -0.3451 -0.2451
 2808TIP3    H129915   1.881   5.736  15.585  0.4135 -0.7963  0.2810
 2808TIP3    H229916   1.887   5.867  15.509 -1.4916 -0.7091  0.2425
 2809TIP3   OH229917   5.140   5.145   2.259 -0.4882  0.0116  0.0163
 2809TIP3    H129918   5.129   5.051   2.246  1.0092 -0.1570 -0.2682
 2809TIP3    H229919   5.225   5.165   2.221  0.0619  1.1426  1.6782
 2810TIP3   OH229920   0.932   4.396   6.292 -0.1364 -0.0724 -0.0111
 2810TIP3    H129921   0.974   4.342   6.359  0.8625 -0.0665 -0.6214
 2810TIP3    H229922   0.838   4.380   6.305  0.1238 -2.7035 -0.7815
 2811TIP3   OH229923   1.385   3.505   2.425  0.2249 -0.1210  0.4493
 2811TIP3    H129924   1.355   3.425   2.381  0.4895  0.0697 -0.0848
 2811TIP3    H229925   1.466   3.529   2.379  0.2497  0.3462  0.7307
 2812TIP3   OH229926   6.021   5.226  10.885 -0.1480  0.0537 -0.2263
 2812TIP3    H129927   6.056   5.294  10.942 -1.5845  1.4590 -0.9453
 2812TIP3    H229928   6.055   5.144  10.921  3.2371  1.2238 -0.4783
 2813TIP3   OH229929   5.738   6.357  16.793  0.1045 -0.0428 -0.1232
 2813TIP3    H129930   5.770   6.441  16.826 -0.0075 -0.7705  2.0324
 2813TIP3    H229931   5.646   6.355  16.817  0.0075 -0.5960 -0.5208
 2814TIP3   OH229932   2.061   5.226  14.720  0.1846  0.0393 -0.0736
 2814TIP3    H129933   2.136   5.215  14.779  0.8326  0.3892 -0.8051
 2814TIP3    H229934   1.985   5.221  14.777  0.8303  1.7331  1.0271
 2815TIP3   OH229935   4.045   3.810  12.953  0.1558 -0.3665  0.4948
 2815TIP3    H129936   4.006   3.885  12.908  0.2115 -0.9612 -0.5949
 2815TIP3    H229937   3.971   3.754  12.975  0.1774 -0.3463  0.6179
 2816TIP3   OH229938   6.668   0.912  15.950  0.3706 -0.1996  0.1290
 2816TIP3    H129939   6.689   0.992  15.998  0.0680  0.4311 -0.7779
 2816TIP3    H229940   6.572   0.909  15.948  0.3123  0.9558 -2.2888
 2817TIP3   OH229941   5.321   1.374  16.235 -0.2326  0.1378 -0.1024
 2817TIP3    H129942   5.392   1.327  16.280 -1.8424  0.0147  2.5097
 2817TIP3    H229943   5.304   1.450  16.291 -0.7917  1.3325 -1.8042
 2818TIP3   OH229944   1.022   5.021   3.271 -0.0630 -0.4095  0.2447
 2818TIP3    H129945   1.102   5.070   3.293 -0.3370  0.2543 -0.2011
 2818TIP3    H229946   0.975   5.078   3.211 -0.7883 -0.8828  0.3519
 2819TIP3   OH229947   3.825   4.250   3.400  0.8119 -0.4477 -0.1576
 2819TIP3    H129948   3.747   4.200   3.377  1.6843 -1.9304 -0.0147
 2819TIP3    H229949   3.792   4.328   3.443 -0.5511 -2.5459  2.9050
 2820TIP3   OH229950   4.819   3.821  10.744  0.2495 -0.3887  0.2083
 2820TIP3    H129951   4.807   3.912  10.774  1.2757 -0.7610  1.8852
 2820TIP3    H229952   4.741   3.775  10.775 -0.9727  0.1275 -1.8552
 2821TIP3   OH229953   5.241   1.347  15.321 -0.1957  0.4674  0.2375
 2821TIP3    H129954   5.270   1.415  15.383  0.4870 -1.3079  1.9613
 2821TIP3    H229955   5.149   1.333  15.342 -0.0525  0.1089  0.6488
 2822TIP3   OH229956   2.416   4.189  11.622 -0.2021  0.3675 -0.2615
 2822TIP3    H129957   2.349   4.153  11.563  0.1741  0.4667 -0.7547
 2822TIP3    H229958   2.380   4.273  11.650 -0.3054  0.4013 -0.4932
 2823TIP3   OH229959   6.527   5.986   2.602 -0.1010  0.1697 -0.6853
 2823TIP3    H129960   6.530   6.037   2.683  1.8782 -1.0474  0.0655
 2823TIP3    H229961   6.580   6.037   2.541 -2.0918  1.4039 -1.4897
 2824TIP3   OH229962   5.262   6.281  11.003 -0.5491  0.2571 -0.6123
 2824TIP3    H129963   5.221   6.199  10.977 -0.6224 -0.3436  1.2561
 2824TIP3    H229964   5.355   6.260  11.011 -0.6083  0.2602  0.1595
 2825TIP3   OH229965   5.779   1.535  12.801 -0.0798 -0.3037  0.0496
 2825TIP3    H129966   5.851   1.486  12.839 -2.1032 -2.5355  1.2686
 2825TIP3    H229967   5.807   1.554  12.711  1.5292 -2.1674  0.1110
 2826TIP3   OH229968   5.983   2.000   2.292 -0.2535  0.1886  1.0450
 2826TIP3    H129969   5.941   2.046   2.219  1.0248 -1.0206 -0.5208
 2826TIP3    H229970   6.008   1.915   2.257  1.8026  0.1286  2.4152
 2827TIP3   OH229971   5.733   3.326   3.176  0.1797 -0.2674  0.5482
 2827TIP3    H129972   5.686   3.410   3.174  1.9264  0.7761 -1.6896
 2827TIP3    H229973   5.713   3.286   3.091  0.7803 -1.2844  0.8698
 2828TIP3   OH229974   4.334   4.833  14.777 -0.0920 -0.3669  0.0026
 2828TIP3    H129975   4.311   4.776  14.704  1.1558 -0.0314 -0.6814
 2828TIP3    H229976   4.280   4.911  14.766 -0.9695 -0.9299  0.2865
 2829TIP3   OH229977   2.046   0.815   5.596  0.1770 -0.3482 -0.2610
 2829TIP3    H129978   2.072   0.856   5.678 -2.0013 -0.3222  0.4745
 2829TIP3    H229979   2.066   0.881   5.529  3.2843 -0.8972 -0.0258
 2830TIP3   OH229980   3.324   0.635   5.943  0.0113  0.1340 -0.1991
 2830TIP3    H129981   3.238   0.613   5.979 -0.0513  0.5347 -0.1067
 2830TIP3    H229982   3.370   0.677   6.016 -0.1418  1.0210 -0.6005
 2831TIP3   OH229983   2.084   3.012  14.684 -0.3587  0.2079  0.2728
 2831TIP3    H129984   2.100   2.918  14.681 -0.9302  0.1248 -1.5380
 2831TIP3    H229985   2.022   3.023  14.756 -0.8201 -0.9184  0.0826
 2832TIP3   OH229986   5.708   4.020   0.553 -0.0526  0.2620 -0.4058
 2832TIP3    H129987   5.708   3.935   0.509 -0.8887  0.9978 -1.9092
 2832TIP3    H229988   5.674   4.002   0.640  1.6182 -1.2446 -0.0059
 2833TIP3   OH229989   5.646   0.373  15.926  0.2379  0.6973  0.9270
 2833TIP3    H129990   5.717   0.384  15.863 -1.3489  1.3890 -0.8315
 2833TIP3    H229991   5.641   0.279  15.941 -1.6416  0.0151 -2.9017
 2834TIP3   OH229992   2.072   3.406   2.746  0.2076  0.1473  0.2070
 2834TIP3    H129993   2.040   3.334   2.801 -0.2815  0.8108  0.8154
 2834TIP3    H229994   2.167   3.393   2.743  0.0470 -0.9721 -0.3536
 2835TIP3   OH229995   2.517   3.850   1.948  0.1492  0.1863  0.2095
 2835TIP3    H129996   2.568   3.926   1.920 -0.3487  0.5323  0.2221
 2835TIP3    H229997   2.462   3.829   1.872 -0.3297  0.3763  0.4947
 2836TIP3   OH229998   0.940   4.422   5.184 -0.3987  0.4746 -0.0106
 2836TIP3    H129999   0.943   4.327   5.186  1.7945  0.3861 -2.3664
 2836TIP3    H230000   0.847   4.443   5.191 -0.7704 -1.5526  4.1286
 2837TIP3   OH230001   1.049   4.947   5.784 -1.0713  0.1407 -0.5601
 2837TIP3    H130002   0.977   5.000   5.819 -0.4895  0.6547 -0.1167
 2837TIP3    H230003   1.027   4.857   5.807  0.2749  0.5813  3.0398
 2838TIP3   OH230004   3.254   1.569   3.198 -0.2006  0.1449 -0.2612
 2838TIP3    H130005   3.307   1.626   3.254 -1.8164 -0.5493  2.1204
 2838TIP3    H230006   3.304   1.487   3.194  0.9852  0.8976 -1.7433
 2839TIP3   OH230007   0.163   0.018   3.268 -0.2733 -0.0412  0.0419
 2839TIP3    H130008   0.117  -0.062   3.291  0.9874 -0.8280 -0.0384
 2839TIP3    H230009   0.139   0.081   3.336  1.0771 -1.4123  1.8872
 2840TIP3   OH230010   1.070   1.856   3.630 -0.6461 -0.3742  0.8948
 2840TIP3    H130011   1.124   1.779   3.614  0.9746  0.5595  1.5750
 2840TIP3    H230012   0.987   1.836   3.588  0.2519 -1.8410 -0.3026
 2841TIP3   OH230013   4.248   4.303  15.018 -0.4432 -0.1644  0.4374
 2841TIP3    H130014   4.213   4.214  15.024  0.1787 -0.4429  0.0502
 2841TIP3    H230015   4.330   4.294  14.970 -0.5034  0.6607  0.1528
 2842TIP3   OH230016   0.531   3.343   2.377  0.0338  0.1628 -0.1517
 2842TIP3    H130017   0.570   3.409   2.319  1.3405 -0.3743  0.0617
 2842TIP3    H230018   0.570   3.260   2.348  1.1488 -0.0613  1.7727
 2843TIP3   OH230019   2.301   4.772  10.886  0.2419  0.6831  0.4597
 2843TIP3    H130020   2.274   4.862  10.866  0.6941  0.6448 -0.3449
 2843TIP3    H230021   2.222   4.720  10.877 -0.1148  1.0466  1.3184
 2844TIP3   OH230022   0.687   2.624   1.273 -0.3483 -0.4176 -0.6733
 2844TIP3    H130023   0.619   2.687   1.298 -1.1348  0.0200 -3.5301
 2844TIP3    H230024   0.676   2.614   1.178  1.5804 -2.7483 -0.7348
 2845TIP3   OH230025   0.958   5.493   0.456  0.0219 -0.6041  0.5105
 2845TIP3    H130026   0.954   5.532   0.369 -0.0484 -0.5606  0.5335
 2845TIP3    H230027   1.044   5.518   0.490 -0.0700 -0.3684  0.5731
 2846TIP3   OH230028   1.481   5.344  12.659  0.1794 -0.3452  0.3128
 2846TIP3    H130029   1.408   5.357  12.720 -0.7450 -2.5649 -0.1967
 2846TIP3    H230030   1.555   5.389  12.700 -0.9251  0.0314  2.0010
 2847TIP3   OH230031   3.850   3.736   3.963  0.2358  0.0265 -0.0508
 2847TIP3    H130032   3.848   3.794   4.039 -0.8255 -1.7699  1.3924
 2847TIP3    H230033   3.930   3.760   3.917  0.3071  1.9788  0.9639
 2848TIP3   OH230034   4.170   4.604  13.204  0.1671  0.6653  0.0430
 2848TIP3    H130035   4.076   4.613  13.187  0.3012  0.3941 -0.8978
 2848TIP3    H230036   4.201   4.542  13.138  0.9471  0.4808  0.5654
 2849TIP3   OH230037   0.777   2.922   5.962 -0.2106 -0.3406 -0.2547
 2849TIP3    H130038   0.848   2.984   5.951 -0.9135  0.3767 -0.8764
 2849TIP3    H230039   0.812   2.854   6.020  0.7381  0.3573  0.0005
 2850TIP3   OH230040   0.596   6.301   2.800 -0.3380  0.4362  0.7601
 2850TIP3    H130041   0.640   6.385   2.792  0.8940 -0.2790 -0.4700
 2850TIP3    H230042   0.576   6.293   2.893 -1.4932  2.5480  0.7413
 2851TIP3   OH230043   3.906   1.374  10.535  0.0082  0.4905 -0.0787
 2851TIP3    H130044   3.925   1.314  10.607 -2.0713 -0.2534 -0.0718
 2851TIP3    H230045   3.854   1.322  10.474  0.3142  1.5901 -1.3244
 2852TIP3   OH230046   4.900   5.580  12.335 -0.3607 -0.0816 -0.3458
 2852TIP3    H130047   4.949   5.514  12.286  0.2606  0.1488 -0.0521
 2852TIP3    H230048   4.833   5.530  12.382 -0.2565 -0.4332 -0.5651
 2853TIP3   OH230049   0.347   4.930  15.884  0.3738  0.1762  0.0595
 2853TIP3    H130050   0.352   4.976  15.800 -0.4383  0.4387  0.1502
 2853TIP3    H230051   0.357   4.999  15.950  1.4855 -0.0857  0.1973
 2854TIP3   OH230052   6.781   4.181  15.185  0.3337  0.3970  0.2340
 2854TIP3    H130053   6.748   4.111  15.241 -1.6593  1.9925  1.1741
 2854TIP3    H230054   6.870   4.196  15.215  0.0593 -0.3002  1.4524
 2855TIP3   OH230055   4.296   1.010   1.727  0.2460 -0.6695 -0.9488
 2855TIP3    H130056   4.201   1.017   1.719  0.1755 -1.6899 -1.0866
 2855TIP3    H230057   4.314   0.916   1.724  1.2296 -0.5085 -0.5508
 2856TIP3   OH230058   4.859   0.495   1.407 -0.0381 -0.0571 -0.0693
 2856TIP3    H130059   4.859   0.537   1.493  1.5582 -0.9940  0.4261
 2856TIP3    H230060   4.782   0.438   1.409  0.6493 -0.9897  1.2328
 2857TIP3   OH230061   2.538   1.766   3.966 -0.3137  0.2539 -0.1479
 2857TIP3    H130062   2.613   1.717   3.999  1.4855  2.6165 -0.5260
 2857TIP3    H230063   2.509   1.717   3.889  1.0325 -0.5285 -0.1875
 2858TIP3   OH230064   5.130   3.873  15.537 -0.2159 -0.3686  0.7121
 2858TIP3    H130065   5.149   3.882  15.444 -0.3551 -0.0860  0.7123
 2858TIP3    H230066   5.035   3.878  15.543 -0.1399  1.0746  1.0270
 2859TIP3   OH230067   0.213   5.089  12.530  0.2330 -0.1361  0.1231
 2859TIP3    H130068   0.250   5.006  12.561  0.1228  0.2454  1.3191
 2859TIP3    H230069   0.172   5.128  12.607 -1.2585  0.2229 -0.8074
 2860TIP3   OH230070   3.375   4.772   6.003 -0.0342  0.1137  0.0290
 2860TIP3    H130071   3.426   4.692   6.016  1.0187  0.5613 -1.1396
 2860TIP3    H230072   3.400   4.828   6.077  0.9151  0.1766 -0.3174
 2861TIP3   OH230073   3.813   5.450  10.848 -0.4164 -0.1310 -0.5332
 2861TIP3    H130074   3.895   5.431  10.802  0.1812  0.9737  0.0309
 2861TIP3    H230075   3.751   5.470  10.778 -0.2240 -0.9959 -0.9695
 2862TIP3   OH230076   0.514   3.828  13.835  0.5291  0.3560 -0.5417
 2862TIP3    H130077   0.554   3.830  13.922 -0.5061 -0.2506 -0.0416
 2862TIP3    H230078   0.549   3.906  13.791  0.6763  0.9383  0.5797
 2863TIP3   OH230079   0.606   2.675   3.177 -0.5375 -0.9833 -0.3704
 2863TIP3    H130080   0.572   2.682   3.266 -0.6545 -0.3563 -0.4576
 2863TIP3    H230081   0.628   2.765   3.152  0.7268 -1.3008 -0.4974
 2864TIP3   OH230082   0.472   0.513  10.538  0.0707  0.0095  0.3819
 2864TIP3    H130083   0.403   0.487  10.476  1.1271  0.5968 -1.1157
 2864TIP3    H230084   0.531   0.438  10.541  1.9149  1.1934 -2.1900
 2865TIP3   OH230085   4.350   5.172  16.820  0.2693 -0.0066 -0.0614
 2865TIP3    H130086   4.325   5.246  16.765  1.7507 -0.1132 -0.9485
 2865TIP3    H230087   4.424   5.204  16.872  1.4632 -1.0556 -1.0401
 2866TIP3   OH230088   1.095   2.177  15.174  0.4519  0.2719  0.2214
 2866TIP3    H130089   1.136   2.226  15.245  1.8180  0.2390 -0.5147
 2866TIP3    H230090   1.067   2.243  15.111  0.9979  0.1981 -0.1039
 2867TIP3   OH230091   4.825   5.093  15.089 -0.0019 -0.9695 -0.5443
 2867TIP3    H130092   4.730   5.098  15.094  0.0040  0.0098 -1.2349
 2867TIP3    H230093   4.844   5.070  14.998  0.4446 -0.0555 -0.6946
 2868TIP3   OH230094   2.844   1.675   1.335 -0.4966  0.0932  0.2386
 2868TIP3    H130095   2.780   1.695   1.403 -0.3069  0.9332  0.1707
 2868TIP3    H230096   2.798   1.692   1.253 -0.7613 -1.0210  0.1346
 2869TIP3   OH230097   6.226   6.137   0.160 -0.1869  0.4028 -0.4131
 2869TIP3    H130098   6.308   6.177   0.190 -0.6159  1.1868 -0.2806
 2869TIP3    H230099   6.217   6.058   0.214  1.3319 -0.6202 -1.5584
 2870TIP3   OH230100   3.133   5.572   3.702 -0.8335  0.3595  0.2603
 2870TIP3    H130101   3.060   5.609   3.750 -1.0573  2.6640 -1.6357
 2870TIP3    H230102   3.093   5.526   3.628 -0.4261  1.3765 -0.6209
 2871TIP3   OH230103   5.284   5.123   5.636 -0.1971  0.1649  0.1056
 2871TIP3    H130104   5.380   5.127   5.633 -0.2427  1.1018 -0.3332
 2871TIP3    H230105   5.259   5.192   5.697 -0.5188 -1.5716  2.0938
 2872TIP3   OH230106   0.585   3.871  12.247 -0.3938 -0.6551 -0.2153
 2872TIP3    H130107   0.640   3.798  12.219  0.2662 -0.3349  0.2386
 2872TIP3    H230108   0.572   3.922  12.167  0.6926 -0.2624 -0.1534
 2873TIP3   OH230109   5.165   1.934   1.103 -0.1632  0.1790 -0.1255
 2873TIP3    H130110   5.153   2.007   1.164  0.7335  0.9221 -0.8204
 2873TIP3    H230111   5.216   1.869   1.153  2.4098  1.6433 -0.6798
 2874TIP3   OH230112   5.160   5.350  11.617 -0.2617  0.4960  0.2878
 2874TIP3    H130113   5.246   5.378  11.586  0.7502 -1.8028  0.8272
 2874TIP3    H230114   5.155   5.381  11.707  0.2386  0.1557  0.4330
 2875TIP3   OH230115   0.012   2.453  13.510 -0.4267  0.1720  0.4829
 2875TIP3    H130116  -0.050   2.492  13.449 -0.5871 -1.4589 -0.4353
 2875TIP3    H230117   0.018   2.361  13.484  1.1010 -0.0934  1.6068
 2876TIP3   OH230118   2.400   2.853   2.413 -0.3503 -0.3167  0.2782
 2876TIP3    H130119   2.477   2.906   2.433 -0.0305 -0.7841  0.3014
 2876TIP3    H230120   2.342   2.912   2.366  0.8361 -0.4767 -1.4722
 2877TIP3   OH230121   0.623   5.482   5.467  0.2300  0.6685  0.7051
 2877TIP3    H130122   0.655   5.461   5.379  1.4931  1.5617  0.9271
 2877TIP3    H230123   0.528   5.468   5.461  0.3802 -0.0242 -0.5735
 2878TIP3   OH230124   6.084   2.442   1.435 -0.6639  0.0109 -0.8249
 2878TIP3    H130125   6.147   2.514   1.434 -0.5290 -0.0948 -0.0148
 2878TIP3    H230126   6.034   2.454   1.354  0.1671  0.2871 -1.3154
 2879TIP3   OH230127   2.730   1.111  12.859  0.5183  0.2514 -0.3076
 2879TIP3    H130128   2.732   1.170  12.783 -1.6864 -0.3857 -0.9227
 2879TIP3    H230129   2.697   1.165  12.931  2.9930  0.9694  0.4109
 2880TIP3   OH230130   5.583   0.220  13.270 -0.1026 -0.3461 -0.2666
 2880TIP3    H130131   5.510   0.163  13.295 -2.4429  1.6975 -2.0082
 2880TIP3    H230132   5.621   0.247  13.354 -1.4849 -1.2750  0.7214
 2881TIP3   OH230133   0.954   4.810  16.766 -0.3043  0.3230  0.3395
 2881TIP3    H130134   1.027   4.774  16.716 -1.5782 -1.4423 -0.3430
 2881TIP3    H230135   0.943   4.899  16.731 -0.0510 -0.2604 -1.2914
 2882TIP3   OH230136   5.281   4.098   0.567  0.1229 -0.9625  0.0414
 2882TIP3    H130137   5.245   4.097   0.478  0.5835 -0.8023 -0.1494
 2882TIP3    H230138   5.355   4.159   0.562 -1.7158  1.5243  1.2786
 2883TIP3   OH230139   2.299   0.229  12.598 -0.7882  0.4346 -0.2728
 2883TIP3    H130140   2.268   0.154  12.649 -0.4246  0.9691  0.7571
 2883TIP3    H230141   2.347   0.283  12.661  0.5712  0.5999 -1.3914
 2884TIP3   OH230142   5.928   1.982   5.707  0.8473  0.1811 -0.2126
 2884TIP3    H130143   5.876   1.942   5.638  2.1789 -0.7451 -0.7079
 2884TIP3    H230144   5.914   1.927   5.784 -1.3585  1.7174  0.6008
 2885TIP3   OH230145   1.639   6.528  11.660  0.1446  0.1403 -0.0022
 2885TIP3    H130146   1.724   6.541  11.702  0.3712  0.6950 -0.6071
 2885TIP3    H230147   1.639   6.591  11.588 -0.6608 -0.0669 -0.1857
 2886TIP3   OH230148   5.608   3.495   0.137 -0.5074  0.4381  0.3544
 2886TIP3    H130149   5.673   3.429   0.159  0.0553  0.8268 -0.1232
 2886TIP3    H230150   5.531   3.472   0.190 -0.7182 -1.2605 -0.6080
 2887TIP3   OH230151   3.823   6.397   4.371  0.8345 -0.2700 -0.3007
 2887TIP3    H130152   3.779   6.482   4.370  0.6745 -0.3598 -1.2138
 2887TIP3    H230153   3.752   6.333   4.372  0.9346 -0.4114 -1.4634
 2888TIP3   OH230154   2.844   2.289  16.053  0.3983  0.5722  0.9857
 2888TIP3    H130155   2.869   2.223  15.988  0.6141  0.9366  0.6990
 2888TIP3    H230156   2.926   2.321  16.089  0.2946  0.6848  1.1245
 2889TIP3   OH230157   1.291   5.008  11.186  0.9552 -0.3434 -0.7730
 2889TIP3    H130158   1.362   5.016  11.250  1.4248  0.3084 -1.3652
 2889TIP3    H230159   1.308   5.077  11.123 -0.4179  0.0404 -0.7411
 2890TIP3   OH230160   6.668   2.993  12.952 -0.7737  0.0514  0.2448
 2890TIP3    H130161   6.687   3.086  12.947  0.2412 -0.1896 -0.9804
 2890TIP3    H230162   6.576   2.988  12.976 -0.8877  1.3698  0.1405
 2891TIP3   OH230163   6.064   0.181  10.927  0.3077 -0.4230  0.1185
 2891TIP3    H130164   6.133   0.227  10.974  1.5966 -3.1631  1.1199
 2891TIP3    H230165   6.050   0.101  10.977  0.1344 -2.4753 -2.9405
 2892TIP3   OH230166   0.867   3.136  15.812  0.1519  0.0260 -0.2205
 2892TIP3    H130167   0.822   3.220  15.815 -1.1799 -0.6582  2.2825
 2892TIP3    H230168   0.942   3.147  15.870  0.0345 -0.4732  0.0308
 2893TIP3   OH230169   1.643   4.508   0.876 -0.0362 -0.3416 -0.2450
 2893TIP3    H130170   1.554   4.536   0.901  0.0678  1.2747 -1.5684
 2893TIP3    H230171   1.647   4.416   0.903 -1.4289  0.0741  1.6145
 2894TIP3   OH230172   0.593   6.432   4.192 -0.1482  0.4142  0.0770
 2894TIP3    H130173   0.577   6.381   4.271  1.1591 -0.2740 -0.0706
 2894TIP3    H230174   0.686   6.452   4.195  0.4427 -1.4583 -2.3172
 2895TIP3   OH230175   6.482   1.865   1.150 -0.3929  0.1167 -0.4532
 2895TIP3    H130176   6.512   1.947   1.111  0.5581 -1.3217 -2.9718
 2895TIP3    H230177   6.554   1.804   1.136 -1.7232 -1.5876 -0.1611
 2896TIP3   OH230178   1.190   0.428  11.096  0.9842  0.4630  0.0170
 2896TIP3    H130179   1.166   0.427  11.004  1.1724 -1.1177 -0.0509
 2896TIP3    H230180   1.211   0.519  11.115 -0.2593  1.0255 -1.1691
 2897TIP3   OH230181   5.581   1.811  12.681 -0.5088  0.6132  0.8045
 2897TIP3    H130182   5.535   1.745  12.733  0.8415 -0.6821  0.4459
 2897TIP3    H230183   5.661   1.828  12.731 -0.3722  1.2201  0.3776
 2898TIP3   OH230184   6.161   1.967   4.353 -0.1067 -0.2362 -0.3081
 2898TIP3    H130185   6.075   2.008   4.347  0.7416  1.4860 -1.5020
 2898TIP3    H230186   6.208   2.017   4.418  0.3767 -0.4385 -0.4965
 2899TIP3   OH230187   2.124   3.281  16.381 -0.4731 -0.6301  0.5459
 2899TIP3    H130188   2.122   3.207  16.441  2.0246 -0.9916  0.2721
 2899TIP3    H230189   2.085   3.247  16.300  0.4267 -1.6117  0.4971
 2900TIP3   OH230190   1.003   0.386   4.371 -0.7039 -0.9608  0.0714
 2900TIP3    H130191   1.030   0.341   4.451  2.1038 -0.6751 -0.6024
 2900TIP3    H230192   1.021   0.324   4.301 -1.9715 -0.7561 -0.4647
 2901TIP3   OH230193   4.547   6.792  15.241  0.5518 -0.0933  0.4885
 2901TIP3    H130194   4.530   6.710  15.195  0.2176 -0.2407  0.8623
 2901TIP3    H230195   4.608   6.839  15.185 -0.0350 -0.1626 -0.2161
 2902TIP3   OH230196   6.483   4.034   4.254 -0.2353  0.0710 -0.1397
 2902TIP3    H130197   6.465   4.055   4.162 -2.6234  2.6078  0.7250
 2902TIP3    H230198   6.441   3.950   4.268 -1.1262  0.3315 -1.0764
 2903TIP3   OH230199   2.065   5.683   3.950  0.3076  0.0066 -0.0307
 2903TIP3    H130200   1.999   5.752   3.948  0.4514  0.1646  0.5688
 2903TIP3    H230201   2.015   5.602   3.939 -0.3294 -0.1004  2.8534
 2904TIP3   OH230202   4.448   5.418  11.565 -0.0372 -0.0081 -0.0377
 2904TIP3    H130203   4.469   5.508  11.586 -0.0115  0.0158 -0.1620
 2904TIP3    H230204   4.499   5.399  11.485 -0.3262 -0.0140 -0.2226
 2905TIP3   OH230205   1.341   4.241  11.299 -0.4537 -0.7835  0.3939
 2905TIP3    H130206   1.272   4.175  11.288 -1.6492  0.4991 -0.1214
 2905TIP3    H230207   1.352   4.248  11.394 -0.8150 -1.2242  0.4713
 2906TIP3   OH230208   4.288   1.672  16.419 -0.3770  0.5287  0.2992
 2906TIP3    H130209   4.288   1.577  16.427  0.5215  0.1081 -3.0088
 2906TIP3    H230210   4.372   1.700  16.456  1.0672 -0.4878 -1.9890
 2907TIP3   OH230211   3.034   2.804   3.589 -0.0306  0.3316 -0.4811
 2907TIP3    H130212   3.072   2.886   3.621  0.4395 -0.5671  1.4341
 2907TIP3    H230213   3.048   2.742   3.660  0.2364 -1.6116 -2.1218
 2908TIP3   OH230214   1.339   3.699   2.193  0.0236 -0.1695  0.1087
 2908TIP3    H130215   1.246   3.724   2.198  0.0147  0.0472 -1.0576
 2908TIP3    H230216   1.364   3.687   2.285 -1.3348 -0.9158  0.4231
 2909TIP3   OH230217   1.704   2.727   1.345 -0.2727 -0.0414  0.7442
 2909TIP3    H130218   1.686   2.784   1.420 -1.2486  1.6477 -0.6847
 2909TIP3    H230219   1.620   2.719   1.301  0.2446 -1.1347 -0.0802
 2910TIP3   OH230220   5.169   5.587  10.977  0.1505 -0.0675 -0.2143
 2910TIP3    H130221   5.095   5.573  10.918  0.1544  0.8676 -0.4516
 2910TIP3    H230222   5.246   5.572  10.922  0.1980 -2.7546  0.4308
 2911TIP3   OH230223   6.283   3.607   0.257 -0.3928  0.5618 -0.1641
 2911TIP3    H130224   6.288   3.703   0.257 -1.5810  0.6838  2.0579
 2911TIP3    H230225   6.371   3.578   0.234 -0.9052  2.0682 -5.2545
 2912TIP3   OH230226   4.872   0.675   5.780 -0.5001 -0.1188  0.5069
 2912TIP3    H130227   4.916   0.625   5.849  0.4461 -1.0576 -0.7498
 2912TIP3    H230228   4.810   0.614   5.740 -1.3353  0.5372  0.7464
 2913TIP3   OH230229   1.143   6.735  15.790  0.2701 -0.3212 -0.2604
 2913TIP3    H130230   1.095   6.685  15.856  1.3890 -0.6297  0.3409
 2913TIP3    H230231   1.179   6.669  15.731  0.0980 -0.0993 -0.6234
 2914TIP3   OH230232   1.562   6.321   0.361  0.5521 -0.5580  0.1221
 2914TIP3    H130233   1.580   6.258   0.290 -1.6370 -0.7474 -0.3281
 2914TIP3    H230234   1.594   6.404   0.327 -1.1190 -0.5038 -1.4530
 2915TIP3   OH230235   0.696   3.991   2.573  0.0394 -1.1101 -0.4661
 2915TIP3    H130236   0.723   4.080   2.550  0.0967 -0.6610  1.1687
 2915TIP3    H230237   0.611   4.002   2.616  0.4004 -1.7414  0.4380
 2916TIP3   OH230238   2.496   1.112  14.087  0.0337 -0.5525 -0.2953
 2916TIP3    H130239   2.549   1.191  14.093 -1.9994  0.8433  0.2786
 2916TIP3    H230240   2.559   1.040  14.088  1.8755  1.0083  0.3759
 2917TIP3   OH230241   5.923   5.799   2.892  0.1167 -0.0604 -0.2696
 2917TIP3    H130242   5.857   5.747   2.937  1.1841  0.2289  1.7308
 2917TIP3    H230243   5.874   5.876   2.859 -0.8839 -0.8232 -0.6271
 2918TIP3   OH230244   3.660   3.725  13.764 -0.0259 -0.7784  0.0113
 2918TIP3    H130245   3.714   3.657  13.724  2.9958  1.2666  0.2452
 2918TIP3    H230246   3.609   3.761  13.692 -0.1509 -1.9099 -0.4978
 2919TIP3   OH230247   5.488   4.944  12.351 -0.0115  0.2100 -0.5514
 2919TIP3    H130248   5.570   4.896  12.362 -0.0620 -0.1322 -1.5491
 2919TIP3    H230249   5.461   4.967  12.440 -0.5410 -2.5911  0.1121
 2920TIP3   OH230250   2.807   6.071   3.452 -0.2149 -0.1722  0.6783
 2920TIP3    H130251   2.903   6.070   3.450 -0.1631  1.5241  1.0236
 2920TIP3    H230252   2.785   6.093   3.542 -0.8091  3.1336 -0.1703
 2921TIP3   OH230253   5.363   3.608   5.537 -0.3978 -0.5135 -0.0245
 2921TIP3    H130254   5.430   3.659   5.490 -1.1829 -0.3544 -0.9989
 2921TIP3    H230255   5.388   3.517   5.522 -0.0840 -0.4529  0.1025
 2922TIP3   OH230256   2.216   6.221   5.704  0.4876 -0.2654 -0.1680
 2922TIP3    H130257   2.189   6.140   5.659  2.4689 -1.4301  0.6089
 2922TIP3    H230258   2.306   6.235   5.675  0.6103  0.9349  0.7436
 2923TIP3   OH230259   1.875   1.168   0.041 -0.2666 -0.2278  0.0234
 2923TIP3    H130260   1.846   1.088  -0.004  0.5590 -1.4794  1.5848
 2923TIP3    H230261   1.932   1.212  -0.022 -1.4468 -0.3901 -1.1958
 2924TIP3   OH230262   1.270   5.419  15.096  0.2556 -0.1320 -0.8995
 2924TIP3    H130263   1.289   5.402  15.189 -1.6922  2.3014  0.0416
 2924TIP3    H230264   1.329   5.491  15.073  1.9507 -1.8076 -2.1545
 2925TIP3   OH230265   0.854   0.298  12.228 -0.0457 -0.2167  0.2211
 2925TIP3    H130266   0.945   0.321  12.212  0.2955 -2.2363 -1.1845
 2925TIP3    H230267   0.811   0.380  12.251  1.9291  0.9282 -0.0193
 2926TIP3   OH230268   3.650   1.498  14.396  0.6960 -0.0817  0.4654
 2926TIP3    H130269   3.592   1.451  14.456  0.1155 -0.5793 -0.4574
 2926TIP3    H230270   3.731   1.510  14.446  0.1174 -0.1658  1.4629
 2927TIP3   OH230271   5.240   5.898   5.613  0.0281  0.4967 -0.7663
 2927TIP3    H130272   5.297   5.908   5.537  0.7662  1.9217 -0.0556
 2927TIP3    H230273   5.152   5.908   5.578  0.2814 -0.1951 -1.6318
 2928TIP3   OH230274   3.929   4.209  15.434  0.1165 -0.2543  0.0503
 2928TIP3    H130275   4.016   4.178  15.413  0.3327  0.6044 -0.3838
 2928TIP3    H230276   3.884   4.134  15.473  0.0625 -1.6149 -2.4672
 2929TIP3   OH230277   1.682   4.892   3.496  0.8133  0.8403 -0.1147
 2929TIP3    H130278   1.769   4.931   3.503  0.9436  0.2652  2.3465
 2929TIP3    H230279   1.691   4.805   3.535 -0.8765  0.8118  0.3048
 2930TIP3   OH230280   5.454   1.974  16.189  0.2114 -0.0196 -0.5267
 2930TIP3    H130281   5.500   2.007  16.267  0.6820  1.6169 -1.4548
 2930TIP3    H230282   5.512   1.906  16.155  0.3599 -0.2301  0.1200
 2931TIP3   OH230283   6.172   5.738   5.247  0.3210  0.7317 -0.2152
 2931TIP3    H130284   6.236   5.672   5.220  0.0680 -0.0015  0.9466
 2931TIP3    H230285   6.089   5.691   5.253  0.1079  1.1815  0.5015
 2932TIP3   OH230286   5.586   3.598   3.288 -0.0063 -0.4018  0.4774
 2932TIP3    H130287   5.610   3.621   3.198  0.3326 -0.1537  0.6317
 2932TIP3    H230288   5.527   3.668   3.316  2.2233  1.1888  1.4864
 2933TIP3   OH230289   6.137   1.616  16.693  0.1745 -0.0697  0.0849
 2933TIP3    H130290   6.166   1.650  16.608 -0.7162  0.8339  0.1117
 2933TIP3    H230291   6.141   1.691  16.752  1.0985 -0.7687  0.9424
 2934TIP3   OH230292   4.283   2.692  12.678  0.6080  0.0588  0.5004
 2934TIP3    H130293   4.212   2.751  12.701  0.5685 -0.4391  1.7546
 2934TIP3    H230294   4.242   2.606  12.672  0.6476  0.1289 -1.3892
 2935TIP3   OH230295   2.432   4.354  15.682  0.7406 -0.2333  0.3583
 2935TIP3    H130296   2.497   4.294  15.717  0.8832  0.4627  1.2915
 2935TIP3    H230297   2.356   4.298  15.663  1.4025 -0.9513 -0.2275
 2936TIP3   OH230298   3.029   1.667  11.387  0.0340 -0.1273  0.0256
 2936TIP3    H130299   3.091   1.727  11.345  1.7733 -2.0614 -0.3309
 2936TIP3    H230300   3.038   1.685  11.480 -1.1338  1.6467 -0.1514
 2937TIP3   OH230301   6.063   6.022   3.306 -0.3183  0.0488 -0.1224
 2937TIP3    H130302   6.122   5.977   3.367  0.0276 -0.8747 -1.0992
 2937TIP3    H230303   6.092   5.993   3.219 -3.6672 -2.4574 -0.6298
 2938TIP3   OH230304   6.391   5.376  11.214 -0.4484  0.1862  0.5157
 2938TIP3    H130305   6.350   5.367  11.300 -0.2095 -0.5099  0.5653
 2938TIP3    H230306   6.461   5.311  11.214 -0.7020 -0.1015 -0.3548
 2939TIP3   OH230307   2.983   2.956  11.876  0.2307 -0.3300  0.0572
 2939TIP3    H130308   3.016   3.045  11.892 -0.2281 -0.2324  0.4874
 2939TIP3    H230309   3.011   2.906  11.953 -0.4207 -0.2993  0.3204
 2940TIP3   OH230310   3.575   5.494  12.826 -0.1955  0.4359  0.6146
 2940TIP3    H130311   3.542   5.553  12.894 -1.3371  1.0907 -0.4605
 2940TIP3    H230312   3.668   5.513  12.822 -0.0857  0.3214  2.0399
 2941TIP3   OH230313   5.363   6.097   4.791 -0.2693  0.3204 -0.4140
 2941TIP3    H130314   5.306   6.043   4.846  0.4920 -0.3547 -0.2805
 2941TIP3    H230315   5.383   6.042   4.715  0.9502  0.1896 -0.0198
 2942TIP3   OH230316   5.018   0.529   3.662 -0.5459 -0.6588 -0.3384
 2942TIP3    H130317   5.055   0.616   3.650 -0.5350 -0.4713  0.8916
 2942TIP3    H230318   5.091   0.477   3.696 -0.9434 -0.7373  0.4170
 2943TIP3   OH230319   1.284   6.616  16.783 -0.2851  0.0989  0.5523
 2943TIP3    H130320   1.372   6.589  16.810  0.7233  0.1139 -2.4240
 2943TIP3    H230321   1.299   6.691  16.726 -2.5149  2.1526  2.4316
 2944TIP3   OH230322   5.491   0.682   5.145  0.5935 -0.3976  0.5377
 2944TIP3    H130323   5.396   0.685   5.143  0.6151  0.4381  0.2893
 2944TIP3    H230324   5.513   0.654   5.234  0.1129 -1.2453  0.3964
 2945TIP3   OH230325   3.620   5.176   5.883  0.2355 -0.0661 -0.1409
 2945TIP3    H130326   3.586   5.244   5.941  3.3559  1.6516 -0.1077
 2945TIP3    H230327   3.548   5.156   5.824 -1.8025  0.9134  1.8855
 2946TIP3   OH230328   5.870   4.838   0.464  0.2129 -0.0324 -0.0068
 2946TIP3    H130329   5.960   4.814   0.443  0.6370  1.1952  0.3251
 2946TIP3    H230330   5.818   4.803   0.392  1.2156  1.0754 -1.3124
 2947TIP3   OH230331   4.660   2.105  12.873  0.0726 -0.0347 -0.0869
 2947TIP3    H130332   4.674   2.058  12.791  3.1072  1.8408 -0.7896
 2947TIP3    H230333   4.573   2.143  12.864 -0.6266 -1.8128 -1.3755
 2948TIP3   OH230334   5.219   0.376   3.789  0.5969 -0.4772 -0.5001
 2948TIP3    H130335   5.283   0.389   3.859  0.7020  0.8379 -0.8013
 2948TIP3    H230336   5.272   0.350   3.713  0.4941 -1.7906 -0.1357
 2949TIP3   OH230337   3.025   3.217  12.991  0.4601 -0.0564 -0.7968
 2949TIP3    H130338   2.954   3.175  12.943  0.7497  0.2380 -1.5015
 2949TIP3    H230339   3.095   3.226  12.926  0.6539  0.8791 -0.4753
 2950TIP3   OH230340   0.169   2.301   0.859  0.4459 -0.2130 -0.0672
 2950TIP3    H130341   0.088   2.290   0.909 -0.6177  0.1406 -1.6732
 2950TIP3    H230342   0.162   2.237   0.788  3.1553 -2.6573  1.6323
 2951TIP3   OH230343   2.344   4.931  10.262 -0.1359 -0.2491 -0.5782
 2951TIP3    H130344   2.300   4.954  10.345  0.3999  0.7215 -0.5495
 2951TIP3    H230345   2.277   4.945  10.195  0.3733  2.2083 -0.6425
 2952TIP3   OH230346   3.442   1.369   4.449  0.1795  0.2838  0.0557
 2952TIP3    H130347   3.534   1.381   4.427 -0.0446  0.8309 -0.6005
 2952TIP3    H230348   3.427   1.275   4.439  0.8309  0.0777  0.8701
 2953TIP3   OH230349   0.645   3.149  11.221  0.4553 -0.4073 -0.0580
 2953TIP3    H130350   0.569   3.172  11.167  0.2055 -2.3677 -0.6368
 2953TIP3    H230351   0.717   3.201  11.185 -0.1345 -0.2182 -1.0012
 2954TIP3   OH230352   2.218   0.393   4.065 -0.0667 -0.2263 -0.2028
 2954TIP3    H130353   2.196   0.376   4.156  0.2641  0.6747  0.0577
 2954TIP3    H230354   2.137   0.375   4.017 -0.7724  0.9489  0.4777
 2955TIP3   OH230355   5.982   3.284  12.692  0.6148  0.2525  0.2205
 2955TIP3    H130356   5.966   3.376  12.715  0.5576  0.2453  0.2098
 2955TIP3    H230357   5.928   3.234  12.753  1.6226  0.1762  1.0783
 2956TIP3   OH230358   1.310   2.291   1.853 -0.2906  0.5136 -0.2260
 2956TIP3    H130359   1.399   2.282   1.886 -0.4742 -2.0581 -0.2568
 2956TIP3    H230360   1.281   2.377   1.885  0.9625 -0.0730  2.7722
 2957TIP3   OH230361   5.678   2.858  16.777  0.1522  0.2834 -0.0690
 2957TIP3    H130362   5.711   2.944  16.801  0.4167 -0.1654  1.2610
 2957TIP3    H230363   5.748   2.819  16.725  0.6394  0.3352  0.5338
 2958TIP3   OH230364   0.690   2.508   5.380  0.0547  0.4099  0.2671
 2958TIP3    H130365   0.738   2.450   5.321 -0.3073  0.5191 -0.1465
 2958TIP3    H230366   0.658   2.450   5.449 -0.8858 -0.0342 -0.5022
 2959TIP3   OH230367   4.804   4.409   0.499 -0.3604  0.0803  0.0871
 2959TIP3    H130368   4.883   4.361   0.523 -0.8445 -0.0740  1.4701
 2959TIP3    H230369   4.825   4.501   0.517 -0.0587  0.1998 -0.8183
 2960TIP3   OH230370   4.378   3.108  12.089  0.1699  0.1012 -0.2194
 2960TIP3    H130371   4.447   3.051  12.053  0.2061 -0.9618  1.4122
 2960TIP3    H230372   4.298   3.056  12.080  0.1868 -0.2134  1.1879
 2961TIP3   OH230373   6.017   4.153  14.094  0.4326  0.2654  0.4250
 2961TIP3    H130374   5.926   4.177  14.106  0.4265  1.2162 -1.2028
 2961TIP3    H230375   6.067   4.230  14.122  0.8707 -0.7735  2.7477
 2962TIP3   OH230376   6.661   6.756   2.963  0.5037  0.9804  0.5351
 2962TIP3    H130377   6.742   6.759   3.014  1.6345  2.0428 -1.2356
 2962TIP3    H230378   6.641   6.847   2.943 -1.1195  0.7352  0.8706
 2963TIP3   OH230379   4.531   0.253  12.468 -0.0605 -0.8852  0.1132
 2963TIP3    H130380   4.500   0.207  12.390 -0.6102  0.6107 -0.5877
 2963TIP3    H230381   4.618   0.217  12.484 -0.3581 -1.9576 -0.5577
 2964TIP3   OH230382   2.849   3.518   1.133 -0.0853  0.5873 -0.2442
 2964TIP3    H130383   2.816   3.577   1.201 -0.4818  0.4664 -0.3291
 2964TIP3    H230384   2.905   3.457   1.180  0.4134  1.0947 -0.1698
 2965TIP3   OH230385   2.773   5.788  15.498  0.1177  0.3538 -0.2825
 2965TIP3    H130386   2.796   5.755  15.411 -3.4743 -1.7562 -0.5944
 2965TIP3    H230387   2.740   5.877  15.482 -0.0723  0.1565 -1.0096
 2966TIP3   OH230388   6.730   2.419  11.942  0.7460 -0.1187  0.4608
 2966TIP3    H130389   6.666   2.408  11.871 -1.1393  1.3874  1.8244
 2966TIP3    H230390   6.793   2.347  11.929 -0.4675 -0.8767 -1.7184
 2967TIP3   OH230391   2.814   5.521   0.354  0.5280  0.6250 -0.3416
 2967TIP3    H130392   2.805   5.455   0.286 -0.7470  0.4724 -0.0396
 2967TIP3    H230393   2.786   5.477   0.434  0.1667  1.3779 -0.0499
 2968TIP3   OH230394   4.650   1.784   0.781  0.4776  0.2686  0.7042
 2968TIP3    H130395   4.679   1.712   0.838 -0.2182 -1.5440 -1.0953
 2968TIP3    H230396   4.592   1.742   0.717 -0.4566  2.5656 -0.0758
 2969TIP3   OH230397   2.125   6.648   1.841  0.3209 -0.5687 -0.0540
 2969TIP3    H130398   2.091   6.641   1.930 -0.8338 -1.7751 -0.5527
 2969TIP3    H230399   2.131   6.558   1.811  0.2110 -0.1551 -1.3671
 2970TIP3   OH230400   1.940   0.619  12.595 -0.0504 -0.1419  0.7314
 2970TIP3    H130401   1.930   0.532  12.556  0.4116  0.6501 -1.2694
 2970TIP3    H230402   2.026   0.617  12.637  0.7822 -0.1113 -0.8971
 2971TIP3   OH230403   2.499   1.143  11.506 -0.8461 -0.0071  0.2761
 2971TIP3    H130404   2.508   1.049  11.495  0.5129  0.2511 -1.2981
 2971TIP3    H230405   2.583   1.179  11.476 -1.9621  1.7923 -0.9401
 2972TIP3   OH230406   1.573   1.696  15.964 -0.3030 -0.2368 -0.2013
 2972TIP3    H130407   1.571   1.766  16.029 -0.0793  1.8969 -2.3436
 2972TIP3    H230408   1.495   1.643  15.983  0.6299 -0.7203  2.7464
 2973TIP3   OH230409   5.641   1.046   5.616  0.5353  0.1623 -0.6393
 2973TIP3    H130410   5.702   1.092   5.558 -0.1920  1.9598 -0.0633
 2973TIP3    H230411   5.646   1.094   5.699 -1.6144  0.3554 -0.5688
 2974TIP3   OH230412   5.835   4.100  12.342 -0.3836 -0.2839  0.1890
 2974TIP3    H130413   5.926   4.128  12.332 -0.1027 -0.7754  1.1796
 2974TIP3    H230414   5.788   4.179  12.369 -0.0651 -0.2324  0.5982
 2975TIP3   OH230415   3.812   0.785   5.527 -0.0828 -0.2928  0.2279
 2975TIP3    H130416   3.903   0.810   5.510  0.0192 -0.0638  1.0676
 2975TIP3    H230417   3.801   0.796   5.622 -0.2714 -2.6656  0.5527
 2976TIP3   OH230418   6.371   0.079   3.036  0.5049  0.0993 -0.8162
 2976TIP3    H130419   6.384   0.049   3.126  1.7156  0.5768 -0.8127
 2976TIP3    H230420   6.292   0.133   3.041  1.1704  1.0256  0.1969
 2977TIP3   OH230421   2.564   2.972  12.333 -0.1623 -0.3565 -0.0712
 2977TIP3    H130422   2.513   2.960  12.413  0.3993 -1.5774  0.1229
 2977TIP3    H230423   2.594   3.063  12.336 -0.0650 -0.4203  1.1515
 2978TIP3   OH230424   2.301   4.237   5.651  0.5632  0.1070 -0.0488
 2978TIP3    H130425   2.307   4.146   5.622 -0.1366  0.5019 -1.5600
 2978TIP3    H230426   2.286   4.232   5.745  3.2841 -1.2601  0.4030
 2979TIP3   OH230427   0.572   2.356   4.965 -0.0398 -0.1552  0.3252
 2979TIP3    H130428   0.493   2.407   4.950  0.3880  0.1000 -1.2710
 2979TIP3    H230429   0.582   2.303   4.886  1.0797 -0.5955  0.7331
 2980TIP3   OH230430   6.251   4.703  16.589 -0.3969  0.0443 -0.0674
 2980TIP3    H130431   6.255   4.778  16.530  0.7013 -0.6134 -0.8723
 2980TIP3    H230432   6.310   4.727  16.661 -0.7770  0.3333  0.1507
 2981TIP3   OH230433   4.247   5.603  11.838 -0.2681 -0.1772  0.1155
 2981TIP3    H130434   4.304   5.677  11.857 -0.0047 -0.7262  1.5903
 2981TIP3    H230435   4.193   5.632  11.765 -0.6155  1.7139  1.0742
 2982TIP3   OH230436   6.262   5.773   4.263 -0.3995 -0.6635 -0.4747
 2982TIP3    H130437   6.287   5.847   4.318 -0.0035 -1.0256 -0.1612
 2982TIP3    H230438   6.182   5.801   4.220  0.5664  0.5825 -1.5615
 2983TIP3   OH230439   1.945   6.816   3.721 -0.1548  0.4866  0.0135
 2983TIP3    H130440   1.915   6.903   3.694 -2.2684 -0.7004 -1.7281
 2983TIP3    H230441   1.913   6.807   3.811  1.7917  2.1866  0.9675
 2984TIP3   OH230442   6.218   6.184   0.566  0.1386 -0.6639 -0.3586
 2984TIP3    H130443   6.287   6.209   0.627 -1.5189  0.9296  1.0058
 2984TIP3    H230444   6.170   6.115   0.612 -0.1313 -0.6306 -0.5877
 2985TIP3   OH230445   4.832   1.137   0.736 -0.1882  0.0331 -0.7048
 2985TIP3    H130446   4.902   1.076   0.759  0.8948  1.0916 -1.1150
 2985TIP3    H230447   4.764   1.082   0.698  1.3115 -0.7887 -2.3230
 2986TIP3   OH230448   2.128   0.299   5.125 -0.0434 -0.9555 -1.1002
 2986TIP3    H130449   2.195   0.359   5.094 -0.5032  0.0377 -0.2490
 2986TIP3    H230450   2.053   0.355   5.148 -0.0584 -1.6705  0.8655
 2987TIP3   OH230451   3.778   6.594  15.018 -0.0201 -0.0566 -0.1156
 2987TIP3    H130452   3.714   6.558  15.080  2.5084 -0.0122  2.7400
 2987TIP3    H230453   3.786   6.527  14.950 -1.2819 -1.1711  0.7838
 2988TIP3   OH230454   4.253   2.257  14.709 -0.2363 -0.1921 -0.2294
 2988TIP3    H130455   4.298   2.320  14.651  0.4160 -0.7632 -0.3558
 2988TIP3    H230456   4.236   2.182  14.653  3.7417 -2.3497  1.0800
 2989TIP3   OH230457   2.442   2.049   5.023 -0.1524 -0.1930 -0.3789
 2989TIP3    H130458   2.450   2.008   5.110  0.4241  1.6399  0.4687
 2989TIP3    H230459   2.361   2.099   5.028 -0.4488 -0.5795 -1.1498
 2990TIP3   OH230460   5.292   6.209  16.770 -0.5115 -0.6534  0.5414
 2990TIP3    H130461   5.224   6.194  16.835 -0.2123 -0.3033  0.9406
 2990TIP3    H230462   5.361   6.255  16.817 -0.6213  0.3098 -0.2129
 2991TIP3   OH230463   0.307   2.295  14.589 -0.1245 -0.1889 -0.2429
 2991TIP3    H130464   0.350   2.301  14.675  0.3896  1.2899 -0.5776
 2991TIP3    H230465   0.320   2.204  14.563  0.6785 -0.3930  0.7597
 2992TIP3   OH230466   6.399   3.500  17.254  0.2874  0.0069  0.3062
 2992TIP3    H130467   6.464   3.489  17.185  1.6542 -0.4660  1.6068
 2992TIP3    H230468   6.319   3.460  17.218  0.7615  0.3578 -1.2248
 2993TIP3   OH230469   0.422   6.119  13.834  0.2317  0.0594 -0.3401
 2993TIP3    H130470   0.353   6.186  13.830 -0.6021 -0.7928 -0.6127
 2993TIP3    H230471   0.383   6.042  13.792  1.3834 -0.4227 -0.5732
 2994TIP3   OH230472   4.935   2.967  13.166  0.4307 -0.1989  0.6026
 2994TIP3    H130473   4.938   2.937  13.256 -5.5440  0.5104  1.4099
 2994TIP3    H230474   4.989   3.047  13.165  0.4427 -0.0818  3.5747
 2995TIP3   OH230475   4.173   2.652  14.063  0.1363  0.0127 -0.1076
 2995TIP3    H130476   4.266   2.643  14.039 -0.2206 -0.8692 -1.2408
 2995TIP3    H230477   4.175   2.682  14.154  1.5391 -0.4755  0.0468
 2996TIP3   OH230478   5.260   3.129  11.422  0.1456  0.2665 -0.0653
 2996TIP3    H130479   5.247   3.056  11.483 -1.3657 -0.4389 -1.1765
 2996TIP3    H230480   5.338   3.105  11.373 -1.7862 -2.0522 -2.2755
 2997TIP3   OH230481   4.932   6.757   0.115  0.4211  0.9828  0.3361
 2997TIP3    H130482   4.941   6.829   0.052 -0.0756 -0.9101 -2.0659
 2997TIP3    H230483   4.839   6.761   0.141 -0.1629 -0.0171 -1.4587
 2998TIP3   OH230484   1.594   0.071  12.524  0.6981 -0.0237  0.1170
 2998TIP3    H130485   1.626   0.002  12.466  2.5239  1.5220 -0.8585
 2998TIP3    H230486   1.651   0.067  12.600  1.4328  0.9273 -0.3528
 2999TIP3   OH230487   5.197   0.098  13.660 -0.5409  0.1913  0.0009
 2999TIP3    H130488   5.177   0.057  13.576  2.8426 -0.3840 -0.6708
 2999TIP3    H230489   5.160   0.038  13.725  0.3815 -1.6161 -1.0566
 3000TIP3   OH230490   5.541   6.745  11.805  0.2382 -0.4938  0.2907
 3000TIP3    H130491   5.597   6.670  11.821  1.2632  0.4001  0.9656
 3000TIP3    H230492   5.600   6.815  11.777 -0.7865 -0.1629 -1.1875
 3001TIP3   OH230493   1.985   1.583   1.235 -0.3133 -0.4178 -0.0180
 3001TIP3    H130494   1.900   1.624   1.247 -0.6050 -1.3457  1.2360
 3001TIP3    H230495   2.049   1.650   1.258 -0.6096  0.7775 -2.3885
 3002TIP3   OH230496   6.113   0.677  12.592 -0.5031  0.4007  0.1025
 3002TIP3    H130497   6.118   0.749  12.530 -2.2244  1.1217  0.7405
 3002TIP3    H230498   6.193   0.627  12.578  1.4352  3.1588  0.5488
 3003TIP3   OH230499   4.027   4.953   2.377  0.1324 -0.6922  0.3560
 3003TIP3    H130500   3.944   4.979   2.418 -0.5314 -1.3505 -0.5094
 3003TIP3    H230501   4.059   4.881   2.431  0.3629 -0.1501  0.9420
 3004TIP3   OH230502   1.943   0.383  15.427 -0.2988  0.7413  0.2506
 3004TIP3    H130503   1.869   0.324  15.420  0.5514 -0.2103 -1.0819
 3004TIP3    H230504   1.919   0.459  15.373 -0.7998  0.9981  0.8248
 3005TIP3   OH230505   2.983   0.162  14.714 -0.2168  0.2558  0.1616
 3005TIP3    H130506   3.047   0.092  14.730 -1.3363 -1.4029 -2.0090
 3005TIP3    H230507   2.899   0.123  14.739 -0.6769  1.4564  0.5139
 3006TIP3   OH230508   5.052   5.839  16.695 -0.2549 -0.1277  0.0452
 3006TIP3    H130509   5.076   5.916  16.643 -1.5867  0.6126  0.4873
 3006TIP3    H230510   5.120   5.834  16.762  0.7908 -0.3604 -1.0139
 3007TIP3   OH230511   2.778   5.101  12.436  0.0668 -0.4414 -0.1832
 3007TIP3    H130512   2.710   5.037  12.419 -0.8260  0.5893 -0.6162
 3007TIP3    H230513   2.735   5.186  12.422  1.6711  0.2249 -1.4005
 3008TIP3   OH230514   4.878   3.840   3.683 -0.0365  0.7718 -0.1925
 3008TIP3    H130515   4.794   3.804   3.713  0.1794 -1.6808 -2.2292
 3008TIP3    H230516   4.876   3.832   3.588  2.0226  1.8346 -0.3906
 3009TIP3   OH230517   3.234   0.187   6.529 -0.2686  0.3427 -0.3058
 3009TIP3    H130518   3.304   0.132   6.564  0.8335  1.0726 -1.2839
 3009TIP3    H230519   3.243   0.180   6.434 -0.6389  1.5533 -0.4450
 3010TIP3   OH230520   4.195   2.598  17.311  0.1106 -0.8775 -0.0052
 3010TIP3    H130521   4.102   2.584  17.329  0.1978 -2.6346 -0.7432
 3010TIP3    H230522   4.196   2.639  17.224 -0.0112  1.2733  0.9256
 3011TIP3   OH230523   0.434   6.532   0.103 -0.4114 -0.4379 -0.0935
 3011TIP3    H130524   0.408   6.619   0.074  0.0978 -0.4355 -0.5586
 3011TIP3    H230525   0.466   6.488   0.024 -0.9213 -1.1470  0.0800
 3012TIP3   OH230526   4.362   0.783  11.067  0.1204  0.5560 -0.2942
 3012TIP3    H130527   4.279   0.737  11.080 -0.5745  2.0702  0.8939
 3012TIP3    H230528   4.368   0.797  10.973 -0.9239  0.3335 -0.4026
 3013TIP3   OH230529   6.655   0.199  15.789 -0.4071  0.3359 -0.3579
 3013TIP3    H130530   6.595   0.239  15.853 -0.9632 -1.5921  0.3987
 3013TIP3    H230531   6.707   0.138  15.841 -0.1592 -0.5248 -1.5876
 3014TIP3   OH230532   0.056   3.401   0.413  0.3235 -0.8923 -0.3379
 3014TIP3    H130533   0.061   3.416   0.319 -1.3991  1.6907 -0.1017
 3014TIP3    H230534  -0.034   3.424   0.437  1.0710 -0.2315  2.1284
 3015TIP3   OH230535   5.538   5.335   4.866  0.6801  0.4941  0.7258
 3015TIP3    H130536   5.606   5.397   4.838  1.0634  0.1792  0.9579
 3015TIP3    H230537   5.580   5.283   4.935  0.0569  0.6021  1.1903
 3016TIP3   OH230538   0.313   1.408   2.644  0.0627  0.0539  0.0279
 3016TIP3    H130539   0.262   1.396   2.564  0.5748  0.9422 -0.4542
 3016TIP3    H230540   0.355   1.493   2.632  0.7766 -0.1659  0.8981
 3017TIP3   OH230541   2.801   6.651  14.774  0.0877  0.6438  0.4032
 3017TIP3    H130542   2.825   6.594  14.847 -1.9659 -0.6922  0.1224
 3017TIP3    H230543   2.863   6.629  14.705 -1.3669 -2.2926 -0.1384
 3018TIP3   OH230544   0.862   0.988   2.864 -0.2080  0.2316  1.0041
 3018TIP3    H130545   0.848   0.900   2.829 -0.4759  1.2639 -1.7003
 3018TIP3    H230546   0.790   1.040   2.827 -0.4032  1.4927  3.0251
 3019TIP3   OH230547   4.927   5.500   5.931  0.3537  0.1751 -0.6329
 3019TIP3    H130548   4.883   5.421   5.963 -1.6402  1.7853  0.8688
 3019TIP3    H230549   5.020   5.478   5.934 -0.1118 -1.9838  0.1153
 3020TIP3   OH230550   4.848   1.649  15.828 -0.5441  0.6527 -0.4600
 3020TIP3    H130551   4.846   1.744  15.841 -2.3879  0.3107  2.9444
 3020TIP3    H230552   4.773   1.616  15.878  0.7826 -2.7213 -0.3997
 3021TIP3   OH230553   1.871   2.318   2.740  0.2812  0.6860 -0.4844
 3021TIP3    H130554   1.902   2.301   2.651 -1.9964  0.0189 -1.2267
 3021TIP3    H230555   1.909   2.248   2.793  0.9865  0.5980 -1.0914
 3022TIP3   OH230556   6.822   6.061   0.267 -0.2848 -0.1668 -0.1272
 3022TIP3    H130557   6.744   6.068   0.212  0.1780  2.5781 -0.5700
 3022TIP3    H230558   6.892   6.037   0.207 -0.1924  0.6604 -0.3623
 3023TIP3   OH230559   1.018   4.850  11.499 -0.0701  0.7592  0.1554
 3023TIP3    H130560   1.112   4.844  11.485 -0.0002  1.4382  0.2789
 3023TIP3    H230561   0.983   4.881  11.415 -0.5214 -2.0150 -0.7685
 3024TIP3   OH230562   2.337   2.517   6.548 -0.3542 -1.0222 -0.3624
 3024TIP3    H130563   2.276   2.449   6.517 -0.6500 -0.2824 -1.4448
 3024TIP3    H230564   2.423   2.481   6.530 -0.5155 -0.9572 -1.2944
 3025TIP3   OH230565   1.224   2.689  12.620  0.6739 -0.3095 -0.1684
 3025TIP3    H130566   1.224   2.595  12.636 -0.4871 -0.5293 -1.3044
 3025TIP3    H230567   1.150   2.704  12.561  0.0700  1.4821  0.9520
 3026TIP3   OH230568   4.926   4.530  16.839  0.2064 -0.2763 -0.3104
 3026TIP3    H130569   4.852   4.571  16.793  1.2011  1.5715 -0.3377
 3026TIP3    H230570   4.980   4.493  16.770  0.5683  0.5701 -0.4934
 3027TIP3   OH230571   3.565   2.674  12.164  0.1657  0.3484  0.1025
 3027TIP3    H130572   3.599   2.762  12.177  0.1759  0.3463  0.0894
 3027TIP3    H230573   3.574   2.632  12.249  2.8665 -0.6065 -0.5559
 3028TIP3   OH230574   3.688   1.430   1.214 -0.0344 -0.0504  0.2356
 3028TIP3    H130575   3.636   1.402   1.139  0.4532  2.6237 -1.2450
 3028TIP3    H230576   3.627   1.482   1.267 -0.2022 -1.3698  1.3659
 3029TIP3   OH230577   3.496   5.068   5.328 -0.0789  0.2851 -0.0730
 3029TIP3    H130578   3.466   5.158   5.343  0.4002  0.7077 -1.5394
 3029TIP3    H230579   3.547   5.072   5.248  1.2862 -1.0237  0.6818
 3030TIP3   OH230580   3.218   2.859  13.267 -0.0274  0.0094 -0.3797
 3030TIP3    H130581   3.137   2.864  13.318  0.2046  0.6788 -0.0576
 3030TIP3    H230582   3.272   2.795  13.314 -0.0304  0.2127 -0.0951
 3031TIP3   OH230583   5.682   5.285  10.190 -0.2004 -0.0573  0.5154
 3031TIP3    H130584   5.747   5.276  10.260 -0.5570  0.1760  0.8815
 3031TIP3    H230585   5.647   5.373  10.202  0.4039  0.3450 -0.5504
 3032TIP3   OH230586   0.085   1.373   2.211 -0.0736 -0.4703 -0.1638
 3032TIP3    H130587   0.090   1.421   2.128 -0.9335 -0.8677 -0.4606
 3032TIP3    H230588   0.101   1.282   2.187  0.0602 -0.5320  0.1618
 3033TIP3   OH230589   0.540   0.866  12.738 -0.0335  0.2505 -0.6923
 3033TIP3    H130590   0.613   0.807  12.718  0.2463 -0.0487  1.0500
 3033TIP3    H230591   0.575   0.954  12.727 -0.0124  0.1155 -1.8162
 3034TIP3   OH230592   0.758   3.404  17.174 -0.3050  0.0485 -0.1009
 3034TIP3    H130593   0.829   3.422  17.235 -0.0801 -2.1268  0.3525
 3034TIP3    H230594   0.770   3.469  17.104  2.4311 -0.5554 -0.2910
 3035TIP3   OH230595   4.733   1.660  15.143 -0.2704 -0.8652  0.0187
 3035TIP3    H130596   4.794   1.733  15.129 -1.6336  0.2069 -0.5479
 3035TIP3    H230597   4.776   1.585  15.102  0.9113 -0.2702  0.1252
 3036TIP3   OH230598   4.857   4.046  12.504 -0.0475  0.1271  1.0294
 3036TIP3    H130599   4.839   3.952  12.510 -1.5196  0.3515  0.5060
 3036TIP3    H230600   4.850   4.066  12.411  0.3191  0.7378  1.1311
 3037TIP3   OH230601   2.977   1.806  13.370 -0.4590 -0.0634  0.4374
 3037TIP3    H130602   2.898   1.803  13.317  0.3614  0.0425 -0.8389
 3037TIP3    H230603   3.040   1.750  13.324  0.0920 -0.4587  1.6301
 3038TIP3   OH230604   2.037   0.425   2.475  0.3806  0.0890 -0.2283
 3038TIP3    H130605   2.021   0.357   2.540 -0.1036 -0.0671 -0.5028
 3038TIP3    H230606   1.962   0.484   2.482  0.2010 -0.0633 -0.8120
 3039TIP3   OH230607   2.057   5.458  15.476  0.1256 -0.1909  0.1256
 3039TIP3    H130608   2.013   5.420  15.399 -1.2231 -0.2567  0.8991
 3039TIP3    H230609   2.031   5.550  15.476 -0.2352 -0.2887  0.7422
 3040TIP3   OH230610   3.512   2.641  16.136 -0.2493  0.5336  0.1308
 3040TIP3    H130611   3.488   2.707  16.201  0.7454  1.1275 -0.0759
 3040TIP3    H230612   3.601   2.614  16.160 -0.3846 -0.2244 -0.1975
 3041TIP3   OH230613   3.948   0.335   4.206  0.3079  0.5060  0.4093
 3041TIP3    H130614   3.999   0.314   4.127  0.5914  0.0033  0.7178
 3041TIP3    H230615   3.885   0.263   4.213  0.9554  0.0018  1.1993
 3042TIP3   OH230616   5.497   1.155  14.127  0.4200  0.4977 -0.7207
 3042TIP3    H130617   5.486   1.155  14.222 -0.0058  0.3472 -0.7687
 3042TIP3    H230618   5.438   1.223  14.095 -2.3001 -1.8958 -1.1767
 3043TIP3   OH230619   5.736   3.372  16.652  0.3631 -0.0618  0.0988
 3043TIP3    H130620   5.730   3.467  16.667 -0.5018  0.1232 -1.2659
 3043TIP3    H230621   5.792   3.364  16.575  2.2993 -0.8148  1.5168
 3044TIP3   OH230622   4.612   3.261  11.924  0.0382  0.4171 -0.0255
 3044TIP3    H130623   4.615   3.239  12.017  0.3902  2.1853  0.4201
 3044TIP3    H230624   4.642   3.182  11.880 -0.5595 -0.6103  1.3241
 3045TIP3   OH230625   2.024   4.142   2.865 -0.5444 -0.3908  0.0721
 3045TIP3    H130626   1.953   4.185   2.818  0.7795 -0.7824 -2.4564
 3045TIP3    H230627   2.012   4.048   2.847  0.9482 -0.4162 -1.0510
 3046TIP3   OH230628   3.486   5.153  13.478  0.9475 -0.2826  0.6996
 3046TIP3    H130629   3.435   5.130  13.556 -1.3573  1.0427 -0.3129
 3046TIP3    H230630   3.487   5.074  13.425  0.1403 -0.3882  0.8364
 3047TIP3   OH230631   6.514   6.232  15.403  0.0980  0.4456 -0.1658
 3047TIP3    H130632   6.504   6.282  15.322  2.3891  1.6929  0.2450
 3047TIP3    H230633   6.510   6.298  15.472  0.6930 -0.2732  0.5727
 3048TIP3   OH230634   4.684   5.427  16.097 -0.3257 -0.0914  0.0818
 3048TIP3    H130635   4.727   5.342  16.101  2.4175  1.2132  0.2071
 3048TIP3    H230636   4.719   5.469  16.019 -1.8746  0.8517 -0.1609
 3049TIP3   OH230637   3.495   4.678  15.450 -0.2414  0.1195 -0.0761
 3049TIP3    H130638   3.437   4.710  15.519 -0.2383 -0.9697  0.4577
 3049TIP3    H230639   3.583   4.687  15.487 -0.2740 -1.0022  0.3162
 3050TIP3   OH230640   0.540   1.055  17.129 -0.0348 -0.1740 -0.4496
 3050TIP3    H130641   0.608   1.082  17.068 -0.5999  0.2739 -0.9048
 3050TIP3    H230642   0.463   1.042  17.074  0.0484 -2.1672 -0.1608
 3051TIP3   OH230643   3.808   1.677   5.146 -0.4570 -0.3028  0.1079
 3051TIP3    H130644   3.712   1.670   5.149 -0.5198  0.5484  0.1553
 3051TIP3    H230645   3.834   1.605   5.088 -1.1791 -0.0814 -0.5180
 3052TIP3   OH230646   2.507   1.376  12.611 -0.5261 -0.0411 -0.1445
 3052TIP3    H130647   2.484   1.367  12.518  0.0682 -3.6454 -0.0820
 3052TIP3    H230648   2.594   1.336  12.618 -0.0699  1.1689  1.8253
 3053TIP3   OH230649   1.252   3.376  15.911  0.1575  0.0597 -0.2860
 3053TIP3    H130650   1.166   3.349  15.943  0.3781 -1.7288 -1.1199
 3053TIP3    H230651   1.309   3.368  15.988 -0.0794 -0.4561 -0.1577
 3054TIP3   OH230652   0.397   0.338  12.737  0.3446 -0.0832  0.1584
 3054TIP3    H130653   0.332   0.395  12.697  0.4019  0.2601  0.5522
 3054TIP3    H230654   0.385   0.254  12.693  0.9322  0.4864 -1.1447
 3055TIP3   OH230655   0.220   4.803  11.494  0.3222 -0.1546  0.3287
 3055TIP3    H130656   0.127   4.781  11.491  0.2631  0.1524 -0.0344
 3055TIP3    H230657   0.233   4.839  11.582 -0.3281  1.6982 -0.3024
 3056TIP3   OH230658   1.999   0.085   6.559 -0.0188  0.5707 -0.1293
 3056TIP3    H130659   1.968   0.162   6.606 -1.2397  0.4473 -0.7073
 3056TIP3    H230660   1.993   0.109   6.467 -0.4882 -0.2407 -0.3210
 3057TIP3   OH230661   6.535   3.903   4.645 -0.3478 -0.2755 -0.1665
 3057TIP3    H130662   6.553   3.915   4.552 -2.1548  0.9049 -0.4121
 3057TIP3    H230663   6.461   3.961   4.663 -0.0877 -0.5260  2.0007
 3058TIP3   OH230664   1.174   4.419   3.702 -0.5634 -0.2009 -0.7225
 3058TIP3    H130665   1.137   4.380   3.623 -0.2049  0.0316 -1.0083
 3058TIP3    H230666   1.122   4.382   3.774 -0.5472 -0.8233 -1.0250
 3059TIP3   OH230667   2.213   2.378   1.487  0.1782 -0.5806  0.0260
 3059TIP3    H130668   2.285   2.407   1.430  0.6474  0.0663  0.9169
 3059TIP3    H230669   2.161   2.456   1.501  0.8459 -0.3776  1.5777
 3060TIP3   OH230670   1.795   4.315  11.596 -0.8911  0.1450  0.4084
 3060TIP3    H130671   1.826   4.382  11.657 -0.1501  1.0149 -0.8778
 3060TIP3    H230672   1.761   4.365  11.522 -1.5660 -0.9006 -0.0028
 3061TIP3   OH230673   5.967   1.462  16.488  0.0084  0.2318  0.3232
 3061TIP3    H130674   5.916   1.384  16.509 -0.2921  0.2343 -0.3559
 3061TIP3    H230675   5.905   1.534  16.496  0.1272  0.3315  0.3474
 3062TIP3   OH230676   5.080   6.185  14.948  0.9764  0.1539  0.1505
 3062TIP3    H130677   5.000   6.160  14.903  0.1087  2.2835  0.3693
 3062TIP3    H230678   5.151   6.150  14.894 -0.0910 -0.5355 -0.8269
 3063TIP3   OH230679   6.661   1.457  15.863 -0.0174  0.4479  0.0255
 3063TIP3    H130680   6.734   1.412  15.905  0.3237  0.3031 -0.7035
 3063TIP3    H230681   6.638   1.527  15.923 -0.7243 -0.8370  1.3086
 3064TIP3   OH230682   1.101   5.589   4.368  0.2282 -0.4848  0.0976
 3064TIP3    H130683   1.055   5.672   4.381 -0.6865 -0.7878 -1.1083
 3064TIP3    H230684   1.193   5.610   4.387  0.5668  1.6324 -3.0521
 3065TIP3   OH230685   0.336   4.108   1.166 -0.2615 -0.4623 -0.6768
 3065TIP3    H130686   0.420   4.085   1.207 -0.7000  0.3821  0.7727
 3065TIP3    H230687   0.358   4.125   1.074  1.4572  1.1929 -0.0391
 3066TIP3   OH230688   5.205   1.176   2.937  0.3787  0.0643 -0.2765
 3066TIP3    H130689   5.125   1.184   2.886  0.1578 -1.2007 -0.1752
 3066TIP3    H230690   5.260   1.248   2.908  0.1797 -0.4885 -2.1551
 3067TIP3   OH230691   0.033   5.064  11.328 -0.1234 -0.2778  0.0047
 3067TIP3    H130692   0.098   5.064  11.257 -0.2334 -1.9335 -0.1394
 3067TIP3    H230693   0.083   5.035  11.405 -0.4087 -0.2978  0.1815
 3068TIP3   OH230694   2.242   1.286  12.705 -0.1989  0.1015  0.1399
 3068TIP3    H130695   2.158   1.268  12.663 -0.6728  2.1198  0.1082
 3068TIP3    H230696   2.307   1.275  12.635 -0.4498 -1.1734  0.0910
 3069TIP3   OH230697   0.873   0.033   0.078  0.1018 -0.6824 -0.0090
 3069TIP3    H130698   0.781   0.009   0.088  0.2287 -1.5477 -0.8266
 3069TIP3    H230699   0.871   0.110   0.021 -0.1456 -0.3607  0.4300
 3070TIP3   OH230700   2.805   6.640   5.127  0.5264  0.3007  0.0332
 3070TIP3    H130701   2.838   6.659   5.215  0.9140  2.5696 -0.5461
 3070TIP3    H230702   2.754   6.717   5.103  0.0777 -0.4524 -1.5815
 3071TIP3   OH230703   1.300   0.100  14.572  0.1315  0.1670  0.4682
 3071TIP3    H130704   1.347   0.182  14.558 -1.2798  1.2092  1.5555
 3071TIP3    H230705   1.354   0.053  14.636  0.2777  0.8769  0.8846
 3072TIP3   OH230706   6.191   4.714   5.975  0.1490 -0.0965  0.8264
 3072TIP3    H130707   6.123   4.675   5.920 -0.8498 -0.0804  2.0124
 3072TIP3    H230708   6.201   4.652   6.048  1.8063 -0.3740  0.4036
 3073TIP3   OH230709   3.083   4.239  12.406  0.0072  0.1437  0.2139
 3073TIP3    H130710   3.043   4.324  12.425  0.3919  0.0731  1.4414
 3073TIP3    H230711   3.173   4.248  12.435 -0.1349 -0.8994  1.0507
 3074TIP3   OH230712   5.438   6.454   0.021 -0.4485 -0.6478 -0.1235
 3074TIP3    H130713   5.404   6.493   0.102 -1.4057 -0.6702 -0.4996
 3074TIP3    H230714   5.512   6.400   0.049 -0.1646  0.1044  0.6160
 3075TIP3   OH230715   6.190   1.665  15.515 -0.3156 -0.1124  0.2568
 3075TIP3    H130716   6.263   1.645  15.574  0.6971  0.1623 -0.8467
 3075TIP3    H230717   6.231   1.672  15.429 -1.5646  0.7017 -0.2957
 3076TIP3   OH230718   1.424   5.124  15.239  0.0598  0.3135 -0.1945
 3076TIP3    H130719   1.454   5.119  15.330  0.1736 -1.1661 -0.2973
 3076TIP3    H230720   1.329   5.124  15.245  0.0407  1.5435 -0.0422
 3077TIP3   OH230721   2.192   0.730  11.383 -0.4728  0.2333  0.1861
 3077TIP3    H130722   2.125   0.724  11.315 -0.7126 -0.0386  0.4425
 3077TIP3    H230723   2.201   0.640  11.416  0.6423  0.0893 -0.4441
 3078TIP3   OH230724   6.076   1.303   4.991 -0.2811  0.1113  1.0749
 3078TIP3    H130725   6.121   1.223   5.018  0.6595 -0.5579 -2.0070
 3078TIP3    H230726   6.105   1.317   4.900 -0.8522  3.6677  1.2950
 3079TIP3   OH230727   2.280   5.016  12.465 -0.0190 -0.1915 -0.0855
 3079TIP3    H130728   2.233   4.990  12.544 -0.1308 -1.3555 -0.5186
 3079TIP3    H230729   2.261   5.110  12.456 -0.1707 -0.0889  1.1415
 3080TIP3   OH230730   2.540   4.160   5.129  0.1727  0.1761 -0.7540
 3080TIP3    H130731   2.484   4.194   5.198 -0.2260 -0.3905 -0.7910
 3080TIP3    H230732   2.628   4.162   5.166 -0.2643 -2.0304  0.5614
 3081TIP3   OH230733   0.027   2.178   4.824 -0.2324 -0.5266 -0.2117
 3081TIP3    H130734   0.043   2.232   4.747  0.4640 -0.3697  0.0311
 3081TIP3    H230735   0.083   2.101   4.811  0.6562 -0.0509  0.5777
 3082TIP3   OH230736   2.773   5.342  16.447  0.3846 -0.5224  0.1295
 3082TIP3    H130737   2.698   5.290  16.475  2.8749 -4.1665  0.6803
 3082TIP3    H230738   2.792   5.311  16.358  1.2774  0.2988  0.0171
 3083TIP3   OH230739   0.930   0.345   1.809 -0.2670  0.1290 -0.1856
 3083TIP3    H130740   0.885   0.423   1.842  0.7693  0.1307  1.2935
 3083TIP3    H230741   0.894   0.333   1.721 -0.6750  2.0900 -0.3388
 3084TIP3   OH230742   3.469   6.259   1.589  0.3508  0.2719  0.1006
 3084TIP3    H130743   3.438   6.349   1.597 -1.3807 -0.2944  0.2666
 3084TIP3    H230744   3.397   6.206   1.623  0.8063 -1.2296 -1.1404
 3085TIP3   OH230745   5.297   5.278  11.122 -0.0225 -0.3574 -0.2722
 3085TIP3    H130746   5.206   5.252  11.107  0.1181 -0.7408 -0.4647
 3085TIP3    H230747   5.323   5.229  11.200  0.7964 -2.2273 -1.6233
 3086TIP3   OH230748   0.061   1.690  14.013  0.0692 -0.0531 -0.3275
 3086TIP3    H130749   0.083   1.771  13.966 -1.0052  0.3463 -0.1936
 3086TIP3    H230750   0.020   1.635  13.946  0.5250 -0.3651 -0.3488
 3087TIP3   OH230751   0.194   0.163  12.157 -0.2360 -0.4806  0.4111
 3087TIP3    H130752   0.284   0.133  12.175  0.6305  0.8791 -1.3712
 3087TIP3    H230753   0.198   0.258  12.166 -1.6063 -0.4263  0.6450
 3088TIP3   OH230754   3.710   5.495  14.347  0.4370 -0.0547 -0.2404
 3088TIP3    H130755   3.742   5.523  14.433  1.4379  0.4861 -0.7586
 3088TIP3    H230756   3.632   5.443  14.366 -0.7257  1.9407  0.8810
 3089TIP3   OH230757   3.799   5.269  17.208 -0.7004  0.3622  0.2742
 3089TIP3    H130758   3.798   5.197  17.272 -0.7223  0.9831  0.9842
 3089TIP3    H230759   3.736   5.332  17.242  0.8550  1.7066  0.8302
 3090TIP3   OH230760   0.652   1.245   4.649  0.4601  0.2108  0.3979
 3090TIP3    H130761   0.596   1.245   4.572 -0.2038  0.3551  0.8669
 3090TIP3    H230762   0.696   1.330   4.647 -2.3159  1.8305  2.0920
 3091TIP3   OH230763   5.849   3.357  13.044  0.6537 -0.0428  0.1097
 3091TIP3    H130764   5.797   3.434  13.024  1.3636  0.1198 -1.2274
 3091TIP3    H230765   5.829   3.337  13.135 -0.8473  0.6903 -0.0344
 3092TIP3   OH230766   0.364   3.265  12.771 -0.3298 -0.2705 -0.3614
 3092TIP3    H130767   0.281   3.312  12.776 -0.0696  0.0294  2.6833
 3092TIP3    H230768   0.342   3.175  12.794  0.0982 -0.3071 -0.0932
 3093TIP3   OH230769   1.910   3.120  15.970 -0.2539 -0.7493 -0.1367
 3093TIP3    H130770   1.995   3.109  16.012 -0.3371  1.2334  0.6179
 3093TIP3    H230771   1.860   3.174  16.030 -1.6263 -0.8389 -1.1563
 3094TIP3   OH230772   6.386   3.995  15.178  0.4539  0.5382  0.0868
 3094TIP3    H130773   6.452   4.054  15.212  0.3978  0.7705 -0.2020
 3094TIP3    H230774   6.386   4.011  15.083  1.4095 -0.8895 -0.1857
 3095TIP3   OH230775   0.375   0.830  16.724  0.8494 -0.5572  0.1526
 3095TIP3    H130776   0.464   0.862  16.708  0.3548  0.2745 -1.1685
 3095TIP3    H230777   0.368   0.822  16.819  1.9743  0.4686  0.3432
 3096TIP3   OH230778   0.562   3.966  12.991  0.0928 -0.5808  0.0354
 3096TIP3    H130779   0.527   4.054  13.005  0.2801 -0.3612 -0.7832
 3096TIP3    H230780   0.656   3.979  12.983 -0.0777 -0.3478 -3.2024
 3097TIP3   OH230781   3.579   5.624   3.425  0.3726  0.7127 -0.1660
 3097TIP3    H130782   3.613   5.673   3.499 -0.6875  0.6756  0.3707
 3097TIP3    H230783   3.593   5.681   3.349  1.0921  0.9246  0.1228
 3098TIP3   OH230784   3.690   3.717   3.081  0.1890  0.1255  0.0909
 3098TIP3    H130785   3.753   3.783   3.109 -0.5308  0.3708  1.1986
 3098TIP3    H230786   3.615   3.766   3.049  0.5409 -0.1655 -1.2199
 3099TIP3   OH230787   4.438   1.145   2.660 -0.1485 -0.1679 -0.0284
 3099TIP3    H130788   4.509   1.139   2.724 -0.6193  0.3992  0.5646
 3099TIP3    H230789   4.480   1.179   2.581  0.0204  1.5339  0.7467
 3100TIP3   OH230790   3.001   2.052   4.434 -0.4474  0.4023  0.1485
 3100TIP3    H130791   3.091   2.087   4.432 -0.2741  0.3001  2.8881
 3100TIP3    H230792   2.946   2.127   4.413  0.2468  0.3800 -1.9616
 3101TIP3   OH230793   4.670   0.363   3.556  0.1117 -0.1911 -0.3411
 3101TIP3    H130794   4.664   0.334   3.465  3.2408  1.8053 -1.3314
 3101TIP3    H230795   4.648   0.456   3.553 -0.1782 -0.1967  1.0555
 3102TIP3   OH230796   5.998   4.631   1.975 -0.0423 -0.0362 -0.2005
 3102TIP3    H130797   5.945   4.589   1.908 -0.8777  1.5921 -0.6207
 3102TIP3    H230798   5.958   4.717   1.986  1.5344  0.6212  0.6686
 3103TIP3   OH230799   2.595   4.642  12.077  1.3337 -0.0525  0.1817
 3103TIP3    H130800   2.662   4.684  12.132  2.1638  0.2140 -1.0034
 3103TIP3    H230801   2.539   4.714  12.047  1.6935 -0.0111 -0.4066
 3104TIP3   OH230802   0.186   0.091  14.111 -0.2178 -0.2986 -0.4661
 3104TIP3    H130803   0.160   0.181  14.128  0.3437 -0.0179 -1.0568
 3104TIP3    H230804   0.281   0.093  14.106 -0.1000 -1.1901  0.9359
 3105TIP3   OH230805   0.390   4.495  16.643  0.1123 -0.1700 -0.1333
 3105TIP3    H130806   0.357   4.530  16.727  0.6613  0.6909 -0.2550
 3105TIP3    H230807   0.330   4.531  16.578  0.5668  0.4202 -0.2412
 3106TIP3   OH230808   5.595   1.467   4.542  0.0394  0.9055  0.2440
 3106TIP3    H130809   5.657   1.454   4.614  1.2946 -0.1859 -0.9927
 3106TIP3    H230810   5.518   1.417   4.568  0.8011 -0.1947  0.4683
 3107TIP3   OH230811   1.331   0.487   0.556  0.1318 -0.3440 -0.7236
 3107TIP3    H130812   1.374   0.569   0.532 -1.3128  0.7697  0.3322
 3107TIP3    H230813   1.286   0.460   0.477 -1.5491  1.3246 -0.4080
 3108TIP3   OH230814   1.862   4.122  14.869  0.3312 -0.5064  0.0946
 3108TIP3    H130815   1.918   4.180  14.817 -0.0199  1.2274  1.5452
 3108TIP3    H230816   1.923   4.077  14.928  0.6578 -2.0298 -1.3319
 3109TIP3   OH230817   2.496   3.489   3.734  0.2309  0.8027 -0.4240
 3109TIP3    H130818   2.432   3.494   3.806  0.3334 -2.0711 -0.0154
 3109TIP3    H230819   2.471   3.561   3.675 -2.4679  0.7059  0.4501
 3110TIP3   OH230820   3.072   4.780   3.804 -0.1967 -0.7086  0.1928
 3110TIP3    H130821   3.050   4.836   3.730  0.6696  0.2813  0.6622
 3110TIP3    H230822   3.113   4.838   3.867  2.1799 -2.1117  0.0609
 3111TIP3   OH230823   5.566   6.248   4.928 -0.1621  0.9429 -0.7793
 3111TIP3    H130824   5.506   6.298   4.983 -1.6739 -0.3716 -1.1560
 3111TIP3    H230825   5.510   6.187   4.881  1.2824  0.9075 -2.5635
 3112TIP3   OH230826   3.626   1.546  14.880  0.0813  0.2186 -0.2480
 3112TIP3    H130827   3.539   1.583  14.869 -0.8173 -1.6112  0.3907
 3112TIP3    H230828   3.678   1.587  14.811 -0.7645  2.7192  0.4624
 3113TIP3   OH230829   3.596   1.081  13.594 -0.2356 -0.0118 -0.0034
 3113TIP3    H130830   3.516   1.131  13.576 -0.0935  0.1214 -0.2767
 3113TIP3    H230831   3.666   1.133  13.554  0.0970  0.2959  0.9433
 3114TIP3   OH230832   0.933   3.929  12.516  0.0183  0.2025  0.0641
 3114TIP3    H130833   0.893   3.853  12.475  0.5459 -1.0367  1.7372
 3114TIP3    H230834   1.020   3.934  12.477 -0.2009  0.2956 -0.4309
 3115TIP3   OH230835   5.416   6.051   5.754  0.4897 -0.3976  0.3115
 3115TIP3    H130836   5.348   6.011   5.699  0.5873 -1.0231  0.6352
 3115TIP3    H230837   5.434   6.135   5.712 -1.8959  0.7095  1.3197
 3116TIP3   OH230838   0.805   6.108  15.198  0.2506  0.4975 -0.4372
 3116TIP3    H130839   0.834   6.090  15.288 -1.0802 -1.6443 -0.3779
 3116TIP3    H230840   0.841   6.195  15.179  1.5690  0.5124  1.7262
 3117TIP3   OH230841   1.341   5.904  16.104  0.2925 -0.5687 -0.1217
 3117TIP3    H130842   1.367   5.925  16.194  0.2726  2.1003 -0.6421
 3117TIP3    H230843   1.423   5.878  16.061  0.7047  0.2185  0.1660
 3118TIP3   OH230844   5.749   1.977  10.999 -0.0638 -0.5668  0.0696
 3118TIP3    H130845   5.764   2.041  10.929  3.4741  0.2617  1.3932
 3118TIP3    H230846   5.778   1.894  10.962  0.9518 -0.2923  0.2257
 3119TIP3   OH230847   3.544   4.709  16.727  0.2886 -0.9077 -0.6349
 3119TIP3    H130848   3.525   4.776  16.792 -0.0480  0.0486 -1.6942
 3119TIP3    H230849   3.635   4.684  16.744  0.3969 -0.2376 -0.2006
 3120TIP3   OH230850   1.207   6.159   2.416 -0.4727 -0.0434 -0.2902
 3120TIP3    H130851   1.126   6.165   2.365  0.4705 -0.3139 -1.9068
 3120TIP3    H230852   1.256   6.087   2.375  0.7649  0.3858  0.3788
 3121TIP3   OH230853   1.697   2.294   3.993  0.3922 -0.7377 -0.0299
 3121TIP3    H130854   1.621   2.242   3.965 -0.0241  0.0637 -0.4243
 3121TIP3    H230855   1.690   2.297   4.088 -0.1713 -0.5256 -0.0758
 3122TIP3   OH230856   6.719   6.499   1.119  0.5189 -0.3585 -0.2418
 3122TIP3    H130857   6.715   6.539   1.032 -1.2536 -0.3907 -0.2025
 3122TIP3    H230858   6.791   6.544   1.163  1.3760 -0.2658 -1.6761
 3123TIP3   OH230859   0.386   5.240   3.406 -0.4813 -0.3620 -0.4611
 3123TIP3    H130860   0.295   5.266   3.392 -0.4631 -0.1432 -0.1871
 3123TIP3    H230861   0.415   5.208   3.321 -0.6136  0.1799 -0.7173
 3124TIP3   OH230862   0.432   2.524  13.156  0.0519  0.6206 -0.2848
 3124TIP3    H130863   0.514   2.573  13.144 -0.6132  1.4024 -1.8560
 3124TIP3    H230864   0.383   2.539  13.076  0.1002 -3.2783 -1.2309
 3125TIP3   OH230865   2.272   5.725  10.311  0.5901 -0.6995  0.5237
 3125TIP3    H130866   2.272   5.664  10.385 -0.4443  0.8304  1.8669
 3125TIP3    H230867   2.288   5.810  10.351  1.5904 -0.0111 -1.2440
 3126TIP3   OH230868   3.255   1.349  16.106  0.4645  0.1399  0.4075
 3126TIP3    H130869   3.322   1.362  16.038 -1.4043  1.9012 -1.2364
 3126TIP3    H230870   3.291   1.394  16.182  1.7430 -0.1356 -0.0016
 3127TIP3   OH230871   2.645   1.479   5.429 -0.1534  0.0086 -0.3060
 3127TIP3    H130872   2.704   1.465   5.355 -0.4617  0.1670 -0.5845
 3127TIP3    H230873   2.692   1.541   5.486  0.7805 -1.3427  0.4366
 3128TIP3   OH230874   3.750   1.469  15.840 -0.1627  0.0066  0.9373
 3128TIP3    H130875   3.785   1.516  15.764 -1.1192  0.5912  0.8360
 3128TIP3    H230876   3.732   1.381  15.808 -1.1954  0.4383  0.2748
 3129TIP3   OH230877   4.764   2.322  11.955  0.3693 -0.4719 -0.0398
 3129TIP3    H130878   4.828   2.363  11.897 -0.6535  2.0710  0.4784
 3129TIP3    H230879   4.792   2.348  12.043  0.4135 -2.0635  0.4408
 3130TIP3   OH230880   3.148   2.235   1.097 -0.2074 -0.2945 -0.2135
 3130TIP3    H130881   3.070   2.182   1.079 -0.0096 -0.7673  0.2653
 3130TIP3    H230882   3.134   2.316   1.050  0.1769 -1.3628 -2.2772
 3131TIP3   OH230883   2.999   0.279   3.746  0.2628  0.5935 -0.0894
 3131TIP3    H130884   3.027   0.188   3.752 -0.6423  0.3352  0.3984
 3131TIP3    H230885   2.949   0.294   3.827 -0.7317  1.1173 -0.7810
 3132TIP3   OH230886   4.569   3.369   5.073  0.0280 -0.1184 -0.4511
 3132TIP3    H130887   4.575   3.403   4.984 -1.2576 -0.5998 -0.7439
 3132TIP3    H230888   4.659   3.344   5.095  0.3867  0.1419 -1.5610
 3133TIP3   OH230889   0.232   4.113  12.601 -0.0023 -0.1392  0.3371
 3133TIP3    H130890   0.249   4.132  12.509 -1.0649  0.4753  0.2498
 3133TIP3    H230891   0.258   4.194  12.647 -2.6370  0.8782  0.1861
 3134TIP3   OH230892   6.599   1.787   4.166 -0.2062  0.3393  0.1673
 3134TIP3    H130893   6.617   1.870   4.211  2.0645  0.1327 -0.2189
 3134TIP3    H230894   6.644   1.796   4.082 -1.4979 -0.6073 -0.6581
 3135TIP3   OH230895   6.744   0.649   1.274 -0.3980 -0.5707 -0.1089
 3135TIP3    H130896   6.824   0.602   1.296 -0.7305 -1.1870 -0.1770
 3135TIP3    H230897   6.762   0.740   1.296 -0.5926 -1.0892  2.4106
 3136TIP3   OH230898   5.005   0.905   4.226 -0.5715  0.3299  0.7733
 3136TIP3    H130899   5.063   0.878   4.297 -0.0152  1.1970  0.6638
 3136TIP3    H230900   5.052   0.883   4.146 -0.8055  0.1848  0.6726
 3137TIP3   OH230901   4.866   0.486  14.317  0.2722  0.1065 -0.3011
 3137TIP3    H130902   4.836   0.517  14.402  0.6175  2.3921 -0.9578
 3137TIP3    H230903   4.961   0.474  14.329  0.2971  0.2804 -0.3242
 3138TIP3   OH230904   6.026   5.710  11.646  0.3193 -0.3248  0.2987
 3138TIP3    H130905   6.119   5.732  11.636 -0.0672  1.0853 -0.5042
 3138TIP3    H230906   5.998   5.683  11.558  0.2327 -1.9038  0.7907
 3139TIP3   OH230907   3.428   2.964  15.452 -0.2904 -0.0227 -0.9654
 3139TIP3    H130908   3.427   2.908  15.530 -0.3396 -0.7453 -1.4732
 3139TIP3    H230909   3.516   3.002  15.451 -0.2477 -0.1073 -0.6210
 3140TIP3   OH230910   3.505   2.003  17.230  0.1304 -0.7217  0.3849
 3140TIP3    H130911   3.583   2.012  17.284  0.2371 -2.3856  0.5562
 3140TIP3    H230912   3.536   1.965  17.148 -0.3363 -0.2364 -0.0267
 3141TIP3   OH230913   1.128   5.012  14.841 -0.8760 -0.2665  0.0039
 3141TIP3    H130914   1.083   5.093  14.818 -0.5515  0.6019  2.1424
 3141TIP3    H230915   1.219   5.038  14.858 -0.2892 -1.4369 -1.1159
 3142TIP3   OH230916   3.775   5.639   4.429 -0.6044  0.3145  0.3681
 3142TIP3    H130917   3.680   5.649   4.430 -0.6782 -0.3316  1.0761
 3142TIP3    H230918   3.792   5.573   4.361 -0.9010 -1.4297  1.8936
 3143TIP3   OH230919   0.757   4.208  14.908  0.2646  0.3169  0.7879
 3143TIP3    H130920   0.741   4.130  14.962 -0.0142  2.6126  4.3867
 3143TIP3    H230921   0.690   4.203  14.840 -0.1886 -2.1998  1.2857
 3144TIP3   OH230922   3.288   0.125  12.899  0.0704 -0.7616  0.0513
 3144TIP3    H130923   3.291   0.030  12.914 -0.6611 -0.5700  1.6754
 3144TIP3    H230924   3.366   0.158  12.944 -0.7698 -0.4211  1.3133
 3145TIP3   OH230925   6.793   4.691  13.298 -0.3458  0.0106  0.0932
 3145TIP3    H130926   6.786   4.698  13.393  1.1856  0.5802  0.1868
 3145TIP3    H230927   6.771   4.778  13.265 -0.3055 -0.0269 -0.0332
 3146TIP3   OH230928   3.862   5.719   1.266 -0.7499  0.2290 -0.6300
 3146TIP3    H130929   3.951   5.706   1.298 -0.3574  2.4396 -0.6665
 3146TIP3    H230930   3.872   5.754   1.178 -1.6697  0.0578 -0.8158
 3147TIP3   OH230931   1.512   5.820  14.189 -0.0773 -0.6971 -0.6967
 3147TIP3    H130932   1.600   5.802  14.221 -0.4279 -1.2597 -0.0316
 3147TIP3    H230933   1.506   5.773  14.106 -0.1713 -1.6918 -0.1319
 3148TIP3   OH230934   3.707   3.545  11.430  0.7679  0.1050  0.7489
 3148TIP3    H130935   3.663   3.605  11.370 -0.3427  1.3321  2.7108
 3148TIP3    H230936   3.799   3.549  11.404  0.4419  1.2323 -0.3281
 3149TIP3   OH230937   3.875   5.805   3.231  0.1483 -0.4626 -0.6085
 3149TIP3    H130938   3.889   5.725   3.281 -1.6204 -0.8860 -0.7068
 3149TIP3    H230939   3.923   5.873   3.279  0.0850 -1.2274  0.5516
 3150TIP3   OH230940   0.790   5.547   4.192  0.0964  0.1920  0.1171
 3150TIP3    H130941   0.832   5.631   4.208  2.9745 -0.5443 -2.5947
 3150TIP3    H230942   0.862   5.488   4.170 -1.8437 -2.9022  1.3378
 3151TIP3   OH230943   0.171   6.578   4.541  0.2295  0.1620  0.3652
 3151TIP3    H130944   0.192   6.667   4.568 -0.2212 -0.0907  1.6051
 3151TIP3    H230945   0.165   6.583   4.445 -1.5628  1.8911  0.4874
 3152TIP3   OH230946   5.833   6.298  12.496 -0.0178 -0.3984  0.5109
 3152TIP3    H130947   5.873   6.377  12.459 -0.7527  0.6494  1.8682
 3152TIP3    H230948   5.752   6.287  12.446 -0.0569 -0.1219  0.5086
 3153TIP3   OH230949   2.440   5.582   6.401 -0.4210  0.0655  0.2747
 3153TIP3    H130950   2.474   5.669   6.382  0.1459 -0.1113  0.4616
 3153TIP3    H230951   2.377   5.595   6.471 -1.6837  0.5697 -0.8976
 3154TIP3   OH230952   5.405   1.784   0.965 -0.4885  0.0413  0.2815
 3154TIP3    H130953   5.351   1.862   0.979 -1.6342 -0.5979 -0.4736
 3154TIP3    H230954   5.464   1.783   1.040  0.6414  2.4888 -0.4542
 3155TIP3   OH230955   5.679   0.438   5.353 -0.1967  0.1390  0.0606
 3155TIP3    H130956   5.696   0.345   5.342  0.4621 -0.0614  2.1745
 3155TIP3    H230957   5.698   0.477   5.268  2.8172 -1.2207 -0.0165
 3156TIP3   OH230958   4.634   2.240   2.534 -0.3508  0.0292  0.7595
 3156TIP3    H130959   4.699   2.185   2.578  0.1676  0.1077  0.1028
 3156TIP3    H230960   4.590   2.180   2.473 -0.3348  0.1652  0.6153
 3157TIP3   OH230961   3.229   6.460   5.395 -0.1059  0.7202 -0.1989
 3157TIP3    H130962   3.223   6.367   5.372  1.3110  0.5366  0.0710
 3157TIP3    H230963   3.158   6.473   5.458 -1.1560  0.1569 -1.2254
 3158TIP3   OH230964   5.896   5.111  12.442 -0.1553  0.2141 -0.0029
 3158TIP3    H130965   5.856   5.115  12.528  1.6531  0.8662  0.8616
 3158TIP3    H230966   5.937   5.197  12.431 -0.8160  0.3527 -1.7774
 3159TIP3   OH230967   2.882   1.099   0.488 -0.2417 -0.7066  0.0762
 3159TIP3    H130968   2.860   1.188   0.461  0.6968 -0.8262 -1.2017
 3159TIP3    H230969   2.978   1.096   0.485 -0.2537 -1.6956  0.2725
 3160TIP3   OH230970   1.154   1.821  15.154  0.0235 -0.7973  0.3909
 3160TIP3    H130971   1.220   1.891  15.144 -0.8866  0.1278  0.6662
 3160TIP3    H230972   1.189   1.748  15.103  1.5248 -0.5179  0.9728
 3161TIP3   OH230973   0.288   0.217   2.574  0.3973 -0.4717  0.4278
 3161TIP3    H130974   0.274   0.245   2.483 -2.6249  1.4523  1.3106
 3161TIP3    H230975   0.316   0.126   2.568 -1.3786 -0.9467 -2.4140
 3162TIP3   OH230976   1.525   5.979   3.148  0.7283 -0.1950  0.2544
 3162TIP3    H130977   1.566   5.921   3.213  0.8532  0.4953  0.7979
 3162TIP3    H230978   1.431   5.975   3.169  0.9436  1.5712  1.7860
 3163TIP3   OH230979   6.449   3.227   5.665 -0.4257 -0.0665 -0.1450
 3163TIP3    H130980   6.434   3.171   5.588 -0.6627 -0.7447  0.3815
 3163TIP3    H230981   6.454   3.166   5.738  1.4088  0.4324  0.1910
 3164TIP3   OH230982   2.036   5.867  14.708 -0.0223 -0.3488  0.0773
 3164TIP3    H130983   2.051   5.797  14.645  2.0579  0.8589 -0.8617
 3164TIP3    H230984   1.942   5.885  14.701 -0.2973 -1.9426 -0.8242
 3165TIP3   OH230985   5.968   4.058   0.232 -0.4335  0.1074 -0.1669
 3165TIP3    H130986   6.029   4.100   0.171 -0.3505  0.1889 -0.0291
 3165TIP3    H230987   5.959   3.969   0.200 -0.2617  0.1028 -0.2021
 3166TIP3   OH230988   5.590   4.320  14.187  0.2437 -0.3974 -0.0927
 3166TIP3    H130989   5.661   4.383  14.200 -0.8851  0.6462  1.3856
 3166TIP3    H230990   5.511   4.368  14.212 -1.2248 -1.0092 -3.1697
 3167TIP3   OH230991   2.229   3.798  11.790  0.9836  0.0679 -0.2316
 3167TIP3    H130992   2.175   3.723  11.817  0.5293  0.5337  0.1688
 3167TIP3    H230993   2.189   3.828  11.708  0.7887  0.2456 -0.0746
 3168TIP3   OH230994   2.123   4.547   3.271  0.3609 -0.5782 -0.3934
 3168TIP3    H130995   2.054   4.609   3.296  1.8851  1.5885 -1.2555
 3168TIP3    H230996   2.204   4.592   3.295  1.5384 -2.3277 -0.9546
 3169TIP3   OH230997   5.415   4.525  14.156  0.1589  0.4493  0.7690
 3169TIP3    H130998   5.447   4.578  14.229  0.3721  2.2735 -0.5823
 3169TIP3    H230999   5.397   4.588  14.086  0.4069 -1.2573 -0.9340
 3170TIP3   OH231000   6.498   5.785   3.175 -0.4368  0.1834 -0.7247
 3170TIP3    H131001   6.460   5.838   3.244  1.7546  0.7026  0.1580
 3170TIP3    H231002   6.471   5.828   3.094 -0.8319  1.1254 -0.1032
 3171TIP3   OH231003   1.883   4.142   3.669  0.1375 -0.3091  0.1833
 3171TIP3    H131004   1.837   4.063   3.698 -2.1641  0.3521 -1.3807
 3171TIP3    H231005   1.950   4.157   3.736 -1.5855 -1.6390  2.3541
 3172TIP3   OH231006   1.139   6.458   2.924 -0.0804  0.1297  0.4612
 3172TIP3    H131007   1.187   6.425   2.999  0.8849 -1.2462 -0.7109
 3172TIP3    H231008   1.176   6.546   2.910 -0.3404  0.4445  1.6199
 3173TIP3   OH231009   4.219   3.680  16.858  0.5105 -0.0513  0.4383
 3173TIP3    H131010   4.238   3.772  16.878  0.7121 -0.0474  0.2211
 3173TIP3    H231011   4.206   3.640  16.944  1.0958  0.0319  0.5686
 3174TIP3   OH231012   1.419   2.240   3.194  0.6074 -0.1723 -0.3710
 3174TIP3    H131013   1.374   2.173   3.144 -0.4836 -1.0317  1.6499
 3174TIP3    H231014   1.360   2.260   3.267  0.9468  2.9175 -0.7868
 3175TIP3   OH231015   3.112   3.406   5.329 -0.7814 -0.3403 -0.1707
 3175TIP3    H131016   3.189   3.454   5.298 -0.0722 -1.3451  0.0034
 3175TIP3    H231017   3.146   3.349   5.398 -1.7537 -0.5459  0.1496
 3176TIP3   OH231018   2.253   3.899   2.891 -0.0581  0.1745  0.0437
 3176TIP3    H131019   2.324   3.860   2.941  0.1448 -0.8447 -1.0051
 3176TIP3    H231020   2.292   3.977   2.851  0.7052 -0.7755 -1.1194
 3177TIP3   OH231021   2.232   4.078  11.448  0.1765 -0.3924 -0.1230
 3177TIP3    H131022   2.172   4.068  11.522  0.4997  1.7173  0.4982
 3177TIP3    H231023   2.185   4.042  11.373 -2.4569  2.3007  0.0853
 3178TIP3   OH231024   1.638   5.586  15.491  0.8057  0.0077  0.1070
 3178TIP3    H131025   1.660   5.493  15.494 -0.5320 -0.3124  2.9976
 3178TIP3    H231026   1.542   5.589  15.496  0.7406  1.5519 -1.1692
 3179TIP3   OH231027   5.349   0.604   5.604 -0.2106  0.0804 -0.1038
 3179TIP3    H131028   5.260   0.638   5.592 -1.6219 -2.7788  1.2399
 3179TIP3    H231029   5.360   0.599   5.699  1.3380  0.1945 -0.2520
 3180TIP3   OH231030   2.185   4.156  16.379 -0.1290 -0.5732  0.3970
 3180TIP3    H131031   2.132   4.174  16.456 -0.9990 -1.0921 -0.0640
 3180TIP3    H231032   2.252   4.095  16.410  1.1605  1.2135  1.3252
 3181TIP3   OH231033   5.699   4.695  14.507 -0.3720  0.2472 -0.2233
 3181TIP3    H131034   5.719   4.604  14.532  0.6537  0.4530 -0.2463
 3181TIP3    H231035   5.628   4.720  14.565  0.5246  0.0009  1.0412
 3182TIP3   OH231036   0.960   0.543   0.519 -0.2329 -0.0170 -0.1307
 3182TIP3    H131037   1.043   0.584   0.498  0.0314 -0.2267  0.4981
 3182TIP3    H231038   0.938   0.492   0.440  0.9662 -1.1549  0.2299
 3183TIP3   OH231039   2.953   1.171  15.472  0.1652  0.2347 -0.2058
 3183TIP3    H131040   2.931   1.110  15.542  0.1899  1.5624  0.9991
 3183TIP3    H231041   2.948   1.118  15.392  0.1236 -1.3116  0.7748
 3184TIP3   OH231042   2.344   1.231   2.837 -0.0833 -0.3866 -0.1257
 3184TIP3    H131043   2.404   1.267   2.771 -0.8375  1.9332  0.3724
 3184TIP3    H231044   2.400   1.179   2.894  1.1387  0.2246 -0.7231
 3185TIP3   OH231045   0.988   5.683   1.717 -0.0800 -0.1636 -0.5138
 3185TIP3    H131046   0.901   5.687   1.676 -1.5565 -1.7359  2.1644
 3185TIP3    H231047   1.006   5.774   1.742 -0.1958  0.4286 -2.4633
 3186TIP3   OH231048   3.681   0.987  15.013  0.3131 -0.4476  0.1927
 3186TIP3    H131049   3.752   1.044  15.041 -0.2580  0.2597  0.2305
 3186TIP3    H231050   3.664   0.931  15.089  0.8565 -0.6580  0.1651
 3187TIP3   OH231051   5.378   0.539  11.406 -0.1825  0.0302  0.2220
 3187TIP3    H131052   5.316   0.609  11.386 -1.4036 -1.2719 -0.7837
 3187TIP3    H231053   5.343   0.497  11.484  0.0750  0.0184  0.3325
 3188TIP3   OH231054   3.958   0.913  14.267  0.1620 -0.0454 -0.7072
 3188TIP3    H131055   3.966   0.885  14.176  2.5488 -1.4555 -0.1577
 3188TIP3    H231056   3.900   0.849  14.307 -1.3916  0.9223 -1.2834
 3189TIP3   OH231057   6.803   6.461   1.644 -0.2450  0.6112  0.0795
 3189TIP3    H131058   6.747   6.522   1.597 -0.0735  0.5390 -0.2192
 3189TIP3    H231059   6.875   6.515   1.677 -0.1740  0.5989 -0.0542
 3190TIP3   OH231060   5.823   2.882   3.767 -0.2563 -0.1013 -0.2215
 3190TIP3    H131061   5.728   2.869   3.777 -0.3187  0.1071 -0.5262
 3190TIP3    H231062   5.834   2.977   3.768  0.0624 -0.1459  0.8005
 3191TIP3   OH231063   0.495   2.789   2.866 -0.0773 -0.8317 -0.0765
 3191TIP3    H131064   0.480   2.770   2.774 -0.0671 -0.4269 -0.1630
 3191TIP3    H231065   0.486   2.704   2.910  2.2250 -1.4771 -0.7271
 3192TIP3   OH231066   3.633   5.961  13.623 -0.1906 -0.3390  0.1698
 3192TIP3    H131067   3.708   6.001  13.667 -1.4473  1.4464  0.7976
 3192TIP3    H231068   3.639   5.868  13.645  1.1013 -0.0244  1.2636
 3193TIP3   OH231069   3.340   6.682  11.177  0.1564 -0.1166 -0.0700
 3193TIP3    H131070   3.362   6.765  11.219 -4.3334  2.9082 -2.8620
 3193TIP3    H231071   3.398   6.676  11.102  1.4423 -0.3821  0.8988
 3194TIP3   OH231072   1.170   3.443   3.877 -0.4872  0.4656 -0.3027
 3194TIP3    H131073   1.112   3.454   3.952 -1.0918 -1.2797 -0.4520
 3194TIP3    H231074   1.176   3.348   3.865  2.8073  0.5410 -0.0370
 3195TIP3   OH231075   5.050   5.755   4.750 -0.3439  0.2686  0.2742
 3195TIP3    H131076   4.981   5.726   4.810  0.3760  0.8640  1.4444
 3195TIP3    H231077   5.091   5.674   4.720  0.3994 -0.0500  1.9799
 3196TIP3   OH231078   0.349   3.669  12.090 -0.1481 -0.4208  0.1085
 3196TIP3    H131079   0.439   3.694  12.069 -0.1698  0.2096  0.7467
 3196TIP3    H231080   0.328   3.716  12.170 -1.4735  0.4245 -0.6928
 3197TIP3   OH231081   5.460   2.135   0.225  0.1543  0.0194 -0.0326
 3197TIP3    H131082   5.529   2.176   0.278  0.2445  0.7547 -0.6874
 3197TIP3    H231083   5.507   2.070   0.172  0.3104  0.3486 -0.3017
 3198TIP3   OH231084   1.346   4.990   5.102  0.4309 -0.4115 -0.6175
 3198TIP3    H131085   1.358   5.047   5.178  0.5479  0.7135 -1.4740
 3198TIP3    H231086   1.288   5.038   5.044 -0.1886 -1.5543 -0.9678
 3199TIP3   OH231087   6.416   4.175   3.400 -0.3079 -0.5222 -0.0348
 3199TIP3    H131088   6.438   4.083   3.419 -0.0999 -0.1543  1.7119
 3199TIP3    H231089   6.498   4.222   3.411 -0.9561  0.2390  1.9691
 3200TIP3   OH231090   5.723   1.971   0.474 -0.4866 -0.0370 -0.3235
 3200TIP3    H131091   5.636   1.938   0.450 -0.5604  0.9967 -1.5997
 3200TIP3    H231092   5.755   2.014   0.395  2.0629 -2.0833 -0.5406
 3201TIP3   OH231093   0.867   0.778   0.821  0.0712 -0.1476  0.2762
 3201TIP3    H131094   0.876   0.685   0.800 -1.7719 -0.1476 -0.7084
 3201TIP3    H231095   0.775   0.797   0.805  0.3941  1.8351  0.5752
 3202TIP3   OH231096   6.100   2.438  14.211  0.2036 -0.4182  0.4282
 3202TIP3    H131097   6.036   2.393  14.266  0.3693  0.6342  1.5389
 3202TIP3    H231098   6.048   2.495  14.155  0.0899 -0.6631  0.2856
 3203TIP3   OH231099   5.908   2.041  13.638 -0.0939 -0.1409 -0.0443
 3203TIP3    H131100   5.864   1.986  13.574 -0.8853 -0.4588  0.7441
 3203TIP3    H231101   5.838   2.094  13.677  0.7930  2.4015 -1.6588
 3204TIP3   OH231102   1.243   3.335   3.193 -0.0248  0.7227  0.1148
 3204TIP3    H131103   1.159   3.346   3.149  0.1840 -0.7489 -0.7388
 3204TIP3    H231104   1.305   3.384   3.139  0.2776 -1.2809 -1.5098
 3205TIP3   OH231105   2.499   2.624   6.199 -0.5097  0.1236  0.9172
 3205TIP3    H131106   2.580   2.670   6.222  0.2638 -1.1440  0.8328
 3205TIP3    H231107   2.525   2.533   6.191 -1.4682  0.0017 -1.5228
 3206TIP3   OH231108   3.733   2.369   2.843 -0.1432  0.0339 -0.0923
 3206TIP3    H131109   3.724   2.454   2.799  0.3807 -0.0269 -0.3365
 3206TIP3    H231110   3.658   2.318   2.812  0.6490 -0.2848 -1.5964
 3207TIP3   OH231111   6.542   0.999  14.608 -0.5945 -0.5158 -0.7550
 3207TIP3    H131112   6.591   0.963  14.534  0.7168 -0.6941  0.1762
 3207TIP3    H231113   6.538   1.093  14.590  0.0310 -0.5109 -0.8814
 3208TIP3   OH231114   1.195   2.090   3.717  0.5350 -0.2313  0.1487
 3208TIP3    H131115   1.128   2.026   3.692  0.5088  0.4540 -1.7069
 3208TIP3    H231116   1.154   2.175   3.701  1.8984  0.2079 -1.3384
 3209TIP3   OH231117   5.504   1.540  15.607  0.1395  0.6634 -0.4929
 3209TIP3    H131118   5.413   1.522  15.586  0.3173  0.7779 -1.3917
 3209TIP3    H231119   5.549   1.456  15.599 -0.0323  0.4243  0.8262
 3210TIP3   OH231120   2.544   1.359  12.913  0.5092 -0.3062  0.3276
 3210TIP3    H131121   2.474   1.394  12.857  1.4240  1.0651  0.0056
 3210TIP3    H231122   2.498   1.327  12.990 -0.6094 -0.6816 -0.4622
 3211TIP3   OH231123   4.353   2.249   6.186  0.2211 -0.2350  0.2496
 3211TIP3    H131124   4.352   2.272   6.278  1.3297  1.0556 -0.0354
 3211TIP3    H231125   4.271   2.201   6.172 -0.6030  0.7182  1.5973
 3212TIP3   OH231126   0.460   5.786  17.019 -0.3529 -0.2821 -0.2394
 3212TIP3    H131127   0.376   5.768  16.977 -0.7842  2.0895 -0.5487
 3212TIP3    H231128   0.476   5.879  17.001  1.0394 -0.0080  2.0466
 3213TIP3   OH231129   3.620   4.360  13.287  0.2194  0.3528 -0.7197
 3213TIP3    H131130   3.701   4.323  13.322 -1.1012 -0.5756  1.6555
 3213TIP3    H231131   3.599   4.305  13.212 -1.5123 -3.9618  2.4964
 3214TIP3   OH231132   3.690   3.521  14.050  0.2954 -0.0190  0.9371
 3214TIP3    H131133   3.765   3.502  13.993  0.3947  0.3792  0.9313
 3214TIP3    H231134   3.730   3.550  14.132  0.2155 -2.4670  1.9446
 3215TIP3   OH231135   4.663   1.780   3.366  0.5650 -0.7824 -0.2485
 3215TIP3    H131136   4.594   1.794   3.302 -0.5272 -1.5343  0.7187
 3215TIP3    H231137   4.707   1.865   3.372 -1.1967  0.1584  0.1319
 3216TIP3   OH231138   1.824   5.112  15.290  0.1085  0.2798  0.2178
 3216TIP3    H131139   1.871   5.068  15.361 -0.1972  0.3046  0.4368
 3216TIP3    H231140   1.884   5.179  15.259  1.5541 -1.7143 -1.6473
 3217TIP3   OH231141   5.932   1.408   0.352 -0.2214  0.0090 -0.0826
 3217TIP3    H131142   5.924   1.327   0.301  0.4470 -0.5771  0.7159
 3217TIP3    H231143   5.985   1.383   0.427 -0.4250  1.0833  0.4267
 3218TIP3   OH231144   0.001   5.056  14.810  0.0279  0.5205 -0.5845
 3218TIP3    H131145   0.077   5.087  14.761 -0.7304  0.8008 -1.6388
 3218TIP3    H231146   0.036   5.021  14.891  1.0739  2.8082  0.0197
 3219TIP3   OH231147   5.631   5.030   5.736  0.3365  0.0404  0.4401
 3219TIP3    H131148   5.655   4.945   5.771 -1.5185 -0.9756 -0.5747
 3219TIP3    H231149   5.711   5.063   5.695  0.5325 -2.3732 -1.3334
 3220TIP3   OH231150   1.259   3.980  15.704  0.0833  0.7832 -0.1111
 3220TIP3    H131151   1.280   3.887  15.705  0.4053  0.8213 -1.5950
 3220TIP3    H231152   1.164   3.984  15.711  0.1028  0.3684  0.4454
 3221TIP3   OH231153   2.920   4.927   0.277 -0.2254  0.1210  0.0800
 3221TIP3    H131154   2.971   4.847   0.286  0.2062  0.3769 -0.0811
 3221TIP3    H231155   2.952   4.968   0.197  0.5636  1.1721  0.8903
 3222TIP3   OH231156   1.010   3.055   0.225  0.6421  0.0285 -0.0451
 3222TIP3    H131157   1.091   3.103   0.243  0.4688  0.1099  0.5247
 3222TIP3    H231158   1.007   2.986   0.291  1.4853 -1.5412 -1.5628
 3223TIP3   OH231159   2.902   0.408  14.651 -0.0265  0.3816 -0.6519
 3223TIP3    H131160   2.921   0.328  14.700 -0.1824  0.3334 -0.6670
 3223TIP3    H231161   2.899   0.477  14.717  0.1386  0.3795 -0.6418
 3224TIP3   OH231162   6.017   1.411  16.818 -0.7414 -0.6949 -0.6306
 3224TIP3    H131163   5.960   1.462  16.875  0.3960  0.2922 -0.3428
 3224TIP3    H231164   6.050   1.474  16.754 -0.2867 -1.3395 -1.0488
 3225TIP3   OH231165   2.415   4.759   0.990  0.0233  0.2748  0.1314
 3225TIP3    H131166   2.405   4.829   0.925 -0.7127  1.8973  1.9045
 3225TIP3    H231167   2.334   4.708   0.981 -0.5099  1.0522  0.3869
 3226TIP3   OH231168   2.235   5.005   4.963 -0.3546 -0.2171 -0.3265
 3226TIP3    H131169   2.210   5.059   5.038 -0.9467 -1.1780  0.1893
 3226TIP3    H231170   2.157   5.004   4.908 -0.0815  0.0928 -0.7229
 3227TIP3   OH231171   5.236   4.481   1.828 -0.7594  0.2497 -0.3678
 3227TIP3    H131172   5.283   4.558   1.797  0.9922  0.3583  2.2592
 3227TIP3    H231173   5.230   4.424   1.751 -3.3536  3.4019 -2.7989
 3228TIP3   OH231174   4.276   0.343   1.581 -0.3866  0.2619 -0.6144
 3228TIP3    H131175   4.219   0.271   1.554 -1.3464  1.1111 -0.9413
 3228TIP3    H231176   4.281   0.335   1.676 -0.5518 -0.1867 -0.6394
 3229TIP3   OH231177   4.342   0.790   2.287 -0.5183  0.0850 -0.0789
 3229TIP3    H131178   4.379   0.725   2.346 -1.3237  1.0985  1.6166
 3229TIP3    H231179   4.249   0.791   2.308 -0.6500  1.2042 -0.6458
 3230TIP3   OH231180   3.240   0.952  14.043  0.4295 -0.6297  0.6706
 3230TIP3    H131181   3.298   1.011  13.996 -1.4703 -0.6294 -1.8785
 3230TIP3    H231182   3.197   1.007  14.108  1.5767 -0.1447  1.0459
 3231TIP3   OH231183   1.077   0.030  12.640  0.5861 -0.9628  0.4215
 3231TIP3    H131184   1.025  -0.046  12.617  0.7169 -0.9368  0.0444
 3231TIP3    H231185   1.072   0.088  12.564  0.4569 -0.5775  0.7164
 3232TIP3   OH231186   5.597   2.010  13.063  0.1488 -1.0244  0.8300
 3232TIP3    H131187   5.575   2.095  13.103  1.2122  0.2359 -1.1031
 3232TIP3    H231188   5.512   1.969  13.049 -0.3531 -0.6631  2.5000
 3233TIP3   OH231189   6.673   3.190  11.113 -0.4609  0.8698  0.7793
 3233TIP3    H131190   6.743   3.168  11.175 -0.0273 -0.3466 -0.0906
 3233TIP3    H231191   6.596   3.205  11.168 -0.7304 -2.6174  1.5821
 3234TIP3   OH231192   3.547   2.237   0.109  0.3785 -0.0938 -0.0232
 3234TIP3    H131193   3.526   2.257   0.018  2.2062  0.0841 -0.4338
 3234TIP3    H231194   3.468   2.195   0.143 -0.6096  0.5351 -1.4560
 3235TIP3   OH231195   0.912   2.054   1.588  0.6610 -0.3734 -0.2049
 3235TIP3    H131196   0.924   2.137   1.634 -1.4606 -1.2707  2.1858
 3235TIP3    H231197   0.837   2.070   1.529  0.4005 -0.5051  0.0867
 3236TIP3   OH231198   0.936   3.173   6.031 -0.6143  0.2934  0.3530
 3236TIP3    H131199   1.029   3.163   6.014 -0.5760  2.0367 -0.7588
 3236TIP3    H231200   0.932   3.230   6.108 -0.7479  0.3440  0.3094
 3237TIP3   OH231201   3.861   1.949   5.245 -0.0132  0.4747  0.5714
 3237TIP3    H131202   3.853   1.864   5.203 -0.2985  1.1648 -0.8290
 3237TIP3    H231203   3.811   1.940   5.327 -1.6239 -0.1444 -0.4350
 3238TIP3   OH231204   5.682   4.228  12.861 -0.1188 -0.9379  0.0651
 3238TIP3    H131205   5.706   4.148  12.816  1.5887  0.1590 -1.1200
 3238TIP3    H231206   5.710   4.298  12.802 -1.2272  0.5331  1.2087
 3239TIP3   OH231207   5.488   5.413   5.935 -0.4924  0.2716  0.2531
 3239TIP3    H131208   5.497   5.447   5.846  0.7141 -1.2316 -0.2346
 3239TIP3    H231209   5.464   5.490   5.987 -0.1045  1.4076 -1.1670
 3240TIP3   OH231210   0.423   0.321  14.661  0.3317  0.3650 -0.0858
 3240TIP3    H131211   0.445   0.233  14.692  2.0748  0.6733 -0.3753
 3240TIP3    H231212   0.337   0.311  14.621 -1.5012 -0.3387  3.5625
 3241TIP3   OH231213   0.702   2.951  14.645  1.1177  0.1959 -0.7929
 3241TIP3    H131214   0.779   2.917  14.690  0.1058 -0.0548  0.7892
 3241TIP3    H231215   0.645   2.876  14.633  0.5884  0.6029 -0.8591
 3242TIP3   OH231216   2.244   4.656  16.924 -0.3872 -0.3846  0.5535
 3242TIP3    H131217   2.282   4.743  16.915 -1.8817  0.4884  2.0735
 3242TIP3    H231218   2.299   4.612  16.988 -0.1199 -0.2557  0.4161
 3243TIP3   OH231219   6.011   0.043   4.868 -0.1247 -0.4606 -0.8030
 3243TIP3    H131220   6.049   0.116   4.820  1.1999 -0.9215 -0.4776
 3243TIP3    H231221   6.067   0.031   4.944  0.8271 -2.9984 -1.7846
 3244TIP3   OH231222   5.186   2.410   2.058 -0.0179 -0.3411 -0.7706
 3244TIP3    H131223   5.281   2.420   2.047  0.2417 -1.4109  0.3056
 3244TIP3    H231224   5.173   2.407   2.153 -1.0770 -0.6377 -0.9142
 3245TIP3   OH231225   1.834   5.531   1.337 -0.0812 -0.2138 -0.4423
 3245TIP3    H131226   1.927   5.551   1.329 -0.1591  0.2002 -0.3683
 3245TIP3    H231227   1.829   5.436   1.340  0.3908 -0.2201  0.1928
 3246TIP3   OH231228   1.245   0.227  15.421  0.4629  0.7415  0.2535
 3246TIP3    H131229   1.319   0.249  15.366  0.2567  1.9531  0.4338
 3246TIP3    H231230   1.178   0.291  15.398 -0.3221  0.0347  0.5101
 3247TIP3   OH231231   0.872   4.697   4.116  0.0118  0.3022 -0.0056
 3247TIP3    H131232   0.870   4.668   4.025  0.8509 -0.2310  0.1347
 3247TIP3    H231233   0.842   4.788   4.113  0.9101  0.5889 -0.9390
 3248TIP3   OH231234   4.162   0.471  14.805  0.2694  0.0309  0.4765
 3248TIP3    H131235   4.236   0.479  14.866 -0.0625 -0.8554  1.0168
 3248TIP3    H231236   4.180   0.393  14.755 -0.2573 -0.1472  0.5543
 3249TIP3   OH231237   5.852   3.385   2.262  0.1454 -0.5283  0.6072
 3249TIP3    H131238   5.764   3.411   2.234 -0.3137 -2.1782  0.4002
 3249TIP3    H231239   5.909   3.456   2.232 -0.8566 -0.3491 -1.0311
 3250TIP3   OH231240   6.224   1.165  12.233  0.1546  0.4957 -0.0103
 3250TIP3    H131241   6.197   1.188  12.144  0.8957  0.5671 -0.2220
 3250TIP3    H231242   6.186   1.234  12.288  1.2292  1.5117 -0.4911
 3251TIP3   OH231243   1.483   2.068  16.314 -0.4037 -0.3156  0.6292
 3251TIP3    H131244   1.414   2.041  16.375 -0.3057 -0.9423  0.4651
 3251TIP3    H231245   1.530   1.987  16.293  0.5414  0.1384  0.9301
 3252TIP3   OH231246   0.997   5.550  15.091 -0.0257 -0.2084  0.0505
 3252TIP3    H131247   1.083   5.509  15.085  0.2682  0.4708 -0.4732
 3252TIP3    H231248   1.015   5.642  15.112 -0.6715 -0.3117  1.1396
 3253TIP3   OH231249   5.520   0.064   1.739  0.1188  0.3365 -0.4446
 3253TIP3    H131250   5.574   0.026   1.809 -1.2992 -1.0850 -0.0544
 3253TIP3    H231251   5.582   0.085   1.670  1.3795  0.3792  0.6508
 3254TIP3   OH231252   3.145   2.198  13.531  0.1485  0.3889 -0.0442
 3254TIP3    H131253   3.153   2.106  13.558  0.4292  0.9097  1.7974
 3254TIP3    H231254   3.124   2.245  13.611 -2.0718  1.7150 -1.2943
 3255TIP3   OH231255   4.335   0.907   3.392 -0.4119 -0.1579  1.2094
 3255TIP3    H131256   4.324   0.812   3.398  1.5278 -0.6145 -0.8878
 3255TIP3    H231257   4.410   0.925   3.449  0.0689 -0.1207  0.5752
 3256TIP3   OH231258   2.475   0.454   4.062 -0.3487  0.6201 -0.1388
 3256TIP3    H131259   2.505   0.540   4.091  0.5948  0.3251 -0.2025
 3256TIP3    H231260   2.383   0.451   4.088 -0.3435  1.5695  0.0349
 3257TIP3   OH231261   4.679   1.601  16.064 -0.5726  0.3072 -0.1076
 3257TIP3    H131262   4.596   1.590  16.019 -1.4680 -0.8092  1.7120
 3257TIP3    H231263   4.722   1.515  16.057  0.6373  0.9669 -1.3378
 3258TIP3   OH231264   4.625   4.991  11.358  0.1535  0.5166  0.4462
 3258TIP3    H131265   4.592   4.975  11.270 -1.2364  1.0705  0.8278
 3258TIP3    H231266   4.700   5.049  11.345  1.8426 -1.7512 -0.5375
 3259TIP3   OH231267   3.291   5.189  12.218  0.2487  0.6163  0.4476
 3259TIP3    H131268   3.217   5.130  12.202  0.4127  0.7601 -1.0072
 3259TIP3    H231269   3.352   5.138  12.271 -0.0970 -0.1436  0.1285
 3260TIP3   OH231270   0.845   6.458   5.669 -0.2811  0.1657 -0.0888
 3260TIP3    H131271   0.909   6.467   5.740  0.7341 -1.1122 -0.7861
 3260TIP3    H231272   0.847   6.542   5.624  2.8845 -0.5931 -1.6295
 3261TIP3   OH231273   3.572   1.032  16.914  0.4305  0.4127  0.2971
 3261TIP3    H131274   3.548   1.123  16.927  1.2791  0.5639  0.8812
 3261TIP3    H231275   3.637   1.014  16.982  0.6853 -0.4631 -0.1596
 3262TIP3   OH231276   6.238   0.492   1.624  0.4913  0.5994 -0.3679
 3262TIP3    H131277   6.198   0.500   1.537  2.5951 -0.7259 -1.5503
 3262TIP3    H231278   6.165   0.472   1.682 -1.0480  1.9808 -1.7354
 3263TIP3   OH231279   0.469   3.147   5.697 -0.2207 -0.1716  0.0155
 3263TIP3    H131280   0.485   3.110   5.784  0.2694 -3.1792 -1.2450
 3263TIP3    H231281   0.538   3.212   5.686  1.7331 -2.0097  0.6991
 3264TIP3   OH231282   6.401   5.378   4.682  0.0182  0.0888 -0.1468
 3264TIP3    H131283   6.435   5.448   4.738  1.4421 -0.9917  0.4136
 3264TIP3    H231284   6.462   5.306   4.696 -0.9884 -1.0112 -1.2826
 3265TIP3   OH231285   2.794   1.610   4.262 -0.2677  0.2783  0.2539
 3265TIP3    H131286   2.717   1.586   4.314  0.1441 -0.7720  0.4217
 3265TIP3    H231287   2.792   1.551   4.187 -1.0461  2.0194 -1.1530
 3266TIP3   OH231288   4.303   4.354   3.894  0.1816 -0.4069  0.1417
 3266TIP3    H131289   4.301   4.449   3.898 -0.1060 -0.4532  1.5214
 3266TIP3    H231290   4.393   4.332   3.871  0.5718  0.1742  1.0753
 3267TIP3   OH231291   3.620   4.610   2.862  0.2762 -0.9838  0.0771
 3267TIP3    H131292   3.665   4.673   2.917 -0.2935  1.2635 -1.8604
 3267TIP3    H231293   3.689   4.554   2.828  1.0721 -0.2137  0.3899
 3268TIP3   OH231294   0.116   1.804  16.147 -0.0759 -0.4472  0.1106
 3268TIP3    H131295   0.078   1.801  16.059  0.8208  0.9415 -0.3566
 3268TIP3    H231296   0.040   1.801  16.206 -0.6874 -1.4234 -0.6837
 3269TIP3   OH231297   1.457   5.254   1.148  0.3185 -0.3923  0.2889
 3269TIP3    H131298   1.492   5.339   1.124  0.0970 -0.5276 -0.5528
 3269TIP3    H231299   1.468   5.200   1.069 -0.6508 -0.7824  0.4044
 3270TIP3   OH231300   5.330   6.809  12.544  0.1520  0.2426 -0.3007
 3270TIP3    H131301   5.271   6.756  12.490 -0.1421 -0.0854  0.3323
 3270TIP3    H231302   5.394   6.844  12.482  0.0005 -0.3748 -0.8149
 3271TIP3   OH231303   5.114   0.330   0.094  0.2411 -0.6044 -0.2389
 3271TIP3    H131304   5.048   0.298   0.034  0.0159 -1.0266  0.2240
 3271TIP3    H231305   5.144   0.252   0.141  0.8284 -0.3712 -0.2074
 3272TIP3   OH231306   1.855   4.107  13.163  0.0058  0.2962 -0.0038
 3272TIP3    H131307   1.829   4.022  13.200 -0.0283  1.0667  1.8730
 3272TIP3    H231308   1.903   4.085  13.083 -2.1046 -1.3730 -0.9118
 3273TIP3   OH231309   5.086   2.435   2.807 -0.6162 -0.3432  0.2294
 3273TIP3    H131310   5.178   2.428   2.833 -0.9742 -1.6958  1.2385
 3273TIP3    H231311   5.076   2.374   2.735 -0.8248 -0.5363  0.4208
 3274TIP3   OH231312   5.590   1.528  11.066  0.6033  0.3381 -0.2788
 3274TIP3    H131313   5.613   1.481  11.146 -1.1618  1.2284  0.8082
 3274TIP3    H231314   5.620   1.471  10.995  0.7932 -1.2141  1.0017
 3275TIP3   OH231315   1.615   1.601  10.207  0.2276  0.1418 -0.0442
 3275TIP3    H131316   1.530   1.642  10.224 -0.9851 -1.6214 -1.5042
 3275TIP3    H231317   1.633   1.622  10.115  0.1382 -1.5349 -0.4796
 3276TIP3   OH231318   4.324   6.263   1.745 -0.1156  0.5422 -0.8450
 3276TIP3    H131319   4.389   6.194   1.737 -2.9271 -2.6787  1.4498
 3276TIP3    H231320   4.341   6.303   1.830 -1.2517 -0.6020 -0.0390
 3277TIP3   OH231321   6.055   0.041   1.317  0.0437 -0.5324 -0.2686
 3277TIP3    H131322   6.136   0.020   1.364 -0.2382 -1.0732 -0.0157
 3277TIP3    H231323   6.029  -0.041   1.277 -0.3779 -0.3569 -0.3501
 3278TIP3   OH231324   6.492   4.903   3.025 -0.3234  0.2887  0.5446
 3278TIP3    H131325   6.583   4.922   3.046 -0.4925  0.5261  1.0698
 3278TIP3    H231326   6.443   4.981   3.051 -0.6508  0.2696  0.0283
 3279TIP3   OH231327   0.004   2.181  15.503  0.2619  0.7502 -0.4900
 3279TIP3    H131328  -0.034   2.218  15.583  0.7029 -1.0264  0.6110
 3279TIP3    H231329  -0.058   2.114  15.475 -0.2771  1.8788 -2.1364
 3280TIP3   OH231330   6.725   3.567  16.639  0.1113 -0.1675  0.0113
 3280TIP3    H131331   6.814   3.571  16.605 -0.8340  2.5704 -2.5015
 3280TIP3    H231332   6.709   3.653  16.677 -2.1995  0.3163 -1.8005
 3281TIP3   OH231333   1.050   4.641  17.243 -0.3215  0.3239  0.3265
 3281TIP3    H131334   0.975   4.645  17.302 -0.4689  2.3652  0.0811
 3281TIP3    H231335   1.038   4.715  17.183  0.4620 -0.9541 -1.5084
 3282TIP3   OH231336   6.048   5.048  16.530  0.3753 -0.2864 -0.6060
 3282TIP3    H131337   6.078   5.022  16.617  0.1860  1.4695  0.0015
 3282TIP3    H231338   6.102   5.123  16.507 -0.7928  0.3734 -1.2434
 3283TIP3   OH231339   1.756   3.205  10.736 -0.0570 -0.2177  0.1585
 3283TIP3    H131340   1.789   3.120  10.706 -2.5944 -1.3171  0.2611
 3283TIP3    H231341   1.687   3.228  10.674 -1.2326  0.4373  1.6360
 3284TIP3   OH231342   0.152   2.753   6.433 -0.0532 -0.2877  0.1981
 3284TIP3    H131343   0.218   2.814   6.399  1.7298 -2.6444 -0.8360
 3284TIP3    H231344   0.125   2.702   6.356 -2.8530  0.2948  0.6785
 3285TIP3   OH231345   5.976   1.741   1.379 -0.4273  0.5634 -0.3701
 3285TIP3    H131346   5.981   1.821   1.325  0.5413  1.3316  0.8192
 3285TIP3    H231347   6.067   1.714   1.390 -0.8057 -1.8790 -2.3564
 3286TIP3   OH231348   5.934   2.071   3.025  0.4822 -0.3835  0.0481
 3286TIP3    H131349   5.872   2.025   2.969 -2.1532  0.7411  1.8077
 3286TIP3    H231350   5.920   2.164   3.006  3.1307 -0.0710 -0.8857
 3287TIP3   OH231351   0.277   0.270   1.528 -0.4434 -0.5431  0.4191
 3287TIP3    H131352   0.308   0.355   1.560 -1.0453  0.0296 -0.4828
 3287TIP3    H231353   0.190   0.260   1.567 -0.3718 -0.7398  0.5258
 3288TIP3   OH231354   1.952   1.332   3.360 -0.2468  0.0058 -0.8008
 3288TIP3    H131355   1.902   1.405   3.325 -0.7015  0.4205  0.6769
 3288TIP3    H231356   1.886   1.270   3.391  0.1333  0.1004  0.2247
 3289TIP3   OH231357   4.437   3.135   1.494  0.1534 -0.2664 -0.5444
 3289TIP3    H131358   4.519   3.095   1.523  0.8892  0.6864 -1.2610
 3289TIP3    H231359   4.409   3.189   1.568  0.7382  0.2312 -0.6776
 3290TIP3   OH231360   5.847   2.620  15.526  0.9040  0.0238 -0.2473
 3290TIP3    H131361   5.798   2.640  15.606  1.5197  0.9312 -0.0850
 3290TIP3    H231362   5.935   2.598  15.557  0.9090 -0.5023 -0.6198
 3291TIP3   OH231363   6.149   1.654   3.010  0.1931 -0.1688 -0.0587
 3291TIP3    H131364   6.216   1.722   3.024 -1.5006  1.0418  3.4031
 3291TIP3    H231365   6.199   1.575   2.989  2.3415  1.6710 -2.5537
 3292TIP3   OH231366   4.895   5.258   2.376 -0.1888  0.4689 -0.0525
 3292TIP3    H131367   4.856   5.189   2.429 -1.8161  1.8698  0.6886
 3292TIP3    H231368   4.957   5.213   2.318  1.9973 -1.1113  3.2424
 3293TIP3   OH231369   0.921   5.563  12.162 -0.0037  0.1716  0.3009
 3293TIP3    H131370   0.905   5.475  12.128  0.7870 -0.5896  1.7756
 3293TIP3    H231371   0.837   5.590  12.200  0.2325 -0.7989  1.5972
 3294TIP3   OH231372   0.527   1.032  12.162 -0.1283  0.0644 -0.5579
 3294TIP3    H131373   0.533   0.945  12.201  1.0825  0.1722 -0.4553
 3294TIP3    H231374   0.451   1.028  12.104  0.1672 -1.2026 -0.8884
 3295TIP3   OH231375   2.729   0.923   0.329  0.0276 -0.0747 -0.0000
 3295TIP3    H131376   2.692   0.863   0.394  0.7568  0.8500  1.3027
 3295TIP3    H231377   2.801   0.966   0.374  1.1262 -0.0356 -1.7158
 3296TIP3   OH231378   6.141   2.578   5.928  0.4168 -0.5841 -0.0560
 3296TIP3    H131379   6.076   2.575   5.999  0.3837 -0.7344 -0.0915
 3296TIP3    H231380   6.089   2.581   5.848  0.3964 -2.8629 -0.2052
 3297TIP3   OH231381   1.056   5.865   3.369 -0.4305 -0.4024  0.1783
 3297TIP3    H131382   1.144   5.898   3.351  0.4107 -1.8950  1.3183
 3297TIP3    H231383   1.025   5.918   3.443  0.1951 -0.9296  0.8363
 3298TIP3   OH231384   2.054   1.987   2.466  0.3436  0.1466 -0.1371
 3298TIP3    H131385   2.085   1.949   2.548  0.0861  1.4014  0.5561
 3298TIP3    H231386   2.115   2.059   2.448 -1.8233  2.3976  1.0333
 3299TIP3   OH231387   2.124   1.079   1.952  0.0669 -0.3585 -0.2305
 3299TIP3    H131388   2.049   1.020   1.958 -0.5383  0.3577 -0.5039
 3299TIP3    H231389   2.085   1.165   1.932  0.9495  0.0515 -0.2417
 3300TIP3   OH231390   4.811   4.453  14.937 -0.0504 -0.1131 -0.2630
 3300TIP3    H131391   4.748   4.489  15.000  0.9932  1.6785 -0.1718
 3300TIP3    H231392   4.764   4.380  14.896 -1.9869  0.8107  0.1717
 3301TIP3   OH231393   4.157   1.669  13.623 -0.0663  0.4278 -0.1130
 3301TIP3    H131394   4.103   1.737  13.584  0.7909  1.2841  0.1475
 3301TIP3    H231395   4.113   1.587  13.601 -2.0411  1.1320  0.9844
 3302TIP3   OH231396   3.450   3.914   0.619  0.2899 -0.2141 -0.1513
 3302TIP3    H131397   3.365   3.871   0.604 -0.3408  0.3410  1.5848
 3302TIP3    H231398   3.466   3.903   0.712  1.4177  0.9999 -0.1759
 3303TIP3   OH231399   1.286   5.415   0.391 -0.5184 -0.0716 -0.7082
 3303TIP3    H131400   1.378   5.439   0.392 -0.1541 -1.4104 -0.2099
 3303TIP3    H231401   1.256   5.430   0.480 -1.3409  2.2463 -1.2984
 3304TIP3   OH231402   2.968   6.275   0.617 -0.4876  0.0638 -0.0313
 3304TIP3    H131403   3.043   6.320   0.658 -1.3203  2.1567 -0.6667
 3304TIP3    H231404   2.997   6.184   0.608  1.7291  0.6638  0.3510
 3305TIP3   OH231405   5.086   3.576  14.010  0.8063  0.5943 -0.0389
 3305TIP3    H131406   5.066   3.620  14.093  0.7403 -0.7643  0.7001
 3305TIP3    H231407   5.066   3.641  13.943  1.2614  1.8743  1.0234
 3306TIP3   OH231408   2.155   1.245   3.186 -0.6648 -0.3773 -0.0433
 3306TIP3    H131409   2.202   1.213   3.262 -0.5199  2.2167  1.0506
 3306TIP3    H231410   2.083   1.297   3.222  0.0632  1.8635 -1.5742
 3307TIP3   OH231411   5.027   3.134   0.836 -0.1801 -0.5078 -0.0659
 3307TIP3    H131412   4.993   3.071   0.900 -0.8442  0.0549  0.1539
 3307TIP3    H231413   5.086   3.083   0.781  0.2269 -1.0663  0.8457
 3308TIP3   OH231414   2.068   4.615  10.914  0.5378  0.2731 -0.0084
 3308TIP3    H131415   2.041   4.572  10.833  1.1625  1.1895 -0.7264
 3308TIP3    H231416   2.033   4.560  10.984 -1.5638  0.4167 -0.8778
 3309TIP3   OH231417   2.328   1.689   0.146  0.3268 -0.3937  0.6230
 3309TIP3    H131418   2.337   1.600   0.113 -0.3193 -0.8734  1.6824
 3309TIP3    H231419   2.275   1.680   0.225 -0.2393  1.0074  0.4340
 3310TIP3   OH231420   1.923   0.796  17.013  0.1359 -0.2364  0.7991
 3310TIP3    H131421   2.005   0.820  16.970  1.4923  0.0113  3.3729
 3310TIP3    H231422   1.908   0.705  16.986 -0.4011  0.5723 -2.0224
 3311TIP3   OH231423   4.533   4.303   1.616 -0.1797 -0.1557  0.0974
 3311TIP3    H131424   4.618   4.344   1.596  1.3773 -2.8797  0.6773
 3311TIP3    H231425   4.541   4.214   1.580 -3.7653  0.1929 -2.0021
 3312TIP3   OH231426   2.190   4.470  12.047  0.9643  0.3583  0.1851
 3312TIP3    H131427   2.198   4.408  11.974 -0.9344 -1.7380  1.6210
 3312TIP3    H231428   2.233   4.425  12.120 -0.9633  0.3987  1.4126
 3313TIP3   OH231429   2.667   3.985   0.055  0.6897 -0.1605 -0.0614
 3313TIP3    H131430   2.579   3.999   0.092  1.4247  0.8564  1.3765
 3313TIP3    H231431   2.707   3.921   0.113  0.5852 -1.3791 -1.2910
 3314TIP3   OH231432   6.131   5.224   4.882 -0.3738  0.7406  0.3314
 3314TIP3    H131433   6.159   5.308   4.845 -1.5791  1.1858  0.3784
 3314TIP3    H231434   6.046   5.208   4.841  0.0963 -0.7467 -0.1005
 3315TIP3   OH231435   6.793   3.959   4.776 -0.3226  0.3059 -0.0109
 3315TIP3    H131436   6.726   3.894   4.752  0.4160  0.3448 -2.5592
 3315TIP3    H231437   6.806   4.009   4.695  1.2296  1.7143  1.0584
 3316TIP3   OH231438   5.077   0.575  17.283 -0.4181 -0.2375  0.9680
 3316TIP3    H131439   5.061   0.568  17.189  3.2899  1.1601  0.0376
 3316TIP3    H231440   5.083   0.484  17.313  1.9457 -0.8506 -1.0251
 3317TIP3   OH231441   1.567   4.032  16.518  0.2588 -0.3232  0.4830
 3317TIP3    H131442   1.565   3.999  16.429  2.0941  0.1399  0.2291
 3317TIP3    H231443   1.508   3.975  16.567 -0.5508 -0.7484 -0.9664
 3318TIP3   OH231444   1.149   6.129   1.234  0.1012  0.5206  0.3638
 3318TIP3    H131445   1.225   6.093   1.189  0.6808  0.5684  1.2709
 3318TIP3    H231446   1.078   6.125   1.170  0.7794  0.1289 -0.3703
 3319TIP3   OH231447   4.564   2.065   5.391 -0.0969  0.0851 -0.1575
 3319TIP3    H131448   4.538   1.992   5.446  1.5173 -1.1272 -0.9312
 3319TIP3    H231449   4.513   2.054   5.310  0.2369 -0.2640 -0.3217
 3320TIP3   OH231450   6.732   1.862   0.792 -0.1092  0.3374  0.5264
 3320TIP3    H131451   6.676   1.931   0.758 -0.4905 -1.3621 -2.6978
 3320TIP3    H231452   6.771   1.899   0.871 -0.9678  3.8679 -0.5309
 3321TIP3   OH231453   5.723   6.033   4.811  0.0429 -0.2879  0.0501
 3321TIP3    H131454   5.688   6.032   4.721 -0.2426 -0.5256  0.1620
 3321TIP3    H231455   5.679   6.106   4.853 -0.1096 -0.4115  0.1074
 3322TIP3   OH231456   6.395   2.107  14.506  0.1046  0.2381 -0.1628
 3322TIP3    H131457   6.301   2.116  14.525  0.6600  0.3604  3.0391
 3322TIP3    H231458   6.414   2.015  14.521  0.5771  0.2871 -0.4394
 3323TIP3   OH231459   4.231   5.028   0.819  0.1491  0.5462  0.3792
 3323TIP3    H131460   4.226   5.111   0.868 -1.8222 -0.4717  2.0221
 3323TIP3    H231461   4.234   5.055   0.728  0.3329  2.4534  0.8970
 3324TIP3   OH231462   5.982   3.953   2.370 -0.8943 -0.6753  0.0934
 3324TIP3    H131463   5.971   3.859   2.381 -0.7062 -0.8013 -0.7693
 3324TIP3    H231464   6.006   3.985   2.458  1.4825 -1.7803 -0.0737
 3325TIP3   OH231465   0.180   0.851  14.830 -0.0135  0.1303  0.1107
 3325TIP3    H131466   0.257   0.807  14.796  0.8695  0.4996  1.5386
 3325TIP3    H231467   0.111   0.784  14.827  0.1981 -0.0407 -1.6693
 3326TIP3   OH231468   6.635   6.000   1.330  0.3544  0.5805 -0.4679
 3326TIP3    H131469   6.626   6.022   1.238  0.3074 -0.0741 -0.6275
 3326TIP3    H231470   6.728   5.984   1.343  0.0970 -1.5948 -0.9592
 3327TIP3   OH231471   6.363   0.740   1.633  0.6277  0.3381 -0.6924
 3327TIP3    H131472   6.365   0.730   1.538 -2.2236 -0.4868 -0.7526
 3327TIP3    H231473   6.323   0.660   1.665 -0.7531  1.6178  0.9922
 3328TIP3   OH231474   0.617   4.809   2.016 -0.2187 -0.1365  0.5546
 3328TIP3    H131475   0.531   4.849   2.015  0.3757  1.1850 -0.2649
 3328TIP3    H231476   0.608   4.731   1.960 -0.5260  0.8078 -0.7472
 3329TIP3   OH231477   3.249   4.811  14.183 -0.5866 -0.0143  0.4489
 3329TIP3    H131478   3.216   4.894  14.147 -0.0083  0.5428  1.1826
 3329TIP3    H231479   3.344   4.823  14.186 -0.6491  0.2849  2.9187
 3330TIP3   OH231480   1.638   5.089   3.738 -0.3858 -0.2117  0.3124
 3330TIP3    H131481   1.560   5.076   3.684  0.1034 -1.4307 -0.1475
 3330TIP3    H231482   1.651   5.004   3.780 -0.8103  0.7372  2.4628
 3331TIP3   OH231483   0.146   4.876  11.964 -0.1992 -0.2539  0.8958
 3331TIP3    H131484   0.089   4.913  12.032  0.8085 -0.2538  1.7647
 3331TIP3    H231485   0.187   4.952  11.922 -3.5992  0.0741 -2.3896
 3332TIP3   OH231486   0.274   3.675  16.886  0.2779  0.2003 -0.0641
 3332TIP3    H131487   0.289   3.591  16.930 -2.7272 -0.5379 -0.2222
 3332TIP3    H231488   0.215   3.722  16.945  2.4835  2.6359  0.3957
 3333TIP3   OH231489   6.769   4.483   5.694 -0.0357 -0.1814 -0.2549
 3333TIP3    H131490   6.780   4.390   5.674  1.6351 -0.0519 -0.0521
 3333TIP3    H231491   6.845   4.525   5.655  0.0234  0.9040  0.9621
 3334TIP3   OH231492   5.807   2.929   1.944  0.1720 -0.6341 -0.2596
 3334TIP3    H131493   5.862   2.961   2.016  2.4007 -2.2551 -1.1430
 3334TIP3    H231494   5.726   2.980   1.952  0.7569  0.0418  2.6813
 3335TIP3   OH231495   0.543   2.236   2.560  0.1616 -0.1384 -0.4280
 3335TIP3    H131496   0.566   2.269   2.648  1.5912  0.0310 -0.8309
 3335TIP3    H231497   0.564   2.142   2.564 -0.2417 -0.2275 -0.4374
 3336TIP3   OH231498   0.201   3.372   2.635 -0.6332  0.0907 -0.2140
 3336TIP3    H131499   0.134   3.374   2.703 -1.5882  1.2530 -1.1483
 3336TIP3    H231500   0.275   3.418   2.674 -0.7396 -0.2790  0.4470
 3337TIP3   OH231501   3.236   5.516   5.960  0.1232  0.6673 -0.3115
 3337TIP3    H131502   3.243   5.484   6.050  3.2191 -0.6236 -0.8928
 3337TIP3    H231503   3.226   5.437   5.907 -0.9995  1.3648 -1.2032
 3338TIP3   OH231504   2.885   2.368  12.910 -0.4506  0.7439 -0.5558
 3338TIP3    H131505   2.858   2.283  12.877  0.8863  0.3089 -0.5795
 3338TIP3    H231506   2.936   2.348  12.989 -0.0687  1.5159 -0.6010
 3339TIP3   OH231507   5.296   2.318  12.933 -0.0310 -0.4968 -0.1822
 3339TIP3    H131508   5.219   2.324  12.876  0.1511  0.7283 -0.3357
 3339TIP3    H231509   5.360   2.376  12.893 -0.0130  0.6648  1.4251
 3340TIP3   OH231510   2.226   4.230  15.586  0.2256  0.0589 -0.1163
 3340TIP3    H131511   2.176   4.259  15.509  0.1676 -0.5723 -0.3243
 3340TIP3    H231512   2.275   4.154  15.555  0.8489  0.3039  0.2540
 3341TIP3   OH231513   5.486   2.137   4.048 -0.3232  0.0308 -0.8320
 3341TIP3    H131514   5.525   2.143   3.961 -0.7154  0.5647 -0.9755
 3341TIP3    H231515   5.540   2.072   4.094  0.9136  0.9375 -0.9412
 3342TIP3   OH231516   4.045   6.034   3.338  0.2841 -0.4002  0.3116
 3342TIP3    H131517   4.085   6.119   3.355  0.6847  0.0367 -2.2890
 3342TIP3    H231518   4.113   5.970   3.360  0.2007 -0.0538  1.6764
 3343TIP3   OH231519   2.655   3.060  15.796 -0.0751  0.1213 -0.0716
 3343TIP3    H131520   2.614   2.997  15.855 -2.2362  0.4854 -1.1019
 3343TIP3    H231521   2.694   3.006  15.727 -0.0501 -0.1678  0.1634
 3344TIP3   OH231522   4.239   6.417  16.952 -0.0854 -0.2719 -0.4338
 3344TIP3    H131523   4.303   6.442  16.886 -0.4380  0.8728 -0.3721
 3344TIP3    H231524   4.292   6.392  17.028  0.3197  1.0515 -0.2466
 3345TIP3   OH231525   3.240   5.527   4.712  0.7411 -0.2294 -0.7082
 3345TIP3    H131526   3.324   5.565   4.687  0.4374 -0.8900 -2.9948
 3345TIP3    H231527   3.259   5.476   4.790  2.2047  0.5781 -0.4995
 3346TIP3   OH231528   6.784   1.897   1.435  0.3077  0.6005  0.6326
 3346TIP3    H131529   6.715   1.913   1.499 -1.6753  0.4666 -1.3221
 3346TIP3    H231530   6.777   1.804   1.414  0.3621  0.8039 -0.3450
 3347TIP3   OH231531   0.854   0.005   4.913 -0.7857  0.3055  0.0783
 3347TIP3    H131532   0.823   0.008   5.003  1.0155 -1.2024  0.8326
 3347TIP3    H231533   0.788   0.051   4.862 -2.3565  0.3031  2.0243
 3348TIP3   OH231534   1.724   4.668  15.650  0.2293  0.0596  0.5199
 3348TIP3    H131535   1.660   4.636  15.714 -0.1970  1.1036  0.6293
 3348TIP3    H231536   1.763   4.745  15.691  2.1440 -0.9621  0.7887
 3349TIP3   OH231537   4.029   5.326   5.671 -0.1096 -0.1962 -0.2226
 3349TIP3    H131538   4.123   5.328   5.654  0.3759 -3.1410  1.3797
 3349TIP3    H231539   4.021   5.293   5.761 -2.6810 -0.6343 -0.5228
 3350TIP3   OH231540   1.432   0.855   1.459  0.0388 -0.2615 -0.1489
 3350TIP3    H131541   1.406   0.932   1.510 -0.4418 -0.4222 -0.1464
 3350TIP3    H231542   1.512   0.882   1.414 -0.0073  0.1684  0.0239
 3351TIP3   OH231543   3.603   6.671  14.139 -0.5748 -0.4638 -0.8149
 3351TIP3    H131544   3.650   6.711  14.212  0.2706  0.6336 -1.9397
 3351TIP3    H231545   3.639   6.582  14.133 -0.7293 -0.6082  0.1478
 3352TIP3   OH231546   2.239   6.125   5.087 -0.0794  0.2656  0.0529
 3352TIP3    H131547   2.171   6.068   5.050 -0.4148  0.0291  1.0184
 3352TIP3    H231548   2.290   6.153   5.011 -1.8463  1.2512 -0.8324
 3353TIP3   OH231549   0.865   4.899   1.883  0.2359 -0.0745  0.0425
 3353TIP3    H131550   0.787   4.876   1.932  0.4113  0.4292  0.5655
 3353TIP3    H231551   0.907   4.815   1.863  1.4030 -0.2391  2.7869
 3354TIP3   OH231552   4.443   4.010  12.351  0.6647  0.0666  0.2821
 3354TIP3    H131553   4.371   4.067  12.379 -0.1412 -2.1400  3.2254
 3354TIP3    H231554   4.418   3.980  12.264  0.3364  2.8271 -0.6669
 3355TIP3   OH231555   1.569   4.990  16.829 -0.0571 -0.0394 -0.4581
 3355TIP3    H131556   1.534   5.079  16.825  0.4840  0.2851  1.1647
 3355TIP3    H231557   1.622   4.989  16.909  1.7955 -1.1672 -1.6386
 3356TIP3   OH231558   4.977   1.682  16.644  0.0080  0.3290 -0.5289
 3356TIP3    H131559   4.989   1.738  16.567  2.1540  0.6099 -0.0597
 3356TIP3    H231560   5.011   1.734  16.717 -0.6384 -0.4989  0.3925
 3357TIP3   OH231561   0.533   4.859  14.030  0.4037 -0.3379 -0.1943
 3357TIP3    H131562   0.437   4.861  14.031  0.3752  1.5792  1.4958
 3357TIP3    H231563   0.556   4.804  13.955 -1.9963 -3.6386  1.2501
 3358TIP3   OH231564   4.811   5.053   2.724  0.3649 -0.4195  0.2663
 3358TIP3    H131565   4.860   5.076   2.802  1.2537 -0.3729 -0.2900
 3358TIP3    H231566   4.743   5.120   2.717  1.7681  1.0027 -0.3083
 3359TIP3   OH231567   4.827   0.098   1.884  0.0029 -0.2100  0.6880
 3359TIP3    H131568   4.779   0.146   1.951 -2.1132 -1.5316  0.2199
 3359TIP3    H231569   4.912   0.079   1.925 -0.1896  1.3458  1.9315
 3360TIP3   OH231570   3.184   4.204   3.408 -0.5283 -0.2435 -0.1333
 3360TIP3    H131571   3.220   4.261   3.339 -0.9548 -0.5887 -0.6496
 3360TIP3    H231572   3.114   4.155   3.364  0.3357 -1.7378  0.0863
 3361TIP3   OH231573   4.777   5.809  16.733  0.2863 -0.1973  0.6838
 3361TIP3    H131574   4.713   5.855  16.679  0.1557 -1.3613 -0.2098
 3361TIP3    H231575   4.857   5.860  16.724  0.0806  0.0103 -0.0826
 3362TIP3   OH231576   6.314   5.864   4.635  0.2395 -0.4470 -0.3473
 3362TIP3    H131577   6.276   5.786   4.596  0.6433 -0.5767 -0.4929
 3362TIP3    H231578   6.246   5.931   4.628  0.4116 -0.3678 -1.5968
 3363TIP3   OH231579   1.402   1.570  13.743 -0.6014  0.6196 -0.5837
 3363TIP3    H131580   1.320   1.547  13.700 -1.1014 -1.6031  1.3137
 3363TIP3    H231581   1.469   1.559  13.676 -1.6127  0.0499 -1.5239
 3364TIP3   OH231582   0.672   4.030  13.704  0.4378  0.1539  0.2647
 3364TIP3    H131583   0.638   4.037  13.614  0.0549  0.4845  0.4310
 3364TIP3    H231584   0.767   4.026  13.693  0.3326 -1.8018 -0.2696
 3365TIP3   OH231585   3.297   2.773  11.663 -0.4539  0.3369 -0.1594
 3365TIP3    H131586   3.270   2.697  11.714  2.8693 -1.2726 -0.5601
 3365TIP3    H231587   3.362   2.817  11.717 -0.3661  1.3757 -1.0647
 3366TIP3   OH231588   1.068   0.241   4.162  0.0274 -0.1101  0.0537
 3366TIP3    H131589   1.002   0.214   4.097 -0.8019 -3.1114  1.9624
 3366TIP3    H231590   1.152   0.226   4.118 -0.5187 -1.0665 -0.7203
 3367TIP3   OH231591   1.676   5.465  13.695 -0.5243 -0.5291  0.4808
 3367TIP3    H131592   1.689   5.470  13.600  0.3261  1.6784  0.6759
 3367TIP3    H231593   1.755   5.422  13.728 -0.4128 -0.4688  0.2913
 3368TIP3   OH231594   2.980   6.303   2.740 -0.2758  0.9515 -0.3083
 3368TIP3    H131595   2.945   6.385   2.776  0.4572  0.9954  0.3475
 3368TIP3    H231596   3.015   6.328   2.655 -0.5066  1.2191 -0.3282
 3369TIP3   OH231597   2.732   1.136  13.205 -0.3280 -0.2888 -0.0910
 3369TIP3    H131598   2.729   1.040  13.206 -1.5705 -0.2651  1.6759
 3369TIP3    H231599   2.785   1.159  13.282 -0.6626  0.4537 -0.0774
 3370TIP3   OH231600   3.863   1.524  12.805  0.2264 -0.1824 -0.0865
 3370TIP3    H131601   3.882   1.601  12.751 -3.2556  0.8879 -0.0045
 3370TIP3    H231602   3.897   1.546  12.891 -0.5081  1.2092 -0.1270
 3371TIP3   OH231603   2.839   1.027  16.788  0.0686  0.5845 -0.4642
 3371TIP3    H131604   2.750   1.058  16.770  0.5647  2.7650  0.4967
 3371TIP3    H231605   2.870   1.084  16.859  3.0974  1.6253 -2.4357
 3372TIP3   OH231606   5.274   2.799  15.445 -0.5224 -0.2145  0.0155
 3372TIP3    H131607   5.303   2.838  15.362 -0.2724  0.3956  0.3809
 3372TIP3    H231608   5.337   2.729  15.462 -0.4706 -0.2248 -0.2135
 3373TIP3   OH231609   2.804   1.961  16.158 -0.1836 -0.2684 -0.3303
 3373TIP3    H131610   2.895   1.992  16.164  0.3278 -1.6009 -1.0164
 3373TIP3    H231611   2.802   1.904  16.082 -1.4882 -0.6865 -0.0131
 3374TIP3   OH231612   0.366   5.319   1.509  0.0061 -0.0555 -0.0575
 3374TIP3    H131613   0.315   5.272   1.575  0.4099 -1.1119 -0.4893
 3374TIP3    H231614   0.355   5.411   1.532  0.0356 -0.3949  1.4097
 3375TIP3   OH231615   1.038   1.381  14.965  0.5751 -0.0493 -0.2259
 3375TIP3    H131616   1.052   1.311  15.029 -0.4290 -0.0781 -0.0235
 3375TIP3    H231617   0.993   1.338  14.892  1.6111  0.0049 -0.9313
 3376TIP3   OH231618   5.251   2.312  11.382 -0.1630  0.1750 -0.2856
 3376TIP3    H131619   5.180   2.250  11.399 -0.7758  0.7242 -0.7620
 3376TIP3    H231620   5.307   2.269  11.318  0.5002 -0.6703  0.8203
 3377TIP3   OH231621   3.047   4.092   0.540  0.2680 -0.2771 -0.5180
 3377TIP3    H131622   3.047   4.006   0.497  0.3932 -0.2200 -0.6336
 3377TIP3    H231623   2.954   4.114   0.547  0.1880  1.4791 -4.3405
 3378TIP3   OH231624   0.919   2.398  14.282 -0.0693  0.0489  0.4391
 3378TIP3    H131625   0.937   2.308  14.257  2.6791  1.1138 -2.0809
 3378TIP3    H231626   0.847   2.425  14.226  1.4945  0.3707 -1.5362
 3379TIP3   OH231627   2.708   1.809   3.708  0.3084  0.8205 -0.1344
 3379TIP3    H131628   2.794   1.851   3.707  0.4910  0.4760 -1.5897
 3379TIP3    H231629   2.724   1.722   3.744  0.6584  0.6256 -0.7385
 3380TIP3   OH231630   6.065   4.249  10.714  0.1786  0.2759 -0.6334
 3380TIP3    H131631   6.109   4.205  10.642 -0.5589  0.0733 -0.9724
 3380TIP3    H231632   6.012   4.181  10.755 -0.4706  0.6962 -0.7573
 3381TIP3   OH231633   5.870   3.523   0.436 -0.5717  0.1987 -0.7016
 3381TIP3    H131634   5.909   3.494   0.354  0.9782  0.1821  0.0158
 3381TIP3    H231635   5.785   3.479   0.439  0.9275 -2.9296 -0.4965
 3382TIP3   OH231636   3.345   6.695   2.467  0.1338 -0.3357 -0.3537
 3382TIP3    H131637   3.361   6.788   2.449  1.4208 -0.1377  1.5370
 3382TIP3    H231638   3.407   6.649   2.409  1.6665  0.1410  0.8284
 3383TIP3   OH231639   6.676   2.140   5.504 -0.7786  0.0808  0.3207
 3383TIP3    H131640   6.747   2.103   5.557 -1.5195 -0.9552  0.6325
 3383TIP3    H231641   6.596   2.108   5.546 -1.4641  1.5731  0.2373
 3384TIP3   OH231642   2.281   1.686  15.270  0.0166  0.3156  0.1932
 3384TIP3    H131643   2.368   1.718  15.295  0.2231 -0.6400  0.7571
 3384TIP3    H231644   2.222   1.759  15.289  0.7328  1.1025 -0.5316
 3385TIP3   OH231645   3.427   2.534   2.537  0.2366 -0.6059  0.6529
 3385TIP3    H131646   3.337   2.558   2.512  1.1166  0.6078 -1.6771
 3385TIP3    H231647   3.429   2.439   2.529 -0.4619 -0.5260 -0.8458
 3386TIP3   OH231648   5.869   4.331   2.731  0.2705  0.5020 -0.0525
 3386TIP3    H131649   5.860   4.416   2.774  2.0590  1.4621 -1.4326
 3386TIP3    H231650   5.868   4.352   2.637 -3.0790 -1.4560 -0.6044
 3387TIP3   OH231651   6.385   1.363   6.242  0.1799  0.1871 -0.0030
 3387TIP3    H131652   6.387   1.430   6.311  1.4808  0.5257 -0.3411
 3387TIP3    H231653   6.312   1.306   6.266 -2.2455  2.7231 -0.6697
 3388TIP3   OH231654   3.812   1.168  11.195 -0.5721  0.0980  0.7499
 3388TIP3    H131655   3.770   1.203  11.115  0.9119  0.6924  0.1971
 3388TIP3    H231656   3.740   1.129  11.244 -2.0307  2.1812  0.4457
 3389TIP3   OH231657   1.179   0.794   4.776 -0.1370  0.0226 -0.4009
 3389TIP3    H131658   1.199   0.880   4.813 -3.0166  0.3685  0.6804
 3389TIP3    H231659   1.122   0.813   4.701 -2.5753 -0.8508  1.0947
 3390TIP3   OH231660   5.650   4.428   0.013  0.2104 -0.6581 -0.2247
 3390TIP3    H131661   5.604   4.375  -0.052 -0.8973 -1.6427  1.3144
 3390TIP3    H231662   5.668   4.369   0.085 -0.9769  1.0087  1.5311
 3391TIP3   OH231663   4.990   3.323   2.325 -0.1208 -0.0174 -0.4236
 3391TIP3    H131664   5.026   3.298   2.240  0.3087  0.2902 -0.3331
 3391TIP3    H231665   4.949   3.408   2.309  0.8063  0.5015 -0.1078
 3392TIP3   OH231666   3.512   3.309  13.446  0.2322 -0.2225 -0.0446
 3392TIP3    H131667   3.603   3.325  13.468 -0.1041  1.1193  0.4889
 3392TIP3    H231668   3.515   3.259  13.364  1.4675 -2.9498  1.5251
 3393TIP3   OH231669   5.311   5.783  16.056  0.2956 -0.0062 -0.5945
 3393TIP3    H131670   5.267   5.725  15.993  1.0580 -0.1375 -1.0261
 3393TIP3    H231671   5.350   5.724  16.120 -0.9597  0.1524  0.3453
 3394TIP3   OH231672   2.181   3.033  16.466  0.0002 -0.2049  0.4562
 3394TIP3    H131673   2.213   3.020  16.555  0.3078  0.7112  0.4898
 3394TIP3    H231674   2.152   2.946  16.438  3.6742 -1.4092 -0.0668
 3395TIP3   OH231675   4.497   5.067  13.589  0.3228  0.1498 -0.3219
 3395TIP3    H131676   4.455   5.045  13.507 -3.3417 -0.1840  1.4481
 3395TIP3    H231677   4.473   5.158  13.605 -0.0815 -0.1522  0.9301
 3396TIP3   OH231678   6.336   0.582   1.130 -0.2079  0.2402 -0.1832
 3396TIP3    H131679   6.368   0.579   1.040 -0.0432 -0.9640 -0.0986
 3396TIP3    H231680   6.244   0.557   1.123 -0.4854  1.2204 -0.1345
 3397TIP3   OH231681   2.551   0.569   5.329  0.3382  0.6264 -0.0838
 3397TIP3    H131682   2.617   0.515   5.372  0.7674  1.4879  0.3668
 3397TIP3    H231683   2.568   0.558   5.235 -0.6049 -1.2689 -0.0742
 3398TIP3   OH231684   4.258   1.811   2.849  0.6053  0.0967  0.4945
 3398TIP3    H131685   4.233   1.827   2.758  1.2635  2.5300  0.6612
 3398TIP3    H231686   4.181   1.838   2.899 -0.4524 -2.9179  0.7008
 3399TIP3   OH231687   4.246   2.112   4.187  0.1257 -0.3514  0.1736
 3399TIP3    H131688   4.312   2.166   4.230  1.2965 -0.6203 -1.1920
 3399TIP3    H231689   4.169   2.168   4.181 -0.2263 -0.4060  2.8356
 3400TIP3   OH231690   1.784   6.401  15.427 -0.1988 -0.1148  0.1334
 3400TIP3    H131691   1.860   6.354  15.460 -0.5176 -0.5945  0.1977
 3400TIP3    H231692   1.775   6.371  15.336 -0.8283 -0.7185  0.3955
 3401TIP3   OH231693   5.458   2.248   1.884  0.3445  0.2078 -0.2948
 3401TIP3    H131694   5.418   2.294   1.810 -1.9173 -1.6960 -0.3617
 3401TIP3    H231695   5.494   2.167   1.846 -0.0511 -0.3718  0.5272
 3402TIP3   OH231696   6.653   4.241   1.955  0.2382 -0.8969 -0.2851
 3402TIP3    H131697   6.678   4.309   1.893 -0.7564 -1.1342 -0.9720
 3402TIP3    H231698   6.559   4.228   1.940 -0.5634  0.5135  2.6981
 3403TIP3   OH231699   3.147   0.245  16.848 -1.0609 -0.1213 -0.5554
 3403TIP3    H131700   3.105   0.227  16.764  0.7556  0.5536 -1.6684
 3403TIP3    H231701   3.240   0.226  16.833 -0.5951  0.6180  1.1152
 3404TIP3   OH231702   1.803   6.293   4.939 -0.3741 -0.4651 -0.0760
 3404TIP3    H131703   1.834   6.248   4.860  2.2979  1.1834 -0.0675
 3404TIP3    H231704   1.725   6.340   4.910  0.8795  0.5933 -1.9478
 3405TIP3   OH231705   0.985   6.030  12.888  0.0472 -1.0801  0.8566
 3405TIP3    H131706   1.064   6.030  12.834  1.0080 -1.9942  2.1933
 3405TIP3    H231707   0.928   5.964  12.848 -0.4852  0.2278 -0.6595
 3406TIP3   OH231708   1.252   4.222  17.118  0.4690  0.4753  0.3766
 3406TIP3    H131709   1.329   4.203  17.172  0.3072 -0.8525  0.1746
 3406TIP3    H231710   1.286   4.277  17.047  0.8425  1.5109  1.3223
 3407TIP3   OH231711   4.109   0.988   4.108 -1.0389 -0.8449 -0.0852
 3407TIP3    H131712   4.177   1.037   4.154 -0.4391 -1.8442  0.1077
 3407TIP3    H231713   4.028   1.035   4.129 -0.2615  1.4847 -1.8332
 3408TIP3   OH231714   0.069   0.128  11.753  0.3136 -0.1353 -0.2245
 3408TIP3    H131715   0.025   0.051  11.790  0.4847  0.9882  2.5267
 3408TIP3    H231716   0.021   0.146  11.672  0.0753 -2.9099 -0.8063
 3409TIP3   OH231717   4.014   2.192  13.487 -0.4582  0.2134  0.5595
 3409TIP3    H131718   4.079   2.253  13.453  0.0991  0.2561  1.6545
 3409TIP3    H231719   3.967   2.162  13.410  1.5073 -0.5811 -0.3904
 3410TIP3   OH231720   4.331   3.882  10.763 -0.4519 -0.2988  0.2323
 3410TIP3    H131721   4.322   3.826  10.686 -1.8108  0.2989 -0.0634
 3410TIP3    H231722   4.271   3.955  10.747 -0.7241 -0.1377  1.8373
 3411TIP3   OH231723   4.764   3.047  13.498  0.2461  0.1680 -0.3189
 3411TIP3    H131724   4.837   2.985  13.490 -0.6803 -0.9978  0.0588
 3411TIP3    H231725   4.708   3.010  13.565 -2.1594 -0.4691 -2.5233
 3412TIP3   OH231726   2.643   6.749   6.683  0.1563 -0.1280 -0.1209
 3412TIP3    H131727   2.608   6.699   6.609  1.5655 -2.8566  0.9183
 3412TIP3    H231728   2.704   6.811   6.642  0.6357 -1.3224 -1.3188
 3413TIP3   OH231729   3.796   0.076  16.938  0.4972  0.2653 -0.0260
 3413TIP3    H131730   3.812   0.063  16.845  1.4771 -0.4507  0.2163
 3413TIP3    H231731   3.729   0.011  16.961 -1.1105  1.6813 -0.5820
 3414TIP3   OH231732   6.689   0.072  15.353 -0.3150  0.0573  0.3698
 3414TIP3    H131733   6.595   0.090  15.343  0.2818  2.8787 -0.9609
 3414TIP3    H231734   6.715   0.121  15.430  0.4632  1.1809 -0.5760
 3415TIP3   OH231735   3.194   2.314   5.278  0.0771 -0.1332 -0.0738
 3415TIP3    H131736   3.221   2.382   5.340  0.0733  0.3744 -0.6135
 3415TIP3    H231737   3.115   2.277   5.316  0.5140 -0.3749  0.6137
 3416TIP3   OH231738   2.238   3.206   5.419  0.4572 -0.1005  0.1465
 3416TIP3    H131739   2.256   3.284   5.470  0.8917  0.2593 -0.5436
 3416TIP3    H231740   2.158   3.170   5.457 -0.1407  1.0675  0.0242
 3417TIP3   OH231741   3.643   2.968  17.111  0.0226 -0.5386 -0.0798
 3417TIP3    H131742   3.578   3.036  17.129 -0.7530 -1.6383  1.4503
 3417TIP3    H231743   3.707   3.011  17.054 -1.5365  0.8511 -0.8695
 3418TIP3   OH231744   1.941   0.152   1.168  0.0635 -0.3255  0.2226
 3418TIP3    H131745   1.983   0.235   1.190 -0.3718 -0.4580  1.6640
 3418TIP3    H231746   1.869   0.144   1.230 -0.1007 -1.6284 -0.1020
 3419TIP3   OH231747   5.829   2.298   4.448 -0.5930 -0.6937 -0.2616
 3419TIP3    H131748   5.761   2.365   4.454 -1.3191 -1.4726  0.5048
 3419TIP3    H231749   5.827   2.270   4.356  0.3513  0.9436 -0.8219
 3420TIP3   OH231750   5.017   2.975  11.339 -0.3084 -0.5701 -0.1390
 3420TIP3    H131751   4.941   2.963  11.283 -1.8992  2.4586  1.1704
 3420TIP3    H231752   5.087   3.002  11.280 -1.7284  1.7467 -0.8720
 3421TIP3   OH231753   3.195   0.580  11.732 -0.1712 -0.1960  0.1337
 3421TIP3    H131754   3.185   0.626  11.815  0.4328 -0.4837  0.3760
 3421TIP3    H231755   3.268   0.624  11.688 -0.8331  0.3035 -0.4956
 3422TIP3   OH231756   3.103   4.398  15.182 -0.2137 -0.4210 -0.0827
 3422TIP3    H131757   3.068   4.323  15.230 -1.0558  0.1254  0.1906
 3422TIP3    H231758   3.026   4.454  15.166  0.1393 -0.3478 -1.6431
 3423TIP3   OH231759   3.945   4.954  16.433 -0.1005 -0.0588 -0.3936
 3423TIP3    H131760   4.014   4.903  16.390 -0.9661 -0.2239 -1.6203
 3423TIP3    H231761   3.896   4.889  16.484  1.1486  0.1926  1.2206
 3424TIP3   OH231762   4.696   0.907  13.784  0.0312  0.0533  0.2754
 3424TIP3    H131763   4.614   0.859  13.797  0.8997 -0.9903  2.4902
 3424TIP3    H231764   4.701   0.966  13.859  1.5404 -0.3074  0.4981
 3425TIP3   OH231765   0.695   5.906  14.114 -0.1280 -0.2692  0.8027
 3425TIP3    H131766   0.704   5.811  14.114 -0.4885 -0.3072  0.2311
 3425TIP3    H231767   0.744   5.935  14.037 -0.5308 -0.0401  0.6335
 3426TIP3   OH231768   3.511   6.039   6.535  0.1390 -0.0450  0.5060
 3426TIP3    H131769   3.604   6.023   6.523  0.3181  1.3267 -0.1427
 3426TIP3    H231770   3.479   6.062   6.447 -1.1016 -1.8031  0.4443
 3427TIP3   OH231771   1.106   6.648   3.326  0.1699  0.5986  0.0241
 3427TIP3    H131772   1.039   6.675   3.263  0.8417 -0.2262 -1.0902
 3427TIP3    H231773   1.083   6.558   3.348 -0.1866  0.9577  1.1613
 3428TIP3   OH231774   6.629   3.464  12.716 -0.5614 -0.0753  0.0314
 3428TIP3    H131775   6.663   3.507  12.637 -1.3948  0.9826  0.2328
 3428TIP3    H231776   6.566   3.400  12.683 -0.6817  0.1487 -0.1783
 3429TIP3   OH231777   5.584   0.088  14.361  0.2648  0.0051  0.6377
 3429TIP3    H131778   5.532   0.082  14.281 -1.0723  0.3709  1.4622
 3429TIP3    H231779   5.632   0.006  14.364  1.3697  0.5036 -1.2069
 3430TIP3   OH231780   0.371   5.314  15.417  0.4571 -0.0882  0.5373
 3430TIP3    H131781   0.293   5.259  15.412  0.1950  0.2957  0.3680
 3430TIP3    H231782   0.345   5.397  15.378  1.5266 -0.5930 -1.4015
 3431TIP3   OH231783   6.099   5.600  11.913  0.3994 -0.4198 -0.1683
 3431TIP3    H131784   6.096   5.626  11.821 -1.6722 -2.8700 -0.9241
 3431TIP3    H231785   6.099   5.683  11.961  0.2307  0.9413 -2.3685
 3432TIP3   OH231786   0.311   6.728  16.004 -0.0216  0.0037  0.5421
 3432TIP3    H131787   0.309   6.763  16.094  2.4619  0.6998  0.4038
 3432TIP3    H231788   0.271   6.642  16.011 -0.4165  0.2890  2.2119
 3433TIP3   OH231789   0.209   2.950  10.906 -0.3981  0.3687 -0.3873
 3433TIP3    H131790   0.195   2.864  10.868 -1.2843  0.4075 -0.1587
 3433TIP3    H231791   0.164   2.947  10.990  0.1435  0.8313 -0.0744
 3434TIP3   OH231792   0.795   4.876   1.499 -0.0719  0.0818 -0.4933
 3434TIP3    H131793   0.794   4.971   1.488 -0.4178  0.6002  2.9308
 3434TIP3    H231794   0.887   4.854   1.512 -0.1712  0.3118  0.7461
 3435TIP3   OH231795   4.059   4.795  13.704  0.4208  0.1207 -0.2533
 3435TIP3    H131796   4.083   4.862  13.640 -1.4238  1.9238  0.8354
 3435TIP3    H231797   4.096   4.826  13.786 -2.7406  1.3822  0.8332
 3436TIP3   OH231798   5.087   4.019   0.048 -0.1214 -0.4715  0.1707
 3436TIP3    H131799   5.036   3.951   0.004 -0.0539  0.2221 -1.0226
 3436TIP3    H231800   5.071   4.098  -0.003  1.9764 -0.1860 -0.1402
 3437TIP3   OH231801   5.131   5.542   4.212  0.1995 -0.2520  0.5562
 3437TIP3    H131802   5.152   5.466   4.267  2.3841  0.4793  0.8020
 3437TIP3    H231803   5.206   5.552   4.154 -0.4664  1.1762 -0.1196
 3438TIP3   OH231804   3.622   4.633  11.255  0.1309 -0.0354 -0.6592
 3438TIP3    H131805   3.533   4.627  11.290  0.4019 -2.9520 -0.2462
 3438TIP3    H231806   3.613   4.684  11.175 -1.8121  0.2019 -0.3397
 3439TIP3   OH231807   2.907   4.775   1.843 -0.3358 -0.0882 -0.7237
 3439TIP3    H131808   2.958   4.695   1.849 -1.5299 -0.7857  0.6401
 3439TIP3    H231809   2.850   4.774   1.920  0.4501  2.6634  0.0217
 3440TIP3   OH231810   5.618   0.100   3.495  0.2145 -0.1085  0.1899
 3440TIP3    H131811   5.541   0.059   3.455  1.4939 -0.5969 -1.9318
 3440TIP3    H231812   5.670   0.131   3.421  2.0714  0.1857  1.5482
 3441TIP3   OH231813   5.048   4.609   1.467  0.4468  0.6745 -0.1804
 3441TIP3    H131814   5.116   4.571   1.412  0.5883  1.2505 -0.4036
 3441TIP3    H231815   5.094   4.667   1.527  0.2006  0.7180 -0.0310
 3442TIP3   OH231816   4.440   1.784   4.459 -0.0381  0.0764  0.1505
 3442TIP3    H131817   4.466   1.865   4.504  0.9352  0.3478 -0.8575
 3442TIP3    H231818   4.396   1.814   4.380 -2.7209 -0.3857  1.3458
 3443TIP3   OH231819   2.309   6.195  12.731 -0.2210 -0.5693 -0.2042
 3443TIP3    H131820   2.340   6.146  12.655  1.0409 -0.6438  0.3446
 3443TIP3    H231821   2.236   6.143  12.765 -0.5062 -0.7655 -1.0823
 3444TIP3   OH231822   1.037   2.066  11.517 -0.4857 -0.3639  0.6617
 3444TIP3    H131823   1.048   1.971  11.519  0.3215 -0.3508 -1.1435
 3444TIP3    H231824   1.121   2.101  11.546  0.8860 -0.2709 -2.9434
 3445TIP3   OH231825   0.797   2.627  16.707  0.2158 -0.4999 -0.7021
 3445TIP3    H131826   0.739   2.585  16.643  0.4284 -0.5207 -0.8811
 3445TIP3    H231827   0.862   2.673  16.654  1.8517 -2.5040 -0.5324
 3446TIP3   OH231828   2.954   1.223   6.187 -0.1475 -0.7256 -0.2535
 3446TIP3    H131829   2.865   1.233   6.222 -0.0281  1.1153 -0.3725
 3446TIP3    H231830   2.944   1.239   6.093  0.5507  1.5014 -0.0063
 3447TIP3   OH231831   0.722   4.430   0.764 -0.0908  0.7155  0.5284
 3447TIP3    H131832   0.731   4.430   0.669  2.1146 -1.8122  0.6074
 3447TIP3    H231833   0.763   4.512   0.792 -0.5990  1.3964 -0.6504
 3448TIP3   OH231834   2.047   3.542   3.328 -0.0119 -0.7500  0.8625
 3448TIP3    H131835   2.082   3.598   3.397  0.2477 -2.0122  1.8033
 3448TIP3    H231836   2.069   3.586   3.246  0.2656  0.4436  1.5655
 3449TIP3   OH231837   5.921   4.728  10.847 -0.1785  0.0629  0.2521
 3449TIP3    H131838   5.828   4.720  10.866 -0.6108 -0.7575 -1.8826
 3449TIP3    H231839   5.946   4.643  10.810  0.4976  1.3438 -2.5663
 3450TIP3   OH231840   2.735   0.139   7.009  0.0064  0.9079 -0.2629
 3450TIP3    H131841   2.647   0.114   6.982  0.2089  0.1146 -0.2055
 3450TIP3    H231842   2.781   0.158   6.927  0.9470 -2.5543 -0.6761
 3451TIP3   OH231843   5.658   4.569   5.217  0.0368 -0.7404  0.0022
 3451TIP3    H131844   5.715   4.632   5.174  0.1197 -0.3051  0.7283
 3451TIP3    H231845   5.569   4.601   5.198  0.0690 -0.6688 -0.0290
 3452TIP3   OH231846   0.816   3.895   4.082  0.3816  0.0906  0.0351
 3452TIP3    H131847   0.880   3.957   4.048 -0.3145  0.5068 -0.5214
 3452TIP3    H231848   0.749   3.949   4.124 -0.6441 -0.2153 -1.1523
 3453TIP3   OH231849   3.473   2.000  15.296 -0.1286 -0.0561 -0.8503
 3453TIP3    H131850   3.408   1.938  15.329  0.0041  0.6950  0.9584
 3453TIP3    H231851   3.540   2.004  15.364  0.8278  0.6627 -1.7836
 3454TIP3   OH231852   2.639   1.868  13.865 -0.6680 -0.1515  0.2010
 3454TIP3    H131853   2.548   1.839  13.868 -0.4778 -0.7715  0.0621
 3454TIP3    H231854   2.674   1.848  13.951 -0.3710 -0.8872 -0.0875
 3455TIP3   OH231855   1.229   0.117   0.714  0.0984  0.3013  0.0588
 3455TIP3    H131856   1.232   0.074   0.799  2.8635  0.1502 -0.0079
 3455TIP3    H231857   1.284   0.194   0.724 -0.4339  0.8905 -1.2927
 3456TIP3   OH231858   5.658   5.922  14.858  0.1696 -0.4417 -0.9300
 3456TIP3    H131859   5.614   5.840  14.838  0.6953 -0.8440 -0.4802
 3456TIP3    H231860   5.735   5.924  14.801  0.1002 -0.2086 -1.0174
 3457TIP3   OH231861   0.207   0.197   2.827  0.6514 -0.0796 -0.1383
 3457TIP3    H131862   0.247   0.201   2.739 -0.0228  1.8854 -0.3964
 3457TIP3    H231863   0.149   0.272   2.831  0.3072 -0.3902  1.8617
 3458TIP3   OH231864   6.085   0.722  12.211  0.5448 -0.1251 -0.3474
 3458TIP3    H131865   6.136   0.766  12.279 -0.0885  0.2225 -0.0821
 3458TIP3    H231866   5.999   0.764  12.216  0.3748 -0.3768 -1.0941
 3459TIP3   OH231867   4.729   1.792   1.823  0.6164 -0.1369  0.0946
 3459TIP3    H131868   4.686   1.707   1.835 -0.6775  0.6398  1.1880
 3459TIP3    H231869   4.814   1.782   1.867  1.2771 -1.4049 -1.3405
 3460TIP3   OH231870   2.636   3.947   5.543  0.6839 -0.1695  0.0294
 3460TIP3    H131871   2.690   3.916   5.616  1.2857  1.9202  0.5494
 3460TIP3    H231872   2.662   3.892   5.469  0.0497 -2.3561  1.3287
 3461TIP3   OH231873   1.435   1.182  16.611  0.1479  0.2966 -0.2178
 3461TIP3    H131874   1.526   1.169  16.637  0.6128  0.2054 -1.7649
 3461TIP3    H231875   1.427   1.136  16.527 -0.9339  1.4526 -0.7912
 3462TIP3   OH231876   1.319   6.638  15.528  0.2763  0.2076 -0.1495
 3462TIP3    H131877   1.245   6.578  15.538  0.9119 -0.7942 -1.2611
 3462TIP3    H231878   1.397   6.582  15.539  0.8808  1.0990  0.2245
 3463TIP3   OH231879   0.447   3.274   3.769  0.3372  0.9858 -0.6111
 3463TIP3    H131880   0.437   3.191   3.815 -0.3667  1.8197  0.8603
 3463TIP3    H231881   0.366   3.285   3.720  0.5901  0.6338 -1.1091
 3464TIP3   OH231882   6.470   3.164  14.195 -0.2556 -0.3637  0.3820
 3464TIP3    H131883   6.438   3.100  14.131 -3.5646 -0.0719  1.5423
 3464TIP3    H231884   6.510   3.233  14.142 -0.5540 -1.3345 -1.1728
 3465TIP3   OH231885   2.069   4.251  12.732 -0.2941 -0.5102 -0.0749
 3465TIP3    H131886   2.007   4.208  12.673 -1.6777  1.1225  0.1252
 3465TIP3    H231887   2.079   4.339  12.697  0.7005 -0.2479  0.8141
 3466TIP3   OH231888   6.147   6.721  15.764  0.4530  0.4135 -0.0940
 3466TIP3    H131889   6.233   6.757  15.785  0.1832  0.2856  1.3411
 3466TIP3    H231890   6.087   6.795  15.775  0.0348 -0.1551  1.7993
 3467TIP3   OH231891   6.496   6.053  12.865  0.4860  0.2716 -0.3184
 3467TIP3    H131892   6.501   6.118  12.795 -1.7857  0.8542 -0.0334
 3467TIP3    H231893   6.470   6.103  12.942 -0.7154 -0.8630  0.0533
 3468TIP3   OH231894   4.624   0.879   4.481 -0.5060  0.6011  0.2000
 3468TIP3    H131895   4.685   0.827   4.428 -1.7989  1.2867 -2.0945
 3468TIP3    H231896   4.553   0.818   4.502 -1.6218  1.1297 -1.7950
 3469TIP3   OH231897   5.343   2.924   0.732 -0.1745  0.3868 -0.0344
 3469TIP3    H131898   5.415   2.866   0.707  0.1727  0.1687  1.3771
 3469TIP3    H231899   5.264   2.878   0.702 -0.0569 -1.7705  2.5857
 3470TIP3   OH231900   2.732   2.788  13.621  0.0068  0.4530  0.4527
 3470TIP3    H131901   2.679   2.737  13.682  1.0309  0.4684  1.3887
 3470TIP3    H231902   2.703   2.879  13.634 -1.0308  0.2680 -0.4080
 3471TIP3   OH231903   5.120   6.304  11.240 -0.9468  0.5579  0.1745
 3471TIP3    H131904   5.168   6.293  11.157 -1.9442 -1.0587 -0.2160
 3471TIP3    H231905   5.124   6.399  11.256  1.4119  0.6193 -0.3943
 3472TIP3   OH231906   3.616   2.442  10.839  0.1092  0.3945  0.4072
 3472TIP3    H131907   3.611   2.533  10.810  1.0743  0.0479 -0.9069
 3472TIP3    H231908   3.704   2.433  10.875 -0.1108  0.0706  0.8723
 3473TIP3   OH231909   5.508   0.866  12.843  0.7730 -0.4679 -0.3394
 3473TIP3    H131910   5.548   0.844  12.760 -0.2151  0.0367 -0.9774
 3473TIP3    H231911   5.433   0.807  12.850 -0.6715  1.1655 -1.0837
 3474TIP3   OH231912   1.894   6.556   3.037  0.4155  0.1441 -1.0530
 3474TIP3    H131913   1.816   6.547   3.091  1.7376  0.4332  0.9865
 3474TIP3    H231914   1.861   6.587   2.952 -1.4575  2.5570  0.4509
 3475TIP3   OH231915   3.609   1.502  16.289 -0.3736 -0.0323  0.1927
 3475TIP3    H131916   3.622   1.532  16.379 -0.6961 -2.5032  1.1372
 3475TIP3    H231917   3.695   1.508  16.249 -0.0555  0.3633  0.9105
 3476TIP3   OH231918   5.470   5.202   2.624  0.4155 -0.2344 -0.6345
 3476TIP3    H131919   5.473   5.116   2.582 -0.0974 -0.3974 -0.3438
 3476TIP3    H231920   5.397   5.246   2.582  0.8429  0.1657 -0.9727
 3477TIP3   OH231921   4.799   6.612   0.460 -0.1173  0.0724 -0.1103
 3477TIP3    H131922   4.741   6.547   0.498 -0.2973 -0.2360 -0.8854
 3477TIP3    H231923   4.815   6.674   0.530 -2.2704  0.7817 -0.1727
 3478TIP3   OH231924   0.710   5.023  13.136  0.1500 -0.3165 -0.6380
 3478TIP3    H131925   0.631   4.972  13.122 -0.2770  0.0242  0.4795
 3478TIP3    H231926   0.776   4.979  13.083 -0.4454 -1.4323 -0.4798
 3479TIP3   OH231927   6.665   5.475   2.218  0.3881  0.3326 -0.1641
 3479TIP3    H131928   6.569   5.470   2.215  0.4450 -1.4074 -3.0292
 3479TIP3    H231929   6.687   5.547   2.160  0.8156 -0.1338 -0.5927
 3480TIP3   OH231930   6.290   2.325   0.978 -0.0574 -0.2946 -0.2269
 3480TIP3    H131931   6.290   2.302   1.071  1.5206 -0.3892 -0.2271
 3480TIP3    H231932   6.252   2.413   0.976  0.6157  0.0401  0.6258
 3481TIP3   OH231933   3.477   0.185   4.960  0.5795 -0.3330  0.0757
 3481TIP3    H131934   3.466   0.102   5.007  0.0900 -0.4419 -0.2254
 3481TIP3    H231935   3.521   0.243   5.022  0.6016 -0.7078  0.4102
 3482TIP3   OH231936   5.842   2.993   4.756  0.1615 -0.1524 -0.2119
 3482TIP3    H131937   5.899   3.051   4.706 -1.0614  1.4631  0.1927
 3482TIP3    H231938   5.897   2.961   4.828  0.6206  1.2138  0.0613
 3483TIP3   OH231939   6.722   5.474  10.419 -0.0563 -0.2402 -0.1613
 3483TIP3    H131940   6.766   5.461  10.503 -1.0804 -0.0921  0.4116
 3483TIP3    H231941   6.748   5.397  10.367  0.0286 -0.6870  0.5299
 3484TIP3   OH231942   2.000   0.158  15.219  0.6204  0.5630 -0.8567
 3484TIP3    H131943   1.946   0.094  15.265  0.9522  0.8921  0.0148
 3484TIP3    H231944   1.978   0.146  15.127  0.5587 -0.6934 -0.7003
 3485TIP3   OH231945   2.502   5.027  14.420 -0.4343 -0.1357  0.2654
 3485TIP3    H131946   2.588   5.022  14.463 -1.4217 -1.0374  2.2884
 3485TIP3    H231947   2.461   5.104  14.458 -0.3738  0.5699 -1.0566
 3486TIP3   OH231948   0.260   5.165   4.722 -0.2345 -0.0874  0.1171
 3486TIP3    H131949   0.268   5.163   4.817  1.3760 -2.5584  0.0149
 3486TIP3    H231950   0.283   5.254   4.697 -3.0216  1.3684  2.1115
 3487TIP3   OH231951   6.175   6.408  16.036  0.0412 -0.1204 -0.0592
 3487TIP3    H131952   6.240   6.413  16.106 -0.3349 -0.2027  0.3019
 3487TIP3    H231953   6.225   6.414  15.955  0.6088 -1.3326  0.1865
 3488TIP3   OH231954   5.112   1.650   5.063  0.4703  0.0319 -0.2674
 3488TIP3    H131955   5.181   1.636   5.128  1.1606 -0.7635 -1.1394
 3488TIP3    H231956   5.038   1.683   5.113  0.2959 -2.4697  1.2891
 3489TIP3   OH231957   1.611   2.990   0.930 -0.3607 -0.6063 -0.4921
 3489TIP3    H131958   1.673   2.918   0.922  0.7977  0.1158  1.3137
 3489TIP3    H231959   1.533   2.951   0.971 -0.8184 -1.3481 -2.0160
 3490TIP3   OH231960   1.146   4.871   2.353 -1.0111  0.0227  0.0501
 3490TIP3    H131961   1.086   4.889   2.280  1.1976  1.3951 -1.5758
 3490TIP3    H231962   1.205   4.804   2.319  0.2104  0.8621  0.4416
 3491TIP3   OH231963   5.220   1.363  15.009 -0.0585  0.4457 -0.3785
 3491TIP3    H131964   5.129   1.370  14.978  0.3295 -0.7065 -1.9070
 3491TIP3    H231965   5.213   1.332  15.099 -1.1852 -0.0265 -0.6140
 3492TIP3   OH231966   4.877   3.198  12.507  0.0093 -0.1442 -0.6948
 3492TIP3    H131967   4.809   3.266  12.511  1.1325  0.9607  0.3553
 3492TIP3    H231968   4.927   3.220  12.429  2.3208  2.2620  1.2893
 3493TIP3   OH231969   1.809   1.925   5.917 -0.0810  0.6768  0.2815
 3493TIP3    H131970   1.813   1.958   6.007  0.9319  1.4575 -0.0244
 3493TIP3    H231971   1.815   1.830   5.926  2.1212  0.8106  1.0054
 3494TIP3   OH231972   6.589   1.327  13.975  0.3021 -0.0717  0.0217
 3494TIP3    H131973   6.504   1.354  13.940  0.2530 -1.1695 -0.7930
 3494TIP3    H231974   6.618   1.400  14.030 -1.1957  0.2794  0.3641
 3495TIP3   OH231975   3.795   6.046  13.821 -0.0272  0.0355 -0.3190
 3495TIP3    H131976   3.772   6.119  13.878  0.5524  1.0041 -1.2879
 3495TIP3    H231977   3.832   5.980  13.880  0.0472  0.7877  0.4942
 3496TIP3   OH231978   1.397   1.753   3.629 -0.2457 -0.2758  0.2305
 3496TIP3    H131979   1.327   1.716   3.576 -0.8619  0.4345  0.5252
 3496TIP3    H231980   1.412   1.840   3.592  1.8570 -1.1092 -1.0785
 3497TIP3   OH231981   4.734   5.272   4.819  0.1616 -0.0875  0.4093
 3497TIP3    H131982   4.712   5.318   4.900 -1.0201  0.4925 -0.2021
 3497TIP3    H231983   4.809   5.319   4.784 -0.5673  0.9411  0.1765
 3498TIP3   OH231984   1.670   5.766  17.229 -0.7326  0.5389 -0.1125
 3498TIP3    H131985   1.600   5.729  17.283 -0.2688  1.2418  1.0015
 3498TIP3    H231986   1.714   5.690  17.191 -0.1955 -0.0644  1.6238
 3499TIP3   OH231987   3.925   4.427  12.160 -0.6133  0.3088 -0.2197
 3499TIP3    H131988   3.998   4.485  12.182 -0.1371 -0.3216 -0.1080
 3499TIP3    H231989   3.906   4.447  12.068  0.0398  0.1386 -0.4052
 3500TIP3   OH231990   5.317   4.930   1.791 -0.1552  0.1709 -0.0821
 3500TIP3    H131991   5.390   4.979   1.753 -0.0332  0.1851  0.1712
 3500TIP3    H231992   5.345   4.838   1.789 -0.0439  0.1964  0.2023
 3501TIP3   OH231993   6.138   4.815   5.596  0.1387 -1.0546  0.6791
 3501TIP3    H131994   6.092   4.763   5.662 -1.8450  0.6752  0.7774
 3501TIP3    H231995   6.152   4.900   5.638 -0.3233 -0.2176 -0.7855
 3502TIP3   OH231996   4.765   3.469   3.392 -0.3387 -1.0340 -0.1886
 3502TIP3    H131997   4.735   3.464   3.483 -1.2370 -2.7280 -0.5342
 3502TIP3    H231998   4.858   3.491   3.399 -0.8354  0.9690  1.0273
 3503TIP3   OH231999   2.279   1.416  15.592  0.0609 -0.0211  0.6734
 3503TIP3    H132000   2.302   1.387  15.680  0.5232 -2.0255 -0.0529
 3503TIP3    H232001   2.327   1.498  15.580  1.8410 -0.9012  1.4726
 3504TIP3   OH232002   1.695   0.959   3.231 -0.0930 -0.4549  0.6363
 3504TIP3    H132003   1.745   0.880   3.250  0.9864 -0.0775 -0.4646
 3504TIP3    H232004   1.738   0.996   3.154 -2.3311 -0.3230 -0.6303
 3505TIP3   OH232005   5.566   6.644  12.231 -0.0395  0.0590  0.3557
 3505TIP3    H132006   5.653   6.631  12.268 -0.3695 -1.6426  0.6215
 3505TIP3    H232007   5.577   6.625  12.137 -0.4952 -2.3138  0.7228
 3506TIP3   OH232008   2.195   5.335   0.899  0.2324 -0.3749  0.1368
 3506TIP3    H132009   2.102   5.343   0.877  0.4096 -0.1282 -0.5515
 3506TIP3    H232010   2.236   5.410   0.856  0.8801 -0.9865 -0.3245
 3507TIP3   OH232011   3.449   4.528  15.690 -0.0001 -0.0285 -0.6359
 3507TIP3    H132012   3.371   4.569  15.727  1.1340  1.5681  0.1094
 3507TIP3    H232013   3.454   4.561  15.600  0.3940  0.7578 -0.3353
 3508TIP3   OH232014   4.455   2.074  15.002  0.4332 -0.2991 -0.2406
 3508TIP3    H132015   4.463   2.001  14.940  0.0145 -0.9134  0.4215
 3508TIP3    H232016   4.546   2.094  15.026  0.5978 -0.0973 -0.9928
 3509TIP3   OH232017   2.087   3.694   3.088  0.3352  0.3939 -0.7209
 3509TIP3    H132018   2.037   3.731   3.015 -2.5793  1.4721  1.5729
 3509TIP3    H232019   2.132   3.769   3.127 -1.9334  0.8550  1.2496
 3510TIP3   OH232020   1.190   4.221   1.271  0.1360 -0.1538  0.2877
 3510TIP3    H132021   1.173   4.201   1.179 -0.7907 -2.1848  0.8424
 3510TIP3    H232022   1.155   4.309   1.283  0.0384  0.0423 -1.2308
 3511TIP3   OH232023   0.595   5.179   4.274 -0.0669 -0.4957  0.0166
 3511TIP3    H132024   0.549   5.234   4.338  2.1681  0.5025  0.8627
 3511TIP3    H232025   0.554   5.093   4.282 -0.1444 -0.2977  2.5233
 3512TIP3   OH232026   4.568   4.014  13.977  0.2227 -0.3456  0.3851
 3512TIP3    H132027   4.528   4.018  14.065 -0.8016 -0.7324 -0.0415
 3512TIP3    H232028   4.638   3.951  13.985  0.4734  0.0073  1.0562
 3513TIP3   OH232029   1.935   4.341   4.730  0.2626  0.1390  0.6593
 3513TIP3    H132030   1.840   4.329   4.730  0.2852 -2.9784 -4.4241
 3513TIP3    H232031   1.948   4.422   4.680  0.1960 -0.6717 -0.7186
 3514TIP3   OH232032   4.443   1.841  11.113  0.5112 -0.0841 -0.5466
 3514TIP3    H132033   4.481   1.927  11.097 -0.5295  0.2812 -1.1306
 3514TIP3    H232034   4.350   1.851  11.093  0.0958 -0.9755  0.7962
 3515TIP3   OH232035   5.271   3.787  11.461 -0.7799 -0.1064  0.6711
 3515TIP3    H132036   5.272   3.782  11.557  0.1856  1.2318  0.7541
 3515TIP3    H232037   5.283   3.696  11.433 -0.6505 -0.4690  1.8234
 3516TIP3   OH232038   5.404   6.085  11.732  0.3624  0.3712  0.4142
 3516TIP3    H132039   5.353   6.151  11.684  0.3776  0.8527  1.0475
 3516TIP3    H232040   5.471   6.135  11.777 -1.0323  0.2418  2.7782
 3517TIP3   OH232041   4.536   3.703   5.685  0.1118 -0.2238 -0.2976
 3517TIP3    H132042   4.603   3.709   5.753 -1.3397  3.1158  1.0587
 3517TIP3    H232043   4.462   3.661   5.729 -0.1983  0.2152 -0.4005
 3518TIP3   OH232044   4.282   6.462  14.031 -0.5054 -0.0011 -0.0315
 3518TIP3    H132045   4.242   6.530  14.085 -1.7301 -0.9515  0.3084
 3518TIP3    H232046   4.331   6.408  14.094 -0.4038 -0.0353 -0.1412
 3519TIP3   OH232047   0.912   6.018  11.842 -0.0875  0.2285  0.6794
 3519TIP3    H132048   0.965   5.957  11.894  0.6564  1.0013  0.8464
 3519TIP3    H232049   0.839   6.042  11.899 -0.4413 -0.5670  0.5775
 3520TIP3   OH232050   1.493   0.597  13.406  0.6933  0.1742 -0.2447
 3520TIP3    H132051   1.441   0.534  13.456  1.5580 -1.3715 -1.1870
 3520TIP3    H232052   1.430   0.647  13.355  0.0449 -0.9336 -0.5640
 3521TIP3   OH232053   5.045   2.674  14.542  0.1037 -0.4115 -0.1432
 3521TIP3    H132054   5.069   2.661  14.634  2.2665 -2.1397 -0.8676
 3521TIP3    H232055   4.965   2.623  14.531 -0.9205  0.8481  1.0168
 3522TIP3   OH232056   2.890   1.164  14.045 -0.0848  0.1106 -0.1039
 3522TIP3    H132057   2.964   1.152  14.105  0.7581  1.1712 -0.8762
 3522TIP3    H232058   2.876   1.078  14.007  0.1916 -0.2966  0.6818
 3523TIP3   OH232059   2.738   1.639  15.294 -0.3424 -0.2534 -0.0268
 3523TIP3    H132060   2.679   1.575  15.254 -0.0680 -0.0884 -0.7070
 3523TIP3    H232061   2.825   1.616  15.261 -0.1642  0.1206  0.1766
 3524TIP3   OH232062   1.268   3.568  11.164 -0.1226  0.1276 -0.3274
 3524TIP3    H132063   1.361   3.575  11.183 -0.2129 -1.7435  1.0677
 3524TIP3    H232064   1.250   3.474  11.161 -1.8348  0.4353 -1.2994
 3525TIP3   OH232065   2.053   3.204  13.138 -0.0210 -0.4737  0.1912
 3525TIP3    H132066   2.067   3.263  13.212 -0.0162  3.8763 -2.8948
 3525TIP3    H232067   2.141   3.187  13.105 -0.1413 -0.6547 -0.0346
 3526TIP3   OH232068   5.207   1.083  16.451  0.2955  0.1949  0.2231
 3526TIP3    H132069   5.266   1.011  16.431 -0.1562  0.1336 -0.9158
 3526TIP3    H232070   5.265   1.155  16.478  0.9112  0.1663 -0.9666
 3527TIP3   OH232071   0.833   6.651   4.660  0.0527  0.5306  0.0099
 3527TIP3    H132072   0.760   6.593   4.684 -0.1834  0.4224 -0.9457
 3527TIP3    H232073   0.858   6.693   4.743 -2.9350  2.7332 -0.0465
 3528TIP3   OH232074   1.102   2.103   0.449 -0.3867  0.3908 -0.3341
 3528TIP3    H132075   1.091   2.145   0.364  2.1976  1.6013 -0.1897
 3528TIP3    H232076   1.126   2.013   0.429  1.9291  1.1004 -1.0433
 3529TIP3   OH232077   6.082   1.398  13.311 -0.4285 -0.1826  0.2973
 3529TIP3    H132078   6.110   1.395  13.402  0.1700  0.4111  0.1477
 3529TIP3    H232079   6.047   1.311  13.293 -1.1082 -0.1214  1.2591
 3530TIP3   OH232080   2.844   2.286   4.612  0.4115  0.3053  0.3832
 3530TIP3    H132081   2.934   2.319   4.604  0.3030  0.6961  0.7556
 3530TIP3    H232082   2.794   2.359   4.647 -0.5008  0.7543 -1.7167
 3531TIP3   OH232083   4.181   6.431   3.565  0.7050  0.1699  0.1993
 3531TIP3    H132084   4.130   6.463   3.639 -0.8588 -0.2321 -0.6647
 3531TIP3    H232085   4.272   6.449   3.589  0.4347 -1.7456  3.1034
 3532TIP3   OH232086   4.563   6.019  15.868 -0.5209 -0.2904 -0.2447
 3532TIP3    H132087   4.513   6.075  15.810 -1.5480  0.6871  1.4982
 3532TIP3    H232088   4.654   6.031  15.840 -0.0631  5.3619  2.2544
 3533TIP3   OH232089   0.464   3.099   2.634  0.0970  0.0758 -0.3199
 3533TIP3    H132090   0.476   3.190   2.606  1.5093  0.1873  0.5832
 3533TIP3    H232091   0.505   3.095   2.720  0.8862 -1.6518 -0.7428
 3534TIP3   OH232092   4.746   2.894  15.536 -0.5348 -0.3061  0.2319
 3534TIP3    H132093   4.840   2.894  15.518 -0.7636  1.7050 -1.3250
 3534TIP3    H232094   4.740   2.909  15.630  0.7218  1.2496  0.1090
 3535TIP3   OH232095   5.459   5.975   5.121  0.0132  0.0676 -0.5086
 3535TIP3    H132096   5.392   6.041   5.139 -0.2077  0.0157 -1.1389
 3535TIP3    H232097   5.420   5.918   5.056 -0.2637 -1.4200  0.9145
 3536TIP3   OH232098   4.580   2.964  15.183 -0.2415 -0.2698  0.1135
 3536TIP3    H132099   4.565   2.870  15.177  0.4449 -0.4585  1.2148
 3536TIP3    H232100   4.675   2.973  15.180 -0.3229  0.4952 -1.1458
 3537TIP3   OH232101   5.404   5.969  17.136 -0.5981  0.0525 -0.2385
 3537TIP3    H132102   5.451   5.891  17.107  0.0020  0.1485  0.4383
 3537TIP3    H232103   5.313   5.953  17.112 -0.2616 -0.2370 -1.3607
 3538TIP3   OH232104   2.124   5.379   5.922 -0.0010  0.0555  0.4775
 3538TIP3    H132105   2.204   5.417   5.884 -0.3686 -0.3297 -0.7204
 3538TIP3    H232106   2.056   5.444   5.905  0.0148  0.3382  1.4113
 3539TIP3   OH232107   3.247   6.446  11.332 -0.0784  0.6170  0.1757
 3539TIP3    H132108   3.223   6.390  11.258 -0.2589 -0.4306  1.0066
 3539TIP3    H232109   3.262   6.532  11.293  0.0211  0.0410 -1.1042
 3540TIP3   OH232110   5.405   2.250   3.589  0.0148  0.0955  0.8046
 3540TIP3    H132111   5.321   2.235   3.546 -0.1156  2.3869  0.1184
 3540TIP3    H232112   5.469   2.206   3.533 -0.4574  0.6381 -0.1799
 3541TIP3   OH232113   4.062   2.980  15.925 -0.6617 -0.6686 -0.5167
 3541TIP3    H132114   4.068   2.915  15.995  0.8300 -0.5217 -0.4658
 3541TIP3    H232115   3.976   2.966  15.886 -0.6301 -2.2400 -0.0849
 3542TIP3   OH232116   4.928   1.137  12.900 -0.3412  0.3259 -0.0043
 3542TIP3    H132117   4.933   1.051  12.942  1.2230  0.3237 -0.1355
 3542TIP3    H232118   5.018   1.170  12.903 -0.3051  0.6581 -2.6649
 3543TIP3   OH232119   6.753   0.416   0.598  0.2743 -0.2324  0.3990
 3543TIP3    H132120   6.751   0.364   0.678 -0.7349 -0.6823  0.1048
 3543TIP3    H232121   6.679   0.382   0.546  1.2178 -0.3148 -0.9459
 3544TIP3   OH232122   1.511   4.682  11.934 -0.2861 -0.3823  0.5269
 3544TIP3    H132123   1.524   4.631  12.013  2.6136 -0.0506  0.3688
 3544TIP3    H232124   1.541   4.625  11.863 -1.5754 -0.1813 -0.2081
 3545TIP3   OH232125   5.803   5.914   3.296 -0.1309  0.1076 -0.0269
 3545TIP3    H132126   5.893   5.942   3.279 -0.2911  0.3152 -0.5621
 3545TIP3    H232127   5.809   5.858   3.373  0.6565 -1.0875 -0.9365
 3546TIP3   OH232128   1.669   6.156   2.447  0.7913  0.2136 -0.4873
 3546TIP3    H132129   1.678   6.095   2.521 -1.2440  0.7629  0.3059
 3546TIP3    H232130   1.730   6.123   2.382 -0.2671 -2.8234 -0.1550
 3547TIP3   OH232131   1.528   3.123   0.623 -0.6200 -0.6150  0.5057
 3547TIP3    H132132   1.472   3.077   0.687 -2.1581  2.9609  2.0409
 3547TIP3    H232133   1.467   3.151   0.555  0.0801 -0.1596  0.0651
 3548TIP3   OH232134   0.643   2.760   5.226 -0.4207 -0.0183 -0.0337
 3548TIP3    H132135   0.734   2.743   5.204 -0.0280  0.0218  1.4568
 3548TIP3    H232136   0.627   2.709   5.305 -3.0091 -3.5827 -2.5333
 3549TIP3   OH232137   5.888   3.153   1.764 -0.3487  0.3946 -0.2081
 3549TIP3    H132138   5.885   3.086   1.832  0.1099 -0.8035 -1.3234
 3549TIP3    H232139   5.962   3.128   1.708  0.1032  2.0783 -0.4228
 3550TIP3   OH232140   0.214   0.371  10.963  0.5833  0.6410  0.1443
 3550TIP3    H132141   0.274   0.336  11.029 -0.5486  1.2279  1.5505
 3550TIP3    H232142   0.214   0.306  10.892  3.8894  1.2617 -0.5705
 3551TIP3   OH232143   0.128   3.779  15.386  0.5845 -0.1582 -0.1687
 3551TIP3    H132144   0.055   3.819  15.432  0.6316 -0.3250  0.0546
 3551TIP3    H232145   0.089   3.738  15.309  0.1897 -1.5854  0.7344
 3552TIP3   OH232146   4.679   4.234  13.879  0.2679 -0.2021 -0.2619
 3552TIP3    H132147   4.666   4.243  13.785  0.3679 -0.2853 -0.2842
 3552TIP3    H232148   4.655   4.143  13.898  3.9365 -1.4419 -0.8605
 3553TIP3   OH232149   1.158   0.827   5.870 -0.2630 -0.4001  0.0055
 3553TIP3    H132150   1.119   0.907   5.904 -0.1024 -0.8584  1.3542
 3553TIP3    H232151   1.113   0.757   5.918  1.3138 -0.9925  0.6706
 3554TIP3   OH232152   6.347   1.666  15.748  0.1866 -0.4165 -0.5734
 3554TIP3    H132153   6.302   1.721  15.812  0.5049 -0.0880 -0.6252
 3554TIP3    H232154   6.438   1.697  15.751  0.4432 -1.1767 -0.3470
 3555TIP3   OH232155   6.456   3.385   4.189  0.4436  0.0190  0.0362
 3555TIP3    H132156   6.414   3.325   4.251  0.7726 -1.0158 -0.7196
 3555TIP3    H232157   6.493   3.454   4.244  1.9624 -1.5995  1.1572
 3556TIP3   OH232158   4.956   0.783   2.523 -0.1902 -0.2664  0.5950
 3556TIP3    H132159   4.877   0.837   2.512  1.3359  2.1470  0.6823
 3556TIP3    H232160   4.977   0.788   2.616  0.4305 -0.3193  0.4651
 3557TIP3   OH232161   0.743   2.474  16.926  0.4370  0.0623 -0.3183
 3557TIP3    H132162   0.793   2.398  16.898  1.1723  0.1516  0.7062
 3557TIP3    H232163   0.752   2.537  16.855  2.0187  0.1780 -0.0384
 3558TIP3   OH232164   5.734   2.273   5.139 -0.0560 -0.1276  1.0166
 3558TIP3    H132165   5.744   2.363   5.168  1.4109 -0.0758  0.4022
 3558TIP3    H232166   5.688   2.279   5.055 -0.1096  0.0322  1.0574
 3559TIP3   OH232167   0.233   6.495  15.788 -0.2923 -0.2196 -0.3547
 3559TIP3    H132168   0.241   6.408  15.749  0.9627  0.2386 -1.1763
 3559TIP3    H232169   0.303   6.546  15.748 -0.1513  0.8059  1.1066
 3560TIP3   OH232170   0.868   3.094   5.189  0.2302  0.7174  0.0819
 3560TIP3    H132171   0.916   3.022   5.148 -1.4308 -0.0390 -0.5907
 3560TIP3    H232172   0.840   3.148   5.115  2.4019  2.7656  0.6059
 3561TIP3   OH232173   2.745   2.223  12.073  0.0794 -0.1871  0.0951
 3561TIP3    H132174   2.798   2.205  12.151 -0.8061 -1.0636  0.5201
 3561TIP3    H232175   2.693   2.299  12.097  0.9410  0.5194 -0.2310
 3562TIP3   OH232176   3.016   5.969  14.145  0.0876  0.4576 -0.3378
 3562TIP3    H132177   3.075   6.044  14.142 -1.2589  1.5655 -0.3797
 3562TIP3    H232178   2.929   6.008  14.160 -0.8077 -0.9896 -1.4474
 3563TIP3   OH232179   2.526   2.187  14.468 -0.0574 -0.0144 -0.3404
 3563TIP3    H132180   2.454   2.127  14.489  0.3599 -0.2634  0.4253
 3563TIP3    H232181   2.496   2.272  14.498  0.2819 -0.2604  0.7369
 3564TIP3   OH232182   6.556   6.659   3.371  0.6554 -0.3291 -0.5102
 3564TIP3    H132183   6.495   6.614   3.430  0.6489  0.0868 -0.1968
 3564TIP3    H232184   6.642   6.649   3.412  0.5650  0.5006 -0.0936
 3565TIP3   OH232185   6.187   3.831   1.215  0.4221  0.7390  0.1809
 3565TIP3    H132186   6.229   3.766   1.271  0.2985  1.7530  1.5093
 3565TIP3    H232187   6.094   3.821   1.232  0.0667 -1.1096 -2.3237
 3566TIP3   OH232188   6.743   5.353  13.807  0.3909  0.0725  0.6988
 3566TIP3    H132189   6.684   5.378  13.878 -3.2396 -0.3335 -1.8494
 3566TIP3    H232190   6.723   5.261  13.791 -1.2509  0.8465 -2.6289
 3567TIP3   OH232191   3.699   1.875  10.506  0.4464  0.2762 -0.4634
 3567TIP3    H132192   3.734   1.790  10.534  0.0263  0.1403 -0.3348
 3567TIP3    H232193   3.676   1.862  10.414 -0.5820 -0.0788 -0.1754
 3568TIP3   OH232194   6.670   2.183   1.546 -0.0125  0.0392  0.1978
 3568TIP3    H132195   6.632   2.097   1.565 -2.8207  0.8014 -1.3278
 3568TIP3    H232196   6.665   2.230   1.629 -1.5762 -0.2678  0.3185
 3569TIP3   OH232197   3.857   5.414  11.497  0.1587  0.0565 -0.4773
 3569TIP3    H132198   3.950   5.388  11.500  0.3701  0.6767 -1.3693
 3569TIP3    H232199   3.835   5.432  11.588  1.6706  2.5027 -0.5163
 3570TIP3   OH232200   5.701   4.132  16.948 -0.0781 -0.4560 -0.2465
 3570TIP3    H132201   5.766   4.192  16.984  0.0954 -0.8004  0.0193
 3570TIP3    H232202   5.623   4.145  17.002 -0.3135  0.1339 -0.7191
 3571TIP3   OH232203   6.710   6.550   5.060  0.5645 -0.4487  0.0153
 3571TIP3    H132204   6.797   6.590   5.061  1.0207 -1.4311  0.7325
 3571TIP3    H232205   6.687   6.538   5.152 -1.9184  3.0688  0.0433
 3572TIP3   OH232206   4.289   3.969  16.393 -0.6191  0.4616  0.2923
 3572TIP3    H132207   4.285   4.060  16.421 -1.0356  0.6752 -0.4235
 3572TIP3    H232208   4.201   3.935  16.409 -0.3994  0.1148  0.7746
 3573TIP3   OH232209   1.281   6.138  10.530 -0.5468 -0.8820 -0.2929
 3573TIP3    H132210   1.201   6.174  10.494 -0.9725 -0.2412  1.2042
 3573TIP3    H232211   1.274   6.043  10.516 -1.9008 -0.9077  0.4027
 3574TIP3   OH232212   0.895   1.842   0.978 -0.5678  0.1487  0.8919
 3574TIP3    H132213   0.892   1.819   1.070  0.3376  1.8937  1.4023
 3574TIP3    H232214   0.987   1.861   0.961 -0.9152  1.0965 -0.0345
 3575TIP3   OH232215   4.646   5.092   0.130 -0.0933 -0.1975  0.3148
 3575TIP3    H132216   4.589   5.066   0.057 -0.5780  1.4203  0.0706
 3575TIP3    H232217   4.645   5.017   0.189  1.3126 -2.1089 -1.8829
 3576TIP3   OH232218   3.713   5.322   1.627 -0.0105  0.1711 -0.1328
 3576TIP3    H132219   3.781   5.314   1.695 -1.4585  1.5608  1.6099
 3576TIP3    H232220   3.659   5.244   1.637 -0.5101  0.6006  0.7385
 3577TIP3   OH232221   5.493   1.397   2.391  0.0226 -0.6091 -0.1186
 3577TIP3    H132222   5.397   1.388   2.391 -0.0395 -0.0234 -0.8430
 3577TIP3    H232223   5.523   1.341   2.320  0.0564  0.6487 -1.1212
 3578TIP3   OH232224   6.289   1.239  14.893 -0.2805 -0.1593 -0.1301
 3578TIP3    H132225   6.300   1.224  14.987 -1.4434  0.8100  0.1999
 3578TIP3    H232226   6.204   1.200  14.873 -0.6015  0.7054 -0.5020
 3579TIP3   OH232227   4.902   3.830  17.271  0.1371 -0.3848 -0.0905
 3579TIP3    H132228   4.900   3.739  17.299  0.4947 -0.1066  0.8847
 3579TIP3    H232229   4.826   3.870  17.312  0.6534  0.0219  0.4993
 3580TIP3   OH232230   5.399   6.149   2.384 -0.3155  0.0407 -0.4771
 3580TIP3    H132231   5.368   6.187   2.466  0.3833 -0.3258 -0.0344
 3580TIP3    H232232   5.366   6.208   2.316  1.7905  2.1868  0.2460
 3581TIP3   OH232233   2.209   0.973   4.391 -0.7677 -0.1941 -0.2262
 3581TIP3    H132234   2.212   1.016   4.476 -0.7711 -0.6505  0.0127
 3581TIP3    H232235   2.266   0.896   4.401 -0.9924 -0.4085 -0.5448
 3582TIP3   OH232236   2.300   1.321  16.431  0.0881  0.1205  0.4416
 3582TIP3    H132237   2.208   1.303  16.450 -0.0329 -1.5514 -1.4328
 3582TIP3    H232238   2.338   1.346  16.516 -1.9051  0.1404  1.3834
 3583TIP3   OH232239   4.961   0.722  15.313 -0.4421  0.7157 -0.4743
 3583TIP3    H132240   4.948   0.795  15.374 -1.2869  0.1030  0.0945
 3583TIP3    H232241   4.896   0.658  15.338 -1.5904  0.8972 -2.7594
 3584TIP3   OH232242   5.919   3.191  12.114  0.2042  0.5980 -0.8472
 3584TIP3    H132243   5.857   3.257  12.083 -1.4289 -0.6617 -0.3872
 3584TIP3    H232244   5.865   3.117  12.139  1.7791  0.0370  1.1582
 3585TIP3   OH232245   6.253   6.058  14.440 -0.5916 -0.2007  0.6774
 3585TIP3    H132246   6.160   6.066  14.423 -0.7283 -0.3414  1.3366
 3585TIP3    H232247   6.262   5.976  14.489  0.0399 -0.9167 -0.5663
 3586TIP3   OH232248   1.824   3.859  11.938  0.3334  0.5878  0.1789
 3586TIP3    H132249   1.889   3.929  11.936 -0.8859  1.8388  1.5251
 3586TIP3    H232250   1.755   3.889  11.878 -0.1333  0.4777  0.6566
 3587TIP3   OH232251   4.492   1.724  15.013 -0.0563  0.1432  0.0301
 3587TIP3    H132252   4.516   1.773  14.935  1.1486 -1.4993 -0.7003
 3587TIP3    H232253   4.573   1.715  15.062 -0.8061  1.2034  1.5632
 3588TIP3   OH232254   5.383   4.827  10.515 -0.3909  0.3232  0.1144
 3588TIP3    H132255   5.431   4.779  10.448  0.3362  0.0249  0.8367
 3588TIP3    H232256   5.413   4.917  10.505  2.5370 -0.2759  2.3680
 3589TIP3   OH232257   6.227   1.261  12.870  0.2731  0.1834  0.2688
 3589TIP3    H132258   6.260   1.252  12.780  1.1462  2.3573  0.3012
 3589TIP3    H232259   6.302   1.295  12.919 -0.6301  0.4815  1.4759
 3590TIP3   OH232260   0.019   0.059  12.903  0.2244 -0.0255  0.2448
 3590TIP3    H132261  -0.074   0.079  12.913  0.5709  2.4428 -0.7427
 3590TIP3    H232262   0.047   0.111  12.828  1.8444 -2.8588 -1.3080
 3591TIP3   OH232263   6.416   5.602  16.067 -0.6777  0.0774 -0.3869
 3591TIP3    H132264   6.434   5.692  16.095 -0.7981 -0.3942  1.3667
 3591TIP3    H232265   6.324   5.588  16.087 -0.6835 -0.4124 -0.7315
 3592TIP3   OH232266   4.998   1.514  16.330 -0.1281 -0.1739 -0.1114
 3592TIP3    H132267   4.907   1.539  16.345  0.1604  1.8690 -1.5493
 3592TIP3    H232268   5.023   1.557  16.249  2.2190 -0.4944  0.3673
 3593TIP3   OH232269   0.440   1.383   1.554 -0.3676 -0.4430 -0.4049
 3593TIP3    H132270   0.379   1.310   1.542 -0.6104 -0.2455 -0.3733
 3593TIP3    H232271   0.518   1.342   1.592 -0.4655 -0.7013 -0.4743
 3594TIP3   OH232272   5.908   3.841  14.640 -0.3352 -0.0656 -0.0552
 3594TIP3    H132273   5.981   3.864  14.582 -0.6811  0.1098 -0.4283
 3594TIP3    H232274   5.900   3.915  14.700  0.0879 -0.2909  0.2862
 3595TIP3   OH232275   1.550   4.894  11.755  0.3782 -0.2967 -0.2298
 3595TIP3    H132276   1.573   4.813  11.799  0.7398 -0.0048  0.1283
 3595TIP3    H232277   1.511   4.948  11.824 -1.1417 -0.6711 -0.7525
 3596TIP3   OH232278   3.575   6.573  12.784 -0.4321  0.4737 -0.7333
 3596TIP3    H132279   3.650   6.621  12.819 -0.2742  0.6352 -1.2675
 3596TIP3    H232280   3.613   6.496  12.741 -0.8075 -1.0645  1.5428
 3597TIP3   OH232281   4.041   1.372   2.759 -0.9466  0.6312 -0.2584
 3597TIP3    H132282   4.098   1.408   2.691  0.7958 -1.6206 -0.1092
 3597TIP3    H232283   4.101   1.337   2.824 -2.5143 -1.0851  0.3349
 3598TIP3   OH232284   0.422   5.068   5.098 -0.4980  0.8210 -0.6628
 3598TIP3    H132285   0.414   5.150   5.050  0.3470  0.8298 -0.8065
 3598TIP3    H232286   0.480   5.014   5.043  3.8953  2.2423  2.0795
 3599TIP3   OH232287   3.096   1.294   2.267  0.4102 -0.8244 -0.2228
 3599TIP3    H132288   3.140   1.358   2.324  0.1392 -1.7371  1.0520
 3599TIP3    H232289   3.018   1.340   2.237  1.2997  0.1910 -1.0865
 3600TIP3   OH232290   2.115   3.610  15.615 -0.5378 -0.0499 -0.1411
 3600TIP3    H132291   2.153   3.548  15.678  1.1570  1.3094  0.2386
 3600TIP3    H232292   2.031   3.633  15.654  0.1377  0.1737  1.2705
 3601TIP3   OH232293   2.165   0.919   2.290 -0.5074  0.3283 -0.0696
 3601TIP3    H132294   2.205   0.990   2.240 -0.9055  0.8910  0.3986
 3601TIP3    H232295   2.239   0.861   2.312 -0.0016  1.1206  0.4026
 3602TIP3   OH232296   6.104   3.699   3.171  0.1477  0.6520  1.0464
 3602TIP3    H132297   6.095   3.793   3.158  1.2272  0.6992  0.4990
 3602TIP3    H232298   6.036   3.676   3.234  1.0148  2.0981  2.5612
 3603TIP3   OH232299   0.919   3.069  13.357  0.3996  0.6210  0.1261
 3603TIP3    H132300   0.985   3.105  13.297  0.2703 -0.6498 -0.8265
 3603TIP3    H232301   0.928   3.121  13.437  2.4006  0.6152 -0.0508
 3604TIP3   OH232302   2.702   5.820   3.710  0.5199  0.1107 -0.6948
 3604TIP3    H132303   2.635   5.769   3.666  0.8285 -1.1925  0.2956
 3604TIP3    H232304   2.656   5.899   3.740 -0.1107  0.1310 -1.6530
 3605TIP3   OH232305   1.124   5.815  15.022 -0.0345  0.1656 -0.3100
 3605TIP3    H132306   1.205   5.764  15.011 -0.3589 -0.6730  0.9107
 3605TIP3    H232307   1.122   5.874  14.947  0.9603 -0.8163 -1.1455
 3606TIP3   OH232308   0.673   3.765   1.234 -0.9111  0.0356 -0.1162
 3606TIP3    H132309   0.764   3.738   1.221 -0.7568  0.4035  0.2090
 3606TIP3    H232310   0.623   3.685   1.218 -0.4716 -0.3775  0.5231
 3607TIP3   OH232311   5.963   3.458  14.870 -0.4203 -0.2562  0.3990
 3607TIP3    H132312   5.930   3.375  14.834  2.0341 -1.8611  1.5535
 3607TIP3    H232313   5.968   3.516  14.794  0.5834 -2.1556 -1.1019
 3608TIP3   OH232314   4.042   0.421  11.016 -0.5688 -0.7404 -0.4432
 3608TIP3    H132315   4.112   0.457  11.071 -2.1366 -0.1118  1.2618
 3608TIP3    H232316   3.965   0.476  11.036 -1.2603 -0.5284 -3.2671
 3609TIP3   OH232317   3.933   3.095  15.537  0.0268  0.9233 -0.5839
 3609TIP3    H132318   3.892   3.133  15.614 -0.4528  0.7172 -0.7293
 3609TIP3    H232319   3.993   3.029  15.572 -1.3291 -0.2831 -0.4065
 3610TIP3   OH232320   3.794   2.924   2.954  0.5915 -0.1447 -0.0811
 3610TIP3    H132321   3.826   2.955   3.039  0.8924 -1.3278  0.2671
 3610TIP3    H232322   3.869   2.935   2.895  0.5480  0.2160 -0.0678
 3611TIP3   OH232323   5.938   4.438  14.083 -1.0586  0.3790 -0.0595
 3611TIP3    H132324   6.017   4.474  14.044 -0.1520 -0.6997  0.6984
 3611TIP3    H232325   5.876   4.430  14.011 -0.4595  1.2047 -0.6735
 3612TIP3   OH232326   3.835   6.011   6.776 -0.2665  0.0644 -0.4691
 3612TIP3    H132327   3.777   6.087   6.774  0.0660  0.3870  0.8390
 3612TIP3    H232328   3.886   6.017   6.695  1.2396  2.4638  0.5255
 3613TIP3   OH232329   1.974   5.798  12.617  0.4867 -0.0049  0.1385
 3613TIP3    H132330   2.021   5.754  12.688  1.0498  1.8639  0.9918
 3613TIP3    H232331   1.885   5.763  12.623  1.0651 -1.5088  0.3190
 3614TIP3   OH232332   3.683   1.316  15.529 -0.4693  0.2156  0.6382
 3614TIP3    H132333   3.619   1.294  15.462 -0.9846 -2.2167  1.8007
 3614TIP3    H232334   3.747   1.372  15.485 -2.1467  0.7979 -1.1539
 3615TIP3   OH232335   4.556   5.565  13.090  0.5283  0.1768  0.0526
 3615TIP3    H132336   4.647   5.538  13.078  0.5456  0.3743 -0.2704
 3615TIP3    H232337   4.549   5.647  13.041  0.1732  0.1557  0.0687
 3616TIP3   OH232338   1.220   3.444  13.694  0.0659 -0.0090 -0.0397
 3616TIP3    H132339   1.232   3.539  13.689  0.3200 -0.0790 -0.9418
 3616TIP3    H232340   1.169   3.430  13.774  0.7162  0.8187  0.5300
 3617TIP3   OH232341   6.605   6.701  14.821 -0.6586 -0.1497  0.7952
 3617TIP3    H132342   6.672   6.702  14.753 -1.2192  1.4579  0.2137
 3617TIP3    H232343   6.652   6.718  14.903 -0.2186 -0.2339  0.5621
 3618TIP3   OH232344   6.005   2.811   0.569  0.2637  0.1407 -0.3531
 3618TIP3    H132345   5.972   2.895   0.600 -0.3216  0.0502 -0.7169
 3618TIP3    H232346   6.099   2.826   0.554  0.1813  0.7003 -0.3235
 3619TIP3   OH232347   5.179   1.745   2.287 -0.7977 -0.2383  0.4042
 3619TIP3    H132348   5.194   1.789   2.371  0.7216 -0.8318  0.4622
 3619TIP3    H232349   5.209   1.656   2.301  0.0946 -0.1738 -0.9550
 3620TIP3   OH232350   0.365   1.555   5.383 -0.2891 -0.1319  0.7000
 3620TIP3    H132351   0.444   1.576   5.433 -0.2330 -0.1814  0.6314
 3620TIP3    H232352   0.307   1.629   5.401 -0.1978 -0.0556  0.6873
 3621TIP3   OH232353   2.408   2.178  11.712  0.0037  0.1053  0.0842
 3621TIP3    H132354   2.361   2.105  11.752 -0.3461  0.5710  0.5380
 3621TIP3    H232355   2.365   2.256  11.748  1.0741  0.5380  0.4534
 3622TIP3   OH232356   1.558   5.134   6.596 -0.0946 -0.0831 -0.7742
 3622TIP3    H132357   1.646   5.139   6.559  0.5996 -0.9901  0.6988
 3622TIP3    H232358   1.534   5.225   6.615  1.1991  0.0477  0.3354
 3623TIP3   OH232359   5.941   5.677   4.326 -0.3474  0.2039 -0.3415
 3623TIP3    H132360   5.861   5.634   4.356  1.2329 -1.5361  1.7628
 3623TIP3    H232361   5.970   5.730   4.401  0.3698  0.9774 -1.1354
 3624TIP3   OH232362   5.254   2.714   4.398  0.5614  0.8309  0.2167
 3624TIP3    H132363   5.183   2.657   4.370  2.1724 -2.0753  1.5128
 3624TIP3    H232364   5.224   2.752   4.480  0.0289  0.6133  0.1263
 3625TIP3   OH232365   4.632   1.086  14.452  0.2058 -0.2376  0.4451
 3625TIP3    H132366   4.573   1.154  14.484  1.0040  0.9246 -0.4984
 3625TIP3    H232367   4.647   1.030  14.528 -1.6025 -0.1997  0.8583
 3626TIP3   OH232368   1.096   1.766   0.656 -0.1211  0.4456  0.1666
 3626TIP3    H132369   1.096   1.671   0.654  2.5890  0.2766  2.4961
 3626TIP3    H232370   1.136   1.793   0.573  1.2944 -0.5653  0.5044
 3627TIP3   OH232371   5.209   1.326   6.495 -0.5516 -0.2020 -0.0568
 3627TIP3    H132372   5.221   1.372   6.578 -3.2804 -0.6792  0.7219
 3627TIP3    H232373   5.145   1.378   6.447  0.9099  0.0112 -1.8806
 3628TIP3   OH232374   1.368   1.589  15.360 -0.4940  0.0240  0.1447
 3628TIP3    H132375   1.448   1.537  15.364  0.2397  1.1645  2.7674
 3628TIP3    H232376   1.341   1.585  15.269  1.0214 -2.6483 -0.2859
 3629TIP3   OH232377   1.282   6.075  15.593  0.5894 -0.5135 -0.1104
 3629TIP3    H132378   1.267   6.050  15.685 -0.4518  3.6322  1.0412
 3629TIP3    H232379   1.215   6.027  15.545 -1.6553  0.3096  1.9559
 3630TIP3   OH232380   6.549   4.479   3.489 -0.3661  0.5619 -0.2061
 3630TIP3    H132381   6.613   4.551   3.497  1.2285 -0.9658  1.9441
 3630TIP3    H232382   6.555   4.452   3.397 -0.4188  2.6128 -0.8630
 3631TIP3   OH232383   0.668   2.730  14.373 -0.6373 -0.5937  0.2569
 3631TIP3    H132384   0.685   2.768  14.459 -0.7394  0.1028 -0.0233
 3631TIP3    H232385   0.750   2.741  14.325 -1.2913  1.2717 -0.5411
 3632TIP3   OH232386   0.453   2.266  13.431 -0.8557 -0.0110 -0.1479
 3632TIP3    H132387   0.374   2.274  13.379 -1.5537  1.0301  1.0099
 3632TIP3    H232388   0.518   2.229  13.371 -2.5135 -2.0826 -0.7958
 3633TIP3   OH232389   4.081   6.538   3.045  0.0657 -0.6878 -0.4603
 3633TIP3    H132390   4.164   6.508   3.083 -0.1273  0.7771  1.2396
 3633TIP3    H232391   4.014   6.496   3.098 -0.2288  0.1861 -0.1161
 3634TIP3   OH232392   4.139   2.056   3.242  0.0695  0.3765 -0.3468
 3634TIP3    H132393   4.136   2.053   3.338  0.0752  0.5429 -0.3407
 3634TIP3    H232394   4.088   2.133   3.219 -0.5623 -0.0816 -0.5134
 3635TIP3   OH232395   5.055   3.496  15.846 -0.4474  0.0085  0.2416
 3635TIP3    H132396   5.089   3.574  15.803 -1.0307 -0.3842 -0.9732
 3635TIP3    H232397   4.965   3.520  15.871 -0.0309  0.3242  1.5223
 3636TIP3   OH232398   5.913   4.016   6.406 -0.0757 -0.7223  0.2614
 3636TIP3    H132399   5.878   4.086   6.461 -0.5719  0.4858 -1.5085
 3636TIP3    H232400   5.847   4.004   6.338  1.2427 -0.9990 -1.0167
 3637TIP3   OH232401   5.213   1.738  11.402  0.7370  1.1848 -0.0582
 3637TIP3    H132402   5.295   1.721  11.355  0.6746 -0.0411  0.2446
 3637TIP3    H232403   5.240   1.749  11.493  0.4862 -0.2269  0.2081
 3638TIP3   OH232404   4.560   6.100   0.837 -0.7825 -0.0880  0.3792
 3638TIP3    H132405   4.528   6.063   0.919 -0.2467 -1.2839  0.0643
 3638TIP3    H232406   4.482   6.104   0.781 -0.9482 -0.2448  0.5981
 3639TIP3   OH232407   4.690   0.473   2.547  0.4208 -0.5168  0.2857
 3639TIP3    H132408   4.738   0.432   2.618  0.4491 -0.2389  0.4292
 3639TIP3    H232409   4.670   0.402   2.486  0.9761 -0.6383  0.2457
 3640TIP3   OH232410   4.266   3.264   3.701 -0.2388 -0.0031 -0.0530
 3640TIP3    H132411   4.183   3.299   3.670  0.5443 -0.8504 -3.6082
 3640TIP3    H232412   4.322   3.341   3.711 -0.4474  0.3132 -1.1889
 3641TIP3   OH232413   0.533   0.429   4.103 -0.4036 -0.1588 -0.1496
 3641TIP3    H132414   0.521   0.431   4.198 -3.2955 -1.8323 -0.3374
 3641TIP3    H232415   0.604   0.367   4.089  0.7927  0.9135  0.9066
 3642TIP3   OH232416   6.297   1.659   6.367 -0.2745  0.4277 -0.2017
 3642TIP3    H132417   6.326   1.723   6.302  0.7676  0.1726  0.0032
 3642TIP3    H232418   6.326   1.695   6.450  0.6146 -0.4698 -0.1155
 3643TIP3   OH232419   1.118   2.575  13.922  1.1143 -0.1582 -0.0360
 3643TIP3    H132420   1.123   2.565  14.017 -0.0757 -0.9454 -0.0346
 3643TIP3    H232421   1.209   2.580  13.894  1.4741  0.7098  1.1960
 3644TIP3   OH232422   6.234   2.408  16.317  0.1971 -0.5598 -0.1864
 3644TIP3    H132423   6.188   2.325  16.323  0.5137 -0.7065  0.2244
 3644TIP3    H232424   6.303   2.393  16.252  1.8153 -1.3736  1.6402
 3645TIP3   OH232425   1.229   1.294  14.727 -0.1084  0.1779  0.3605
 3645TIP3    H132426   1.229   1.372  14.783 -3.3124  0.2550  0.4058
 3645TIP3    H232427   1.222   1.328  14.638  0.5469 -0.0536  0.2125
 3646TIP3   OH232428   4.081   2.075   3.795 -0.1292  0.5654  0.1842
 3646TIP3    H132429   4.039   2.123   3.866  0.6741  2.7518 -0.7503
 3646TIP3    H232430   4.059   2.124   3.716  1.9812  0.2882 -0.6403
 3647TIP3   OH232431   2.469   0.338   0.313 -0.0673  0.2873 -0.5786
 3647TIP3    H132432   2.541   0.387   0.271  1.0554 -0.0000  0.9162
 3647TIP3    H232433   2.510   0.257   0.342 -0.8830  0.3297  0.7339
 3648TIP3   OH232434   0.868   4.272  16.254  0.3411 -0.0921  0.0026
 3648TIP3    H132435   0.935   4.319  16.204  1.1704 -1.5028 -0.2642
 3648TIP3    H232436   0.906   4.262  16.341 -0.0097  0.1044  0.1782
 3649TIP3   OH232437   5.108   1.398  16.039 -0.3248 -0.3720  0.5226
 3649TIP3    H132438   5.157   1.402  16.121 -0.9857  0.6269  0.8853
 3649TIP3    H232439   5.082   1.489  16.023  0.7699 -0.3374 -1.3865
 3650TIP3   OH232440   3.604   5.935  16.450  0.0626  0.0865  0.5959
 3650TIP3    H132441   3.678   5.906  16.502  0.1940 -0.5288  0.0795
 3650TIP3    H232442   3.640   5.999  16.389  0.3181 -0.6786 -0.0881
 3651TIP3   OH232443   4.330   2.162  12.553 -0.5973 -0.0217  0.3717
 3651TIP3    H132444   4.370   2.079  12.577  0.5466  0.3902 -0.0410
 3651TIP3    H232445   4.373   2.226  12.610 -2.0683  0.2071  1.2876
 3652TIP3   OH232446   4.970   4.163   1.692 -0.1945 -0.6197  0.3727
 3652TIP3    H132447   4.997   4.102   1.760 -1.0766  0.6242  1.8979
 3652TIP3    H232448   5.038   4.156   1.625  0.8480 -1.6606  1.4907
 3653TIP3   OH232449   5.189   1.546   3.554  0.4538  0.3720  0.2436
 3653TIP3    H132450   5.100   1.548   3.589  0.5464  1.6151  0.4521
 3653TIP3    H232451   5.178   1.514   3.464 -0.1383  0.0057  0.4374
 3654TIP3   OH232452   5.352   6.338  13.910 -0.3394 -0.0494 -0.6098
 3654TIP3    H132453   5.342   6.387  13.828 -0.3532  1.4018  0.2135
 3654TIP3    H232454   5.446   6.340  13.928 -0.3695 -0.0888 -0.4448
 3655TIP3   OH232455   6.142   5.511   4.787 -0.5005  0.4113  0.9569
 3655TIP3    H132456   6.179   5.505   4.699  0.0676 -0.9475  1.2544
 3655TIP3    H232457   6.077   5.581   4.781 -0.8590 -0.0081 -0.6786
 3656TIP3   OH232458   5.451   2.334  16.813  0.7439  0.3213  0.0451
 3656TIP3    H132459   5.420   2.422  16.791  1.2818  0.8662  1.3532
 3656TIP3    H232460   5.542   2.333  16.783  1.1265  0.6699  1.1493
 3657TIP3   OH232461   0.552   5.503   1.848 -0.0041 -0.4165  0.7294
 3657TIP3    H132462   0.608   5.492   1.925  0.7465 -1.6346  0.0336
 3657TIP3    H232463   0.600   5.460   1.777 -0.8434  0.3777 -0.3536
 3658TIP3   OH232464   5.959   0.313   1.446  0.7464 -0.0820 -0.3749
 3658TIP3    H132465   6.020   0.345   1.380 -1.4677  3.2975 -1.0572
 3658TIP3    H232466   6.008   0.246   1.494  4.5056  1.4941 -1.6463
 3659TIP3   OH232467   3.443   6.388   3.166 -0.3456  0.3949 -0.0744
 3659TIP3    H132468   3.369   6.397   3.226 -0.3302 -0.7932  0.1558
 3659TIP3    H232469   3.483   6.475   3.163 -0.9618  0.7201  0.8309
 3660TIP3   OH232470   6.568   3.368  15.669  0.1481 -0.3264  0.6016
 3660TIP3    H132471   6.519   3.411  15.740  1.0470  0.9633  0.4869
 3660TIP3    H232472   6.591   3.440  15.609 -0.1030 -1.3074 -0.7069
 3661TIP3   OH232473   2.101   2.591   5.492 -0.5077  0.7070  0.2125
 3661TIP3    H132474   2.184   2.552   5.519 -0.6217  0.6821  0.5308
 3661TIP3    H232475   2.036   2.553   5.551 -0.9770 -0.3772 -0.9805
 3662TIP3   OH232476   4.946   1.630  11.446 -0.3134  0.3451 -0.3516
 3662TIP3    H132477   4.955   1.657  11.538  1.4577 -0.7585 -0.1560
 3662TIP3    H232478   5.028   1.658  11.405 -0.2935 -0.8003 -1.1368
 3663TIP3   OH232479   0.017   5.274   2.552 -0.6650  0.3881  0.5786
 3663TIP3    H132480   0.033   5.332   2.626 -1.2434  1.0494  0.2041
 3663TIP3    H232481  -0.071   5.239   2.569 -0.9960  0.9055 -0.0121
 3664TIP3   OH232482   6.781   1.433   3.810  0.2232  0.5195  0.0607
 3664TIP3    H132483   6.730   1.515   3.815 -2.9620 -1.2550 -0.4870
 3664TIP3    H232484   6.822   1.425   3.896 -2.1595  1.1042  1.3312
 3665TIP3   OH232485   3.789   1.119  17.065  0.1831  0.1936  0.6544
 3665TIP3    H132486   3.772   1.213  17.075 -0.3028  0.1118  0.6274
 3665TIP3    H232487   3.844   1.097  17.140  3.4421  1.2225 -1.2403
 3666TIP3   OH232488   3.675   4.084  12.759 -0.1442 -0.1669 -0.0301
 3666TIP3    H132489   3.696   4.111  12.670  1.2318 -0.0033  0.3161
 3666TIP3    H232490   3.593   4.036  12.751 -0.2882  0.2456 -1.3082
 3667TIP3   OH232491   5.962   0.521   6.368 -0.4147 -0.0408  0.0073
 3667TIP3    H132492   5.984   0.486   6.282 -2.0288 -1.0397 -0.0326
 3667TIP3    H232493   5.991   0.453   6.430  0.5784  0.5953  0.2737
 3668TIP3   OH232494   3.831   4.514  11.123  0.7079  0.2346  0.0709
 3668TIP3    H132495   3.810   4.426  11.094  1.5127  0.0659 -0.0088
 3668TIP3    H232496   3.753   4.542  11.172  0.0413 -0.1262 -0.7504
 3669TIP3   OH232497   4.391   0.720  12.563  0.2573  0.0463  0.1283
 3669TIP3    H132498   4.310   0.769  12.547  0.0586  0.1057  1.2031
 3669TIP3    H232499   4.374   0.674  12.646  0.8966 -0.8670 -0.2354
 3670TIP3   OH232500   1.266   1.618   3.181 -0.0466  0.2591 -0.4396
 3670TIP3    H132501   1.332   1.561   3.220 -0.6685  0.5161  1.0513
 3670TIP3    H232502   1.277   1.606   3.087  0.3057 -1.7679 -0.1835
 3671TIP3   OH232503   4.355   0.061   0.528  0.2587  0.8182  0.6201
 3671TIP3    H132504   4.331  -0.007   0.465  0.5500  0.5346  0.8165
 3671TIP3    H232505   4.272   0.091   0.564  0.2362 -1.1876  2.3901
 3672TIP3   OH232506   4.086   2.379   0.873  0.5330  0.1757 -0.2823
 3672TIP3    H132507   4.056   2.349   0.959  1.6839  0.5128  0.2657
 3672TIP3    H232508   4.135   2.304   0.838 -0.0119  0.0069 -0.6877
 3673TIP3   OH232509   0.610   4.762  13.794  0.1445 -0.5857  0.3435
 3673TIP3    H132510   0.628   4.669  13.804  0.9175 -0.6827 -1.5204
 3673TIP3    H232511   0.697   4.803  13.793 -0.1810  0.1549  1.0008
 3674TIP3   OH232512   1.534   3.197   5.753  0.1650 -0.0982 -0.1189
 3674TIP3    H132513   1.483   3.230   5.827 -1.6703  0.5961 -1.5939
 3674TIP3    H232514   1.468   3.181   5.685  1.8408 -0.1925 -1.7871
 3675TIP3   OH232515   1.153   0.450  14.455  0.3364  0.1772 -0.2459
 3675TIP3    H132516   1.080   0.388  14.454 -1.3754  1.8340  3.1948
 3675TIP3    H232517   1.227   0.402  14.416 -1.5061 -3.0299 -0.1131
 3676TIP3   OH232518   4.097   6.592   2.221 -0.3993 -0.5243 -0.1247
 3676TIP3    H132519   4.093   6.497   2.228  0.9921 -0.6859 -1.1956
 3676TIP3    H232520   4.064   6.611   2.133  1.4665 -0.2277 -0.7968
 3677TIP3   OH232521   3.100   6.628   2.570  0.2453 -0.3755  0.2407
 3677TIP3    H132522   3.180   6.651   2.523 -0.5293  0.6730 -0.6120
 3677TIP3    H232523   3.115   6.538   2.599  1.1428 -0.7281 -1.1869
 3678TIP3   OH232524   5.777   3.865  12.954  0.2336  0.0824 -0.3026
 3678TIP3    H132525   5.871   3.881  12.956  0.4386 -0.9447 -1.0217
 3678TIP3    H232526   5.748   3.902  12.870  0.0687  0.0109 -0.2772
 3679TIP3   OH232527   2.783   6.786  10.568 -0.2345 -0.1375 -0.4323
 3679TIP3    H132528   2.859   6.814  10.518  1.2854  2.4165  2.9245
 3679TIP3    H232529   2.800   6.694  10.588  0.9966 -0.1242 -1.3285
 3680TIP3   OH232530   0.819   2.255   3.079  0.4951  0.2974  0.0558
 3680TIP3    H132531   0.854   2.286   3.163  1.8621 -0.0279 -0.3757
 3680TIP3    H232532   0.789   2.335   3.035  0.1590  0.5171  0.6622
 3681TIP3   OH232533   5.852   0.543  13.395  0.2074 -0.3436  0.3774
 3681TIP3    H132534   5.807   0.610  13.343 -1.3665 -1.1991  0.5593
 3681TIP3    H232535   5.909   0.498  13.332 -1.5110 -1.2296 -0.6384
 3682TIP3   OH232536   1.163   5.321  12.069  0.8497 -0.2439  0.6483
 3682TIP3    H132537   1.069   5.313  12.056  0.5571  0.5351  2.1335
 3682TIP3    H232538   1.201   5.292  11.985 -0.7497  1.2086 -0.6426
 3683TIP3   OH232539   0.235   0.146   5.590  0.1451  0.2470  0.0795
 3683TIP3    H132540   0.230   0.119   5.682  1.3482 -0.2617  0.0235
 3683TIP3    H232541   0.322   0.184   5.581 -0.6166  1.9349 -0.4527
 3684TIP3   OH232542   0.166   1.621  12.466  0.0107 -0.1042 -0.1520
 3684TIP3    H132543   0.097   1.579  12.414 -0.6324 -0.0381  0.6338
 3684TIP3    H232544   0.214   1.548  12.505  1.7844 -0.2451 -2.3958
 3685TIP3   OH232545   5.866   0.487   3.839  0.4942 -0.2577  0.0754
 3685TIP3    H132546   5.806   0.466   3.768  0.2023 -0.2008  0.3069
 3685TIP3    H232547   5.811   0.521   3.909  0.7957 -0.1808  0.2803
 3686TIP3   OH232548   4.906   2.585  10.876 -0.1787 -0.0695 -0.0444
 3686TIP3    H132549   4.817   2.562  10.849 -0.3254  1.3696 -0.8748
 3686TIP3    H232550   4.958   2.579  10.796 -0.0883  1.6788 -0.1592
 3687TIP3   OH232551   2.887   0.716   4.798 -0.6689  0.0984  0.5378
 3687TIP3    H132552   2.926   0.787   4.849 -0.2836  2.1402 -2.3858
 3687TIP3    H232553   2.962   0.674   4.755 -1.2001  0.4184 -0.7291
 3688TIP3   OH232554   2.851   0.808  16.949 -0.0545  0.5624 -0.4809
 3688TIP3    H132555   2.894   0.845  17.027 -2.5252  0.4567  1.0230
 3688TIP3    H232556   2.854   0.879  16.885  1.3630  0.9184 -0.0652
 3689TIP3   OH232557   0.223   1.111  12.402  0.6300  0.1499  0.3966
 3689TIP3    H132558   0.180   1.052  12.340  1.5145 -0.8815  0.7552
 3689TIP3    H232559   0.235   1.192  12.353  0.1077 -0.2092 -0.3450
 3690TIP3   OH232560   6.015   4.089   6.111 -0.0611 -0.4908 -0.0859
 3690TIP3    H132561   6.030   4.137   6.192 -1.7492 -1.0613  0.6065
 3690TIP3    H232562   6.021   4.155   6.042  1.1318  0.0487  0.5093
 3691TIP3   OH232563   5.392   6.168  13.527  0.7392 -0.3893 -0.1440
 3691TIP3    H132564   5.339   6.091  13.545 -1.2908  0.2939 -2.5824
 3691TIP3    H232565   5.464   6.136  13.473 -0.6482 -0.5551 -2.0125
 3692TIP3   OH232566   1.415   6.766  16.585  0.1584  0.3063  0.4280
 3692TIP3    H132567   1.423   6.751  16.491 -1.1245  1.3252  0.1218
 3692TIP3    H232568   1.430   6.860  16.595 -2.9128  0.8753  0.7521
 3693TIP3   OH232569   4.939   2.712  14.943  0.3553  0.0349 -0.1999
 3693TIP3    H132570   4.905   2.787  14.893 -2.5898  0.9288  2.7284
 3693TIP3    H232571   4.890   2.637  14.910  1.8542 -0.3237 -1.7520
 3694TIP3   OH232572   5.364   2.378   2.857  0.6309  0.6525 -0.3994
 3694TIP3    H132573   5.342   2.290   2.827  0.0413  0.9269 -0.7846
 3694TIP3    H232574   5.351   2.375   2.952  0.2668  0.4177 -0.4554
 3695TIP3   OH232575   6.087   2.272  15.025 -0.3139 -0.4377 -0.4943
 3695TIP3    H132576   6.087   2.180  15.049  0.9716 -0.7479 -1.5431
 3695TIP3    H232577   6.103   2.272  14.931 -0.4984  0.8568 -0.5486
 3696TIP3   OH232578   5.479   4.826  11.030 -0.5350  0.0307 -0.1847
 3696TIP3    H132579   5.422   4.885  10.981 -1.6322 -2.2765 -1.8877
 3696TIP3    H232580   5.450   4.834  11.121  0.0414  2.7704 -0.1647
 3697TIP3   OH232581   3.851   2.704  16.861 -0.4004 -0.3240  0.3931
 3697TIP3    H132582   3.932   2.682  16.815 -1.1239 -1.7882 -0.2859
 3697TIP3    H232583   3.784   2.703  16.792 -1.4652 -2.2990  1.3711
 3698TIP3   OH232584   1.501   2.048   1.726  0.3553  0.3712 -0.1800
 3698TIP3    H132585   1.445   2.095   1.665 -2.1293  0.3995  1.9379
 3698TIP3    H232586   1.565   2.003   1.671 -0.1064  2.4115 -2.5759
 3699TIP3   OH232587   2.491   2.233   3.789  0.3057  0.1310  0.2676
 3699TIP3    H132588   2.567   2.290   3.774 -0.5639  1.0792 -0.7742
 3699TIP3    H232589   2.528   2.152   3.824  1.8699  0.3071 -0.8625
 3700TIP3   OH232590   4.297   3.055  16.316  0.4933  0.1999 -0.2398
 3700TIP3    H132591   4.359   2.982  16.314  1.8298  1.2502  1.1315
 3700TIP3    H232592   4.331   3.118  16.252  1.6196  1.3344  1.4079
 3701TIP3   OH232593   4.283   4.800   5.742  0.6883  0.2418 -0.6439
 3701TIP3    H132594   4.248   4.840   5.821 -0.2289 -0.3242 -0.7478
 3701TIP3    H232595   4.284   4.872   5.677 -1.4399  0.0297 -0.9864
 3702TIP3   OH232596   1.578   6.039  14.499 -0.3136 -0.0268 -0.1840
 3702TIP3    H132597   1.651   5.990  14.462 -1.2969 -0.8057 -1.1302
 3702TIP3    H232598   1.606   6.059  14.588 -0.0226 -2.6275  0.3720
 3703TIP3   OH232599   4.120   1.037   0.133  0.2564 -0.2821 -0.4180
 3703TIP3    H132600   4.130   1.124   0.094  1.8552 -1.2061 -2.1877
 3703TIP3    H232601   4.058   0.992   0.076 -2.8474  0.4615  2.0417
 3704TIP3   OH232602   2.799   5.256  16.208 -0.4239 -0.1533 -0.6776
 3704TIP3    H132603   2.787   5.165  16.181  0.4721 -0.7332  0.7973
 3704TIP3    H232604   2.741   5.305  16.150 -3.4428 -1.9581  0.5802
 3705TIP3   OH232605   1.667   0.863   0.325  0.3981  0.2859 -0.0119
 3705TIP3    H132606   1.762   0.876   0.336  0.4222 -0.0113  0.1379
 3705TIP3    H232607   1.633   0.951   0.311  0.1957  0.9117  3.6071
 3706TIP3   OH232608   0.165   3.519  12.361  0.3323  0.1946 -0.2213
 3706TIP3    H132609   0.177   3.567  12.443 -1.3311 -1.1736  0.8910
 3706TIP3    H232610   0.097   3.568  12.315  0.0387  0.0154  0.0164
 3707TIP3   OH232611   2.846   3.106  16.821 -0.0595  0.4919  0.3344
 3707TIP3    H132612   2.820   3.015  16.808 -2.6486  1.2944 -0.6030
 3707TIP3    H232613   2.887   3.132  16.739 -0.2398  0.4747  0.2402
 3708TIP3   OH232614   3.409   3.981  16.504  0.1114 -0.4714 -0.4753
 3708TIP3    H132615   3.412   4.077  16.502 -0.3770 -0.4639 -1.7986
 3708TIP3    H232616   3.436   3.954  16.417  0.5236 -1.5625 -0.0259
 3709TIP3   OH232617   1.456   6.179  16.107 -0.1577  0.3850 -0.4948
 3709TIP3    H132618   1.427   6.242  16.041  0.8624  0.5027 -0.8418
 3709TIP3    H232619   1.384   6.117  16.114 -1.1531  1.5382 -0.1957
 3710TIP3   OH232620   3.946   3.720  16.465 -0.4281 -0.5338  0.6279
 3710TIP3    H132621   3.964   3.679  16.550 -1.1250 -1.9405  0.1303
 3710TIP3    H232622   3.934   3.813  16.485  1.3769 -0.4988  1.7835
 3711TIP3   OH232623   4.480   2.939   0.417  0.1578  0.7345  0.5204
 3711TIP3    H132624   4.499   2.936   0.324 -0.2697  1.6693  0.3888
 3711TIP3    H232625   4.560   2.910   0.460  0.0415 -0.6722 -0.1494
 3712TIP3   OH232626   2.181   6.368  11.830 -0.4394  0.0135  0.2155
 3712TIP3    H132627   2.240   6.412  11.891 -2.4832  1.3737  1.3228
 3712TIP3    H232628   2.154   6.437  11.769  0.4574 -1.0035 -1.4211
 3713TIP3   OH232629   5.473   5.172  14.971 -0.6334  0.4900  0.5553
 3713TIP3    H132630   5.439   5.114  14.903 -1.7681  1.1751  0.5015
 3713TIP3    H232631   5.509   5.114  15.037  0.2990 -0.1950 -0.5303
 3714TIP3   OH232632   4.520   3.124   1.938  0.3194 -0.2650 -0.7100
 3714TIP3    H132633   4.578   3.170   1.878 -0.5380  2.7867  0.6220
 3714TIP3    H232634   4.519   3.178   2.017 -0.9506 -2.5189  0.9539
 3715TIP3   OH232635   6.439   3.491   5.759  0.3613  0.3742 -0.2278
 3715TIP3    H132636   6.396   3.407   5.745 -0.2023  0.4611  0.8601
 3715TIP3    H232637   6.368   3.552   5.780  1.0246 -0.0447  4.2881
 3716TIP3   OH232638   2.727   4.511   1.528  0.0344  0.0116  0.0455
 3716TIP3    H132639   2.697   4.442   1.469  1.4238 -0.6943  0.1240
 3716TIP3    H232640   2.751   4.464   1.608  0.5294  0.6491  0.2776
 3717TIP3   OH232641   6.435   0.498  12.845 -0.1327 -0.5347  0.1167
 3717TIP3    H132642   6.396   0.480  12.759 -0.6087 -0.4728  0.3147
 3717TIP3    H232643   6.388   0.576  12.876  1.0131  0.3020 -0.1757
 3718TIP3   OH232644   0.245   6.528  10.966  0.1694  0.6161 -0.0600
 3718TIP3    H132645   0.261   6.502  10.875 -0.3222  3.1546 -0.9637
 3718TIP3    H232646   0.180   6.466  10.997  1.0930 -0.9305 -1.0853
 3719TIP3   OH232647   1.699   5.896  12.905  0.7237  0.0370  0.6766
 3719TIP3    H132648   1.715   5.965  12.841  1.2330  0.0745  0.8390
 3719TIP3    H232649   1.785   5.875  12.940  0.3535  0.7069  2.0752
 3720TIP3   OH232650   1.260   3.900  11.556 -0.1320  0.4417 -0.1780
 3720TIP3    H132651   1.306   3.816  11.553 -0.0036  0.5102 -0.1513
 3720TIP3    H232652   1.328   3.964  11.579 -0.3218  0.4846  0.2745
 3721TIP3   OH232653   2.544   3.410  13.159 -0.3642 -0.3337  0.8645
 3721TIP3    H132654   2.606   3.370  13.098  1.3528  0.5927  1.9329
 3721TIP3    H232655   2.515   3.490  13.114 -1.7812 -1.3733 -0.1518
 3722TIP3   OH232656   0.235   6.537  14.216  0.0347  0.5207  0.6906
 3722TIP3    H132657   0.161   6.596  14.227  0.0860  0.7429 -0.0653
 3722TIP3    H232658   0.201   6.464  14.164  0.4328  0.8255 -0.0177
 3723TIP3   OH232659   6.455   0.882   1.932 -0.0530  0.0952  0.1477
 3723TIP3    H132660   6.544   0.899   1.901 -0.2692  0.0600 -0.5150
 3723TIP3    H232661   6.410   0.844   1.856 -0.7275  0.4307  0.3706
 3724TIP3   OH232662   4.493   0.642  11.248 -0.1374 -0.0981 -0.2438
 3724TIP3    H132663   4.426   0.694  11.203 -1.3487 -0.5973  0.8878
 3724TIP3    H232664   4.526   0.699  11.317 -0.0075 -0.1496 -0.2626
 3725TIP3   OH232665   5.843   3.631  11.800  0.0820 -0.1432  0.2456
 3725TIP3    H132666   5.895   3.696  11.848  0.4420 -0.4192  0.2410
 3725TIP3    H232667   5.908   3.580  11.751 -0.2084 -0.4053  0.1268
 3726TIP3   OH232668   4.909   2.697  15.226 -0.0263 -0.4421 -0.5961
 3726TIP3    H132669   4.888   2.702  15.133 -0.3195 -2.2323 -0.6689
 3726TIP3    H232670   4.989   2.644  15.229 -0.4700 -1.0938  0.1947
 3727TIP3   OH232671   0.622   4.277  16.101  0.4568  0.4814  0.7178
 3727TIP3    H132672   0.704   4.279  16.150  0.6074  1.5121  0.4567
 3727TIP3    H232673   0.596   4.369  16.095  0.0970  0.3197 -0.5471
 3728TIP3   OH232674   3.081   3.366  16.399 -0.2138 -0.1810  0.2758
 3728TIP3    H132675   3.018   3.312  16.350 -0.2458  0.6631 -0.6351
 3728TIP3    H232676   3.140   3.401  16.333  0.3421  0.2023  0.9595
 3729TIP3   OH232677   3.024   0.014  11.629  0.2315 -0.8228 -0.2715
 3729TIP3    H132678   3.100   0.004  11.687 -0.0536 -1.8030 -0.0334
 3729TIP3    H232679   3.016  -0.071  11.586 -0.4883 -0.5986 -0.5952
 3730TIP3   OH232680   1.825   1.778  13.625  1.1505  0.1724 -0.6587
 3730TIP3    H132681   1.742   1.824  13.638  0.5574 -0.3459 -2.3265
 3730TIP3    H232682   1.856   1.758  13.713 -1.3235 -1.0687  0.0191
 3731TIP3   OH232683   1.726   5.518  17.040  0.3910  0.1823 -0.4396
 3731TIP3    H132684   1.787   5.571  16.988  1.2195 -0.7290 -0.4085
 3731TIP3    H232685   1.763   5.430  17.039 -0.5691 -0.2460  0.1571
 3732TIP3   OH232686   3.265   2.191   3.552 -0.0374 -0.0613  0.6908
 3732TIP3    H132687   3.267   2.097   3.533 -0.7297  0.2196 -0.9768
 3732TIP3    H232688   3.172   2.214   3.550  0.1406  0.7040  0.8417
 3733TIP3   OH232689   3.866   5.585   6.253  0.0494 -0.4786 -0.4235
 3733TIP3    H132690   3.791   5.546   6.299  1.2378  0.0080  2.1413
 3733TIP3    H232691   3.906   5.642   6.319  1.5376  0.7922 -2.3456
 3734TIP3   OH232692   2.581   3.324  15.955  0.0795 -0.7178 -0.2841
 3734TIP3    H132693   2.636   3.365  15.887  0.2517 -1.4687 -0.6065
 3734TIP3    H232694   2.541   3.249  15.911 -1.1640 -0.2226 -0.0283
 3735TIP3   OH232695   2.410   1.370  11.946 -0.3084 -0.6018  0.3142
 3735TIP3    H132696   2.345   1.407  12.005 -0.7262 -1.5166  0.4527
 3735TIP3    H232697   2.362   1.304  11.896  0.1535 -0.1725 -0.7162
 3736TIP3   OH232698   1.730   1.767  17.168 -0.0765 -0.4806 -0.2031
 3736TIP3    H132699   1.760   1.851  17.134  0.5754 -1.0627 -1.1024
 3736TIP3    H232700   1.805   1.733  17.217 -1.3154  0.8094  2.8175
 3737TIP3   OH232701   1.409   6.187  11.107 -0.7869  0.1239 -0.5200
 3737TIP3    H132702   1.464   6.247  11.057  1.6669 -0.8817  0.7769
 3737TIP3    H232703   1.367   6.241  11.173 -1.1424  0.8645 -1.3366
 3738TIP3   OH232704   4.348   4.104   4.845  0.2057 -0.4054  0.1919
 3738TIP3    H132705   4.419   4.086   4.907  1.4314 -0.2155 -1.1189
 3738TIP3    H232706   4.312   4.188   4.874  1.6466  0.3512 -0.0901
 3739TIP3   OH232707   2.350   1.192  11.729  0.1126  0.5442  0.3569
 3739TIP3    H132708   2.367   1.116  11.785 -1.8439  0.6316  1.1797
 3739TIP3    H232709   2.374   1.164  11.641  0.5246 -0.6133  0.8206
 3740TIP3   OH232710   2.705   2.305  13.509  0.1301 -0.1939  0.6404
 3740TIP3    H132711   2.695   2.274  13.599  0.1330  0.0054  0.7081
 3740TIP3    H232712   2.656   2.241  13.456 -0.9679  0.4143  0.9071
 3741TIP3   OH232713   0.561   0.425  12.101  0.0767 -0.0986 -0.2680
 3741TIP3    H132714   0.619   0.485  12.149  0.8933 -1.5146  0.5908
 3741TIP3    H232715   0.620   0.375  12.045 -0.4693 -0.7162 -0.2996
 3742TIP3   OH232716   6.434   0.419   2.138  0.2088 -0.1243 -0.0766
 3742TIP3    H132717   6.362   0.451   2.084  0.0150 -0.6395 -0.1303
 3742TIP3    H232718   6.499   0.489   2.136  0.2333 -0.1666 -1.0450
 3743TIP3   OH232719   4.500   6.164  12.613 -0.7383 -0.5288 -0.6622
 3743TIP3    H132720   4.522   6.238  12.670 -0.5555  0.8459 -2.4563
 3743TIP3    H232721   4.560   6.094  12.640 -0.4703  0.1671  0.6248
 3744TIP3   OH232722   4.739   3.970   1.577  0.3302 -1.0476 -0.8977
 3744TIP3    H132723   4.779   4.047   1.538  1.8201 -0.3625  1.7580
 3744TIP3    H232724   4.648   3.995   1.594  1.2482  0.9386  1.6699
 3745TIP3   OH232725   0.190   6.533   0.228 -1.2250 -0.4534 -0.2422
 3745TIP3    H132726   0.280   6.519   0.199 -0.3940 -0.0194  1.9379
 3745TIP3    H232727   0.139   6.538   0.147  0.5068 -1.9181 -1.5023
 3746TIP3   OH232728   5.509   3.851  10.930 -0.3683 -0.5158  0.4292
 3746TIP3    H132729   5.456   3.890  10.861 -0.0171 -0.9435 -0.0991
 3746TIP3    H232730   5.579   3.806  10.883 -0.3794 -1.1960  1.0463
 3747TIP3   OH232731   1.984   4.650  12.451  0.0711  0.3286  0.3688
 3747TIP3    H132732   2.011   4.658  12.360  1.9727 -1.2749  0.7117
 3747TIP3    H232733   1.889   4.655  12.449  0.0423 -0.2448 -1.7724
 3748TIP3   OH232734   0.290   6.699   3.589 -0.6673  0.2007 -0.3290
 3748TIP3    H132735   0.206   6.663   3.558 -0.7168 -1.5716  1.6102
 3748TIP3    H232736   0.319   6.637   3.656  2.2721  0.7147 -0.9926
 3749TIP3   OH232737   3.819   1.620  12.483  0.4227  0.4513 -0.4272
 3749TIP3    H132738   3.825   1.536  12.439 -1.2253  0.6433 -1.1147
 3749TIP3    H232739   3.728   1.648  12.469  0.4600  1.5630  1.2168
 3750TIP3   OH232740   1.186   5.581  16.499  0.1042 -0.1729 -0.3470
 3750TIP3    H132741   1.186   5.575  16.595  1.5611  3.1169 -0.0090
 3750TIP3    H232742   1.276   5.563  16.474  0.0952  0.5545 -0.9259
 3751TIP3   OH232743   3.204   4.232  12.741  0.0910  0.9136  0.0065
 3751TIP3    H132744   3.257   4.264  12.667  1.3301  0.6616  0.7503
 3751TIP3    H232745   3.244   4.148  12.764 -1.1329  0.3424  0.1090
 3752TIP3   OH232746   2.025   5.649   4.966 -0.5112 -0.4491 -0.3094
 3752TIP3    H132747   2.026   5.665   4.872 -0.5663 -0.5032 -0.3197
 3752TIP3    H232748   1.940   5.684   4.995 -1.4317 -2.2862 -0.6130
 3753TIP3   OH232749   1.269   6.398   3.166 -0.3380  0.0014  0.2285
 3753TIP3    H132750   1.339   6.454   3.198 -0.9563  2.7935 -2.8005
 3753TIP3    H232751   1.215   6.380   3.243  0.5445  2.6422  1.5852
 3754TIP3   OH232752   5.837   3.409   1.303 -0.1613  0.2931  0.2973
 3754TIP3    H132753   5.812   3.436   1.215 -0.0038  0.0857  0.1882
 3754TIP3    H232754   5.858   3.316   1.295 -2.5532 -0.3767  1.0320
 3755TIP3   OH232755   3.631   3.861   6.203  0.0683 -0.3060 -0.1425
 3755TIP3    H132756   3.550   3.909   6.186  0.1571 -0.5838 -1.4808
 3755TIP3    H232757   3.693   3.896   6.140  1.5471  1.1319  1.9899
 3756TIP3   OH232758   0.830   3.305   4.644  0.0805 -0.1167  0.0960
 3756TIP3    H132759   0.851   3.383   4.593 -0.0938  0.4179  0.8197
 3756TIP3    H232760   0.797   3.242   4.580 -3.6591  1.7546 -0.0415
 3757TIP3   OH232761   4.716   3.006   2.617  0.1448 -0.6134  0.2755
 3757TIP3    H132762   4.717   2.959   2.534 -0.9167  0.0878 -0.1472
 3757TIP3    H232763   4.753   3.092   2.596 -0.9099 -0.1309  0.3215
 3758TIP3   OH232764   1.858   5.682  16.861 -0.2556 -0.3089 -0.1718
 3758TIP3    H132765   1.786   5.704  16.802 -0.3357 -0.1122 -0.0015
 3758TIP3    H232766   1.914   5.759  16.861 -0.9136  0.1998  0.9811
 3759TIP3   OH232767   0.613   3.824  14.086 -0.2054 -0.1559  0.7247
 3759TIP3    H132768   0.665   3.896  14.122 -2.5830  0.7812  2.5199
 3759TIP3    H232769   0.626   3.752  14.147  0.1104 -0.4275  0.3477
 3760TIP3   OH232770   3.908   0.791   0.927 -1.0953 -0.3509 -0.2681
 3760TIP3    H132771   3.875   0.701   0.923 -0.8579 -0.6197  2.3237
 3760TIP3    H232772   3.865   0.829   1.003  1.9184  0.3737  1.2285
 3761TIP3   OH232773   6.176   4.495  12.283 -0.6362  1.1122 -0.0325
 3761TIP3    H132774   6.271   4.506  12.278 -0.6903  1.7770  0.2731
 3761TIP3    H232775   6.143   4.534  12.202 -0.7454  2.2337  0.5319
 3762TIP3   OH232776   5.272   5.723  11.488 -0.1355 -0.0888  0.5037
 3762TIP3    H132777   5.204   5.734  11.554  0.0092 -0.1451  0.6662
 3762TIP3    H232778   5.342   5.782  11.516 -0.3369  0.3799  0.0321
 3763TIP3   OH232779   4.993   3.325   4.101  0.3725  0.4577 -0.0396
 3763TIP3    H132780   5.031   3.410   4.076 -1.6990  1.3689 -0.2468
 3763TIP3    H232781   4.946   3.344   4.182  0.6136 -0.7253  0.3896
 3764TIP3   OH232782   6.028   1.888   5.346 -0.2717 -0.0118 -0.4273
 3764TIP3    H132783   5.991   1.804   5.372 -0.8909  0.0618 -1.0187
 3764TIP3    H232784   6.112   1.867   5.306  0.2414 -0.2081  0.7268
 3765TIP3   OH232785   4.266   2.805  14.716 -0.9666  0.1161 -0.2900
 3765TIP3    H132786   4.274   2.896  14.746 -0.9761 -0.3366  1.1756
 3765TIP3    H232787   4.173   2.793  14.700 -0.7765  0.8400 -2.1762
 3766TIP3   OH232788   5.808   1.381   1.256 -0.1953 -0.6074 -0.1326
 3766TIP3    H132789   5.860   1.363   1.334 -1.8255 -3.5382  0.4291
 3766TIP3    H232790   5.822   1.305   1.200  1.3937  1.6847 -3.1013
 3767TIP3   OH232791   3.708   5.616   2.704  0.6311  0.6167 -0.0760
 3767TIP3    H132792   3.775   5.626   2.771  1.6111  0.9531 -1.0826
 3767TIP3    H232793   3.756   5.601   2.623 -0.5172  0.5549 -0.7740
 3768TIP3   OH232794   5.153   0.239  11.979  0.1797 -0.3468  0.6742
 3768TIP3    H132795   5.240   0.232  11.941 -0.4181 -0.2786 -0.7583
 3768TIP3    H232796   5.155   0.321  12.028  1.1629 -0.7593  1.3663
 3769TIP3   OH232797   4.869   3.370   4.595 -0.1684 -0.3469  0.1010
 3769TIP3    H132798   4.838   3.461   4.588  3.3501  1.0677  0.7410
 3769TIP3    H232799   4.870   3.352   4.689 -0.1709 -0.8052  0.0135
 3770TIP3   OH232800   0.126   0.212  13.246 -0.0541  0.5054 -0.4109
 3770TIP3    H132801   0.157   0.178  13.162  2.0199  1.0419  0.0751
 3770TIP3    H232802   0.059   0.150  13.274  1.4530 -1.4704 -0.9742
 3771TIP3   OH232803   2.939   0.237   0.437  0.2839  0.4383  0.2776
 3771TIP3    H132804   2.958   0.316   0.387 -3.0002  0.5251 -1.1271
 3771TIP3    H232805   2.939   0.167   0.372  3.4317 -0.9160  1.5429
 3772TIP3   OH232806   1.228   6.306  13.014 -0.0397  0.9974  0.0791
 3772TIP3    H132807   1.320   6.287  12.994 -0.0946 -0.5411  1.0397
 3772TIP3    H232808   1.183   6.223  13.000 -1.2643  1.6816 -0.1887
 3773TIP3   OH232809   2.383   0.568   2.524  0.3301  0.5003  0.4807
 3773TIP3    H132810   2.371   0.661   2.506 -0.0736  0.6236  1.3224
 3773TIP3    H232811   2.474   0.559   2.550  0.8215  0.3795 -1.1404
 3774TIP3   OH232812   6.361   5.916   3.366  0.5202 -0.3203 -0.1292
 3774TIP3    H132813   6.287   5.921   3.426 -0.2383 -0.7935 -0.9918
 3774TIP3    H232814   6.372   6.006   3.334  0.6238 -0.1608  0.3509
 3775TIP3   OH232815   3.057   6.194   1.037 -0.5003 -0.1910 -0.1263
 3775TIP3    H132816   3.052   6.289   1.050 -0.6120 -0.3638  1.2660
 3775TIP3    H232817   3.118   6.183   0.965 -0.6551  0.9491 -0.4606
 3776TIP3   OH232818   3.135   5.310   4.155 -0.6647 -0.6050  0.3890
 3776TIP3    H132819   3.188   5.322   4.233 -0.0925 -2.0865  0.2695
 3776TIP3    H232820   3.046   5.295   4.188 -1.1799  2.3352  0.5690
 3777TIP3   OH232821   2.621   0.755   6.251  0.3518 -0.6283 -0.4299
 3777TIP3    H132822   2.651   0.844   6.239  0.3521 -0.2671  1.8019
 3777TIP3    H232823   2.532   0.755   6.215  0.1459  0.4220  0.0476
 3778TIP3   OH232824   5.867   3.718  15.317  0.0680  0.2489 -0.6106
 3778TIP3    H132825   5.811   3.689  15.389 -0.6853 -0.9614 -1.6467
 3778TIP3    H232826   5.827   3.801  15.289  0.5388  0.8833  0.5126
 3779TIP3   OH232827   4.282   0.132  14.872  0.1324  0.3159  0.1011
 3779TIP3    H132828   4.334   0.202  14.910  2.0141 -0.5918 -0.6651
 3779TIP3    H232829   4.245   0.170  14.792  1.8101  0.2691 -0.7485
 3780TIP3   OH232830   6.460   1.784  13.197 -0.3857 -0.2314 -0.2228
 3780TIP3    H132831   6.457   1.765  13.103  1.4386 -1.3971 -0.0766
 3780TIP3    H232832   6.371   1.766  13.227 -0.9119 -0.1643 -1.6502
 3781TIP3   OH232833   5.746   3.748   2.236  0.1030  0.6243  0.0527
 3781TIP3    H132834   5.801   3.766   2.312  1.1459 -0.0299 -0.5222
 3781TIP3    H232835   5.713   3.659   2.251  0.0071  0.6382 -0.0739
 3782TIP3   OH232836   2.236   3.979  12.941 -0.4376 -0.0872  0.0311
 3782TIP3    H132837   2.294   4.054  12.931  1.0797 -1.2379 -0.1901
 3782TIP3    H232838   2.148   4.017  12.945  0.3547  1.7662  1.0721
 3783TIP3   OH232839   5.243   3.665   3.561 -0.0601  0.1321 -0.2482
 3783TIP3    H132840   5.211   3.586   3.518 -0.9969  0.1908  0.3035
 3783TIP3    H232841   5.293   3.711   3.494 -1.8138  0.4228 -1.4314
 3784TIP3   OH232842   4.514   6.695   2.551  0.1732  0.0903  0.2082
 3784TIP3    H132843   4.426   6.721   2.522  0.2515 -0.2118 -0.3115
 3784TIP3    H232844   4.512   6.599   2.549  0.3673  0.0762  0.6466
 3785TIP3   OH232845   1.950   3.729   4.835  0.3521 -0.3903 -0.1466
 3785TIP3    H132846   2.030   3.754   4.789  0.7656  0.1333  0.8196
 3785TIP3    H232847   1.906   3.812   4.855 -0.0452 -0.6297 -0.0008
 3786TIP3   OH232848   4.612   5.580   4.833 -0.0008 -0.0076  0.9236
 3786TIP3    H132849   4.683   5.606   4.775 -2.3639  2.7231 -1.0647
 3786TIP3    H232850   4.598   5.657   4.889 -2.2188  0.1208  0.2738
 3787TIP3   OH232851   1.239   6.441   4.336 -0.7180  0.3315 -0.2624
 3787TIP3    H132852   1.326   6.480   4.334 -0.4930 -0.1013  0.6033
 3787TIP3    H232853   1.226   6.405   4.248  1.2905 -2.4177  0.4581
 3788TIP3   OH232854   3.603   1.190   5.334 -0.2066 -0.3899  0.0678
 3788TIP3    H132855   3.669   1.170   5.400 -0.3118 -2.5135 -0.3878
 3788TIP3    H232856   3.636   1.150   5.253 -0.6700  1.0685 -0.8804
 3789TIP3   OH232857   2.958   3.620  14.008 -0.1681 -0.0459  0.1933
 3789TIP3    H132858   2.871   3.593  13.981 -0.1612 -2.1887  2.0168
 3789TIP3    H232859   2.989   3.677  13.937 -2.4883 -0.3151 -1.1253
 3790TIP3   OH232860   5.660   5.609  15.545  0.1270 -0.3966  0.0295
 3790TIP3    H132861   5.751   5.622  15.519 -0.4789  0.6809 -1.7485
 3790TIP3    H232862   5.659   5.627  15.639  1.5242  0.8731 -0.1487
 3791TIP3   OH232863   1.854   4.600   3.074  0.3430 -0.2186  0.1638
 3791TIP3    H132864   1.903   4.656   3.014 -0.0088  0.6382  0.6610
 3791TIP3    H232865   1.772   4.582   3.028  0.9457 -1.3455 -0.5089
 3792TIP3   OH232866   3.083   0.787  11.252 -0.8727 -0.6617  0.1468
 3792TIP3    H132867   3.066   0.704  11.208  1.9401 -1.1129 -0.2910
 3792TIP3    H232868   3.019   0.790  11.323 -0.9919 -3.2780  0.2500
 3793TIP3   OH232869   4.635   0.305   3.020 -0.1070  0.7581  0.4297
 3793TIP3    H132870   4.726   0.292   2.994 -0.3844  0.6446 -0.5625
 3793TIP3    H232871   4.635   0.297   3.115  0.4229 -2.5579  0.2795
 3794TIP3   OH232872   4.270   4.684   4.321  0.8332 -0.7072  0.4967
 3794TIP3    H132873   4.326   4.618   4.280 -0.7495 -1.6681 -0.2055
 3794TIP3    H232874   4.181   4.653   4.307 -0.0009  1.6994 -0.0523
 3795TIP3   OH232875   5.979   3.437  13.421  0.4862  0.3678 -0.1884
 3795TIP3    H132876   5.949   3.406  13.506  0.9789  1.2657  0.3348
 3795TIP3    H232877   5.901   3.433  13.366  0.6316 -2.2084 -0.3235
 3796TIP3   OH232878   2.062   5.908   2.696 -0.6902  0.6162  0.6600
 3796TIP3    H132879   2.043   5.917   2.790  0.3159 -1.3292  1.1002
 3796TIP3    H232880   2.154   5.882   2.693 -0.4175  1.6213 -0.9522
 3797TIP3   OH232881   5.544   5.454   1.181 -0.4542  0.0804  0.4094
 3797TIP3    H132882   5.601   5.513   1.230 -0.7198 -0.1749  1.0268
 3797TIP3    H232883   5.555   5.481   1.090  1.2524 -0.4576  0.4140
 3798TIP3   OH232884   4.090   6.625  14.113 -0.3747 -0.3071 -0.3126
 3798TIP3    H132885   4.030   6.553  14.136 -0.8247  0.2897  0.4546
 3798TIP3    H232886   4.069   6.694  14.176 -0.3078  0.7005 -1.3628
 3799TIP3   OH232887   1.620   1.981  11.510 -0.1868  0.3854  0.2144
 3799TIP3    H132888   1.677   2.057  11.525  0.6291 -0.0025 -0.7308
 3799TIP3    H232889   1.677   1.918  11.465 -1.4441  0.0904 -1.0223
 3800TIP3   OH232890   4.185   1.450   4.916  0.5249 -0.0211 -0.0566
 3800TIP3    H132891   4.196   1.364   4.958  1.1555  0.2454  0.3307
 3800TIP3    H232892   4.265   1.462   4.865  0.5968  0.4907  0.1732
 3801TIP3   OH232893   5.437   4.410  14.799  0.2083 -0.3467 -0.5372
 3801TIP3    H132894   5.349   4.374  14.802 -0.7873  1.9923  1.0005
 3801TIP3    H232895   5.441   4.455  14.714 -0.6289  0.7628 -0.0070
 3802TIP3   OH232896   5.017   3.477   0.398 -0.2669 -0.2754 -0.4343
 3802TIP3    H132897   5.012   3.537   0.323  0.3214  0.3549  0.0245
 3802TIP3    H232898   4.930   3.438   0.403 -0.8619  1.0179 -0.3403
 3803TIP3   OH232899   0.830   5.149   0.033 -0.1373  0.2903 -0.0627
 3803TIP3    H132900   0.871   5.207   0.097 -0.6828 -1.6115  2.1201
 3803TIP3    H232901   0.854   5.061   0.061 -1.1876 -0.6596 -1.9510
 3804TIP3   OH232902   4.629   1.115  15.989  0.1656  0.0933 -0.2069
 3804TIP3    H132903   4.664   1.033  15.954  0.3619  0.5072 -0.9915
 3804TIP3    H232904   4.537   1.115  15.962  0.5833  0.9427 -1.7625
 3805TIP3   OH232905   3.014   0.958   6.186  0.0229  0.2071 -0.0813
 3805TIP3    H132906   3.034   0.947   6.093  0.2945  1.4203 -0.1821
 3805TIP3    H232907   2.977   1.047   6.192 -3.3959 -1.0656  0.4049
 3806TIP3   OH232908   2.491   0.253  12.112 -0.8521 -0.1097  0.4082
 3806TIP3    H132909   2.576   0.220  12.084 -1.3726 -0.7545 -0.4414
 3806TIP3    H232910   2.431   0.180  12.100 -1.7896  0.7440 -0.3159
 3807TIP3   OH232911   5.995   6.254  15.341 -0.3094  0.0980  0.0147
 3807TIP3    H132912   6.015   6.300  15.423 -1.5884 -0.8670  0.9290
 3807TIP3    H232913   5.976   6.164  15.369 -1.7639 -0.0178 -1.2161
 3808TIP3   OH232914   0.115   3.303  13.050 -0.5962  0.1069 -0.1571
 3808TIP3    H132915   0.123   3.330  12.959  0.5454  1.5401  0.3156
 3808TIP3    H232916   0.202   3.315  13.087 -1.1817  0.2456  1.2845
 3809TIP3   OH232917   1.766   4.077  13.613 -0.3932  0.3770  0.4616
 3809TIP3    H132918   1.782   4.136  13.686 -1.7710 -1.7138  2.6143
 3809TIP3    H232919   1.845   4.022  13.608 -0.3563  0.4302  0.4653
 3810TIP3   OH232920   1.017   5.160   4.686 -0.0282  0.3811  0.1927
 3810TIP3    H132921   1.010   5.122   4.599  0.6483  3.2243 -1.2147
 3810TIP3    H232922   0.954   5.232   4.687  0.5172  0.8836  1.7791
 3811TIP3   OH232923   4.179   1.239  13.306  0.0718 -0.1223 -0.7260
 3811TIP3    H132924   4.181   1.264  13.398 -1.7050 -1.5894 -0.2229
 3811TIP3    H232925   4.263   1.197  13.290  0.2295 -0.2479  0.3551
 3812TIP3   OH232926   6.744   3.680  14.118  0.1300  0.4181 -0.1363
 3812TIP3    H132927   6.653   3.696  14.144 -0.5571 -2.7056 -0.1967
 3812TIP3    H232928   6.738   3.659  14.025  0.7761 -0.5882  0.0358
 3813TIP3   OH232929   6.480   4.056   1.332  0.5224  0.2093  0.1030
 3813TIP3    H132930   6.494   4.150   1.343 -1.1490  0.6667 -1.2483
 3813TIP3    H232931   6.505   4.039   1.241  1.9087 -0.9181  0.6547
 3814TIP3   OH232932   3.957   3.892   3.089 -0.4140 -0.4700 -0.1930
 3814TIP3    H132933   3.979   3.903   2.996  0.5305 -0.8344 -0.0247
 3814TIP3    H232934   3.931   3.979   3.118 -0.0657 -0.2118 -0.6437
 3815TIP3   OH232935   1.647   1.487  13.299 -0.0323  0.0556 -0.3354
 3815TIP3    H132936   1.591   1.528  13.233  0.7916 -0.2785 -1.2581
 3815TIP3    H232937   1.613   1.398  13.308 -2.3089  1.0213  2.2205
 3816TIP3   OH232938   5.635   2.851  15.659 -0.3777 -0.4753  0.2955
 3816TIP3    H132939   5.649   2.918  15.592  0.8414 -1.5850 -0.6080
 3816TIP3    H232940   5.586   2.782  15.615 -0.5444 -0.7302  0.8682
 3817TIP3   OH232941   6.596   0.423  14.357 -0.5090  0.5607 -0.0953
 3817TIP3    H132942   6.675   0.477  14.365  1.7483 -2.5864  0.3907
 3817TIP3    H232943   6.563   0.418  14.447  0.8976 -1.0263  0.3810
 3818TIP3   OH232944   3.855   1.553  16.246 -0.7963  0.4733  0.2951
 3818TIP3    H132945   3.884   1.627  16.299  0.6032  0.0058  0.2358
 3818TIP3    H232946   3.904   1.478  16.281 -1.2664 -0.1969 -0.4343
 3819TIP3   OH232947   3.080   5.214   2.765 -0.2080 -0.1554 -0.1786
 3819TIP3    H132948   3.071   5.309   2.758 -0.9569  0.0229  2.1665
 3819TIP3    H232949   3.152   5.191   2.707  0.9486  2.0522  0.2978
 3820TIP3   OH232950   5.597   1.187   0.947 -0.7058  0.0718  0.2078
 3820TIP3    H132951   5.515   1.144   0.971  0.4819 -1.7799  1.2756
 3820TIP3    H232952   5.610   1.165   0.854 -1.8811  1.2445 -0.2515
 3821TIP3   OH232953   0.326   2.670   5.162  0.1331  0.0419  0.3610
 3821TIP3    H132954   0.415   2.705   5.161  0.2386 -0.2299  0.0606
 3821TIP3    H232955   0.276   2.731   5.107  0.2666 -0.1456  0.0279
 3822TIP3   OH232956   1.485   1.378   1.513  0.2984 -0.4656  0.2340
 3822TIP3    H132957   1.488   1.296   1.465 -0.0014  0.4667 -1.4605
 3822TIP3    H232958   1.576   1.394   1.539  0.6574 -0.4938 -0.9403
 3823TIP3   OH232959   4.685   5.928   5.770 -0.1260  0.3246  0.2547
 3823TIP3    H132960   4.761   5.873   5.791 -0.0158 -0.0172 -0.9471
 3823TIP3    H232961   4.672   5.982   5.848  2.5882  1.8211 -0.2167
 3824TIP3   OH232962   4.788   2.245  14.886  0.0623  0.0880 -0.3504
 3824TIP3    H132963   4.763   2.198  14.806  2.0420  0.3930 -1.2069
 3824TIP3    H232964   4.771   2.182  14.956 -0.3447 -0.7237 -1.1376
 3825TIP3   OH232965   5.390   1.194   1.213 -0.1588  0.1213 -0.6480
 3825TIP3    H132966   5.395   1.288   1.229  0.5263 -0.3579  2.7688
 3825TIP3    H232967   5.299   1.170   1.235 -0.1960 -0.1050 -1.0289
 3826TIP3   OH232968   2.038   3.534   5.583  0.4737 -0.1615 -0.5974
 3826TIP3    H132969   2.034   3.627   5.606  1.6831 -0.8630  3.1453
 3826TIP3    H232970   2.126   3.523   5.546  0.3352  0.1576 -1.0311
 3827TIP3   OH232971   3.438   3.324   6.016  0.1649 -0.0773  0.1818
 3827TIP3    H132972   3.444   3.230   6.037  2.9103 -0.0847 -0.3429
 3827TIP3    H232973   3.362   3.354   6.066 -0.2700 -2.3980  1.0570
 3828TIP3   OH232974   2.353   3.909   5.216  0.8081 -0.5061  0.3938
 3828TIP3    H132975   2.309   3.861   5.145  0.3081  0.5469 -0.0339
 3828TIP3    H232976   2.445   3.887   5.207  0.7420 -0.4200 -0.5728
 3829TIP3   OH232977   5.920   4.306   2.075  0.2734 -0.3709  0.2216
 3829TIP3    H132978   5.847   4.316   2.014  1.1728  0.1702 -0.8070
 3829TIP3    H232979   5.880   4.277   2.157 -1.1330  0.2901 -0.2111
 3830TIP3   OH232980   2.869   1.992  13.011  0.5621  0.0475 -0.0792
 3830TIP3    H132981   2.884   2.060  13.077  1.0296 -0.7012  0.6176
 3830TIP3    H232982   2.776   2.000  12.988  0.0691 -0.4235  1.5695
 3831TIP3   OH232983   6.338   1.463  13.954  0.4265 -0.0640 -0.1297
 3831TIP3    H132984   6.338   1.504  13.867  1.2472 -0.2992 -0.2516
 3831TIP3    H232985   6.376   1.528  14.012 -0.3539  0.1893  0.1149
 3832TIP3   OH232986   4.447   1.126  11.503  0.4806  0.2844 -0.4544
 3832TIP3    H132987   4.503   1.203  11.496  1.9097 -0.7184 -0.4771
 3832TIP3    H232988   4.426   1.103  11.413  2.6683 -1.1478 -0.6737
 3833TIP3   OH232989   2.873   6.219  16.259  0.1552 -0.1269  0.0947
 3833TIP3    H132990   2.909   6.140  16.217  1.0497  0.2060  0.2235
 3833TIP3    H232991   2.940   6.245  16.323 -0.5042  0.2690  0.6342
 3834TIP3   OH232992   4.159   0.537   0.905 -0.2832 -0.6709  0.4818
 3834TIP3    H132993   4.065   0.521   0.897  0.0050 -2.1133 -0.4195
 3834TIP3    H232994   4.193   0.456   0.945  0.4552  0.2508  1.8058
 3835TIP3   OH232995   3.973   1.365  11.304 -0.0398 -0.3109 -0.0182
 3835TIP3    H132996   3.894   1.327  11.265  0.8827 -0.9186 -1.3599
 3835TIP3    H232997   3.983   1.450  11.261 -0.2469  0.0083  0.5486
 3836TIP3   OH232998   4.578   4.354   0.707 -0.1809 -0.2940  0.1316
 3836TIP3    H132999   4.625   4.315   0.781 -1.7915 -2.6943  0.0164
 3836TIP3    H233000   4.632   4.332   0.631 -0.8776 -2.1740  0.1119
 3837TIP3   OH233001   2.400   6.110   4.319  0.1754 -0.2962  0.1377
 3837TIP3    H133002   2.422   6.037   4.262 -0.4907 -0.5315  0.1756
 3837TIP3    H233003   2.311   6.091   4.349  0.5012 -0.1635  1.2275
 3838TIP3   OH233004   0.892   0.668   3.261 -0.0847 -0.0325 -0.0702
 3838TIP3    H133005   0.956   0.621   3.208 -0.1540  1.0350 -1.1528
 3838TIP3    H233006   0.845   0.724   3.199  1.0051  2.6091  1.3117
 3839TIP3   OH233007   0.687   2.682  12.860  0.0989  0.0308  0.4561
 3839TIP3    H133008   0.692   2.629  12.940  1.5240 -0.5875 -0.0011
 3839TIP3    H233009   0.742   2.758  12.878  0.9571 -0.4279 -0.1370
 3840TIP3   OH233010   1.752   3.103  16.456  0.6243  0.4593 -0.4530
 3840TIP3    H133011   1.756   3.180  16.399 -1.0958  1.2714  0.4663
 3840TIP3    H233012   1.799   3.129  16.535 -0.3837  0.7753  0.0591
 3841TIP3   OH233013   4.506   3.484  17.216  0.3759 -0.4104  0.0351
 3841TIP3    H133014   4.553   3.423  17.273  0.3005 -0.7211 -0.2337
 3841TIP3    H233015   4.425   3.438  17.194  0.3361 -0.2266 -0.1982
 3842TIP3   OH233016   0.904   2.826   2.105  0.3082  0.1430 -0.1258
 3842TIP3    H133017   0.945   2.905   2.071  1.6937 -0.3331  0.3789
 3842TIP3    H233018   0.871   2.852   2.191 -0.0218  0.4017 -0.3293
 3843TIP3   OH233019   3.033   6.304  17.053 -0.1906 -0.7180  0.3542
 3843TIP3    H133020   3.074   6.388  17.033 -2.0154  0.1909  0.2406
 3843TIP3    H233021   3.076   6.275  17.133  1.1015 -0.1415 -0.0971
 3844TIP3   OH233022   1.643   5.262   0.371 -0.6635  0.3067  0.6529
 3844TIP3    H133023   1.704   5.333   0.352  0.9856 -1.3694 -0.7639
 3844TIP3    H233024   1.559   5.292   0.336 -0.6296  2.4676  2.2221
 3845TIP3   OH233025   1.230   5.974   2.093 -0.5381  0.3044 -0.1017
 3845TIP3    H133026   1.158   5.961   2.155 -0.7402  1.2253 -0.1339
 3845TIP3    H233027   1.308   5.949   2.143 -0.3803  3.4402  1.4893
 3846TIP3   OH233028   3.439   0.728  11.714 -0.1743  0.1026  0.5526
 3846TIP3    H133029   3.426   0.772  11.630 -0.0328 -1.3888 -0.2837
 3846TIP3    H233030   3.457   0.799  11.776 -2.0839  1.4112 -0.2772
 3847TIP3   OH233031   4.774   1.433   4.273  0.0743 -0.1431  0.0464
 3847TIP3    H133032   4.770   1.487   4.352  0.5351 -0.2297  0.1294
 3847TIP3    H233033   4.867   1.417   4.259  0.0832  0.8466 -1.1837
 3848TIP3   OH233034   4.824   1.394   0.777  0.4012 -0.1828 -0.1105
 3848TIP3    H133035   4.734   1.423   0.792 -0.0427 -1.1471 -0.7937
 3848TIP3    H233036   4.817   1.300   0.760  1.7826 -0.7369  1.9870
 3849TIP3   OH233037   2.513   2.029   2.430 -0.1617  0.6107 -0.4567
 3849TIP3    H133038   2.499   2.119   2.400  0.6772  0.7574 -0.4313
 3849TIP3    H233039   2.529   1.979   2.350  1.7466  0.9409 -0.3204
 3850TIP3   OH233040   0.242   6.509  14.546  0.0484  0.2884 -0.5490
 3850TIP3    H133041   0.213   6.465  14.466 -0.1650 -0.9429  0.1890
 3850TIP3    H233042   0.289   6.442  14.595  0.7444  1.2089  0.0672
 3851TIP3   OH233043   2.832   0.522  14.950  0.2069  1.0171 -0.4164
 3851TIP3    H133044   2.845   0.428  14.940 -0.1090  1.1334 -2.3935
 3851TIP3    H233045   2.920   0.559  14.954  0.3352  0.7031 -0.3770
 3852TIP3   OH233046   2.133   1.769   0.543  0.3419 -0.3652  0.0396
 3852TIP3    H133047   2.185   1.793   0.620 -1.1550  0.9666  0.6989
 3852TIP3    H233048   2.145   1.842   0.482 -1.6646  0.6475  0.7302
 3853TIP3   OH233049   4.331   6.152   5.390 -0.0226  0.1503 -0.0783
 3853TIP3    H133050   4.392   6.194   5.329 -0.0194  1.2946  0.7078
 3853TIP3    H233051   4.364   6.173   5.477  0.1116 -1.6726  0.3682
 3854TIP3   OH233052   2.501   1.390   3.369  0.3707 -0.6456 -0.2906
 3854TIP3    H133053   2.420   1.398   3.419  0.3049  1.6218 -0.6460
 3854TIP3    H233054   2.536   1.305   3.393 -1.8812 -1.4931  0.2188
 3855TIP3   OH233055   0.084   3.549   4.439  0.3971 -0.0894 -0.5736
 3855TIP3    H133056   0.039   3.471   4.406 -0.0941 -0.6477  1.2933
 3855TIP3    H233057   0.155   3.516   4.493  0.7049  0.7612 -0.4365
 3856TIP3   OH233058   2.953   5.402   4.673  0.0389 -0.2279  0.2170
 3856TIP3    H133059   2.929   5.310   4.662 -2.3096  0.2350  1.0176
 3856TIP3    H233060   2.987   5.407   4.762  1.9305 -0.5997 -0.4271
 3857TIP3   OH233061   2.155   1.908  15.454 -0.1901  0.3976 -0.3562
 3857TIP3    H133062   2.144   2.001  15.433 -1.3993  0.0079 -1.6171
 3857TIP3    H233063   2.066   1.873  15.453  0.2471 -0.7829  0.1532
 3858TIP3   OH233064   1.460   4.730  13.741  0.0439 -0.2461  0.4598
 3858TIP3    H133065   1.408   4.784  13.801  0.7534  0.8584  0.0989
 3858TIP3    H233066   1.459   4.778  13.659 -0.4211 -1.4618 -0.2683
 3859TIP3   OH233067   5.997   5.729   5.752  0.4190 -0.3059 -0.8789
 3859TIP3    H133068   6.093   5.725   5.747  0.4824  1.3862 -1.6171
 3859TIP3    H233069   5.969   5.742   5.661 -0.6605 -2.5410 -0.9422
 3860TIP3   OH233070   6.161   3.803  13.587 -0.0618  0.3281 -0.1400
 3860TIP3    H133071   6.076   3.846  13.598 -1.8147 -2.6629 -0.7665
 3860TIP3    H233072   6.155   3.724  13.641  0.8288 -1.7978 -2.9047
 3861TIP3   OH233073   6.480   3.460   5.443 -0.5621  0.0321 -0.5182
 3861TIP3    H133074   6.537   3.412   5.504 -2.5876 -0.7388  0.8704
 3861TIP3    H233075   6.536   3.530   5.409  1.6098 -1.4977 -0.3140
 3862TIP3   OH233076   4.285   5.108   2.948 -0.7875 -0.4635 -0.2153
 3862TIP3    H133077   4.363   5.095   3.001 -1.4635 -0.5702  0.7936
 3862TIP3    H233078   4.281   5.031   2.892 -0.7373 -0.9875  0.4819
 3863TIP3   OH233079   0.127   0.888  12.241  0.1468  0.1497 -0.0548
 3863TIP3    H133080   0.049   0.851  12.200  1.2166 -1.9362 -0.3284
 3863TIP3    H233081   0.160   0.818  12.297  1.4414  1.2365  0.5920
 3864TIP3   OH233082   2.949   3.788   1.406 -0.2558  0.3547  0.4624
 3864TIP3    H133083   2.987   3.701   1.395  1.5213  0.8359  2.3538
 3864TIP3    H233084   2.934   3.819   1.316  1.3826 -0.9253 -0.2997
 3865TIP3   OH233085   2.483   2.848  12.107  0.3855 -0.2096 -0.0807
 3865TIP3    H133086   2.523   2.867  12.192  0.9628 -0.8759 -0.1953
 3865TIP3    H233087   2.446   2.931  12.079  1.4152  0.3571  0.1846
 3866TIP3   OH233088   4.281   1.732   5.076  0.4238  0.2844 -0.5503
 3866TIP3    H133089   4.256   1.730   4.984  1.2050  0.2285 -0.7622
 3866TIP3    H233090   4.220   1.796   5.115 -1.1581 -1.0612 -0.7065
 3867TIP3   OH233091   0.663   3.381  13.028 -0.4262  0.0798  0.2720
 3867TIP3    H133092   0.677   3.473  13.008  0.4283 -0.3284 -1.1013
 3867TIP3    H233093   0.722   3.363  13.101  0.9073  0.1609 -0.7479
 3868TIP3   OH233094   0.222   3.290   2.379 -0.3130 -0.0762 -0.0411
 3868TIP3    H133095   0.313   3.320   2.369 -0.3939  1.1355  2.1773
 3868TIP3    H233096   0.198   3.317   2.468 -1.9685 -2.7865  0.4416
 3869TIP3   OH233097   6.517   1.775   2.374  0.2953 -0.6457 -0.5100
 3869TIP3    H133098   6.548   1.732   2.454  0.3754  0.1005 -0.1208
 3869TIP3    H233099   6.508   1.867   2.399 -3.7125 -0.9584 -0.1090
 3870TIP3   OH233100   0.123   5.156  14.571  0.7202  0.4402 -0.3032
 3870TIP3    H133101   0.190   5.216  14.603  1.5044 -0.3069 -0.5188
 3870TIP3    H233102   0.162   5.115  14.494  0.8896 -1.5764  0.7868
 3871TIP3   OH233103   3.701   2.505  14.358 -0.1584 -0.0629  0.2072
 3871TIP3    H133104   3.767   2.444  14.392 -0.9557 -1.3969 -0.5405
 3871TIP3    H233105   3.727   2.521  14.267 -1.1132 -1.0297 -0.2660
 3872TIP3   OH233106   1.400   3.289  16.697 -0.1170  0.5114 -0.1935
 3872TIP3    H133107   1.403   3.206  16.650 -1.4244  0.8744 -0.9476
 3872TIP3    H233108   1.490   3.302  16.728  1.0163  0.5830 -3.1691
 3873TIP3   OH233109   6.608   5.948   3.585 -0.0067  0.2134 -0.2376
 3873TIP3    H133110   6.700   5.945   3.561 -0.0800  1.5587 -0.7304
 3873TIP3    H233111   6.563   5.906   3.511  0.0032  1.9544 -1.2887
 3874TIP3   OH233112   5.673   6.260  13.990  0.3694 -0.0980 -0.3417
 3874TIP3    H133113   5.732   6.334  13.974 -0.3618  0.6021  0.1258
 3874TIP3    H233114   5.637   6.240  13.904  1.5428 -0.7698 -0.6994
 3875TIP3   OH233115   5.705   4.199  13.963 -0.1299  0.2370 -0.3805
 3875TIP3    H133116   5.653   4.223  14.040 -3.6884 -1.1658 -2.0929
 3875TIP3    H233117   5.721   4.283  13.919  0.5296  0.8800  1.0037
 3876TIP3   OH233118   0.741   1.897   4.587  0.3653  0.4798  0.2210
 3876TIP3    H133119   0.752   1.954   4.510  1.0060 -1.1854 -0.9875
 3876TIP3    H233120   0.680   1.829   4.557  0.3467  0.0056  1.3118
 3877TIP3   OH233121   2.847   6.190  15.349 -0.2662  0.3284 -0.5230
 3877TIP3    H133122   2.860   6.284  15.344 -2.1161  0.6221 -0.8335
 3877TIP3    H233123   2.883   6.156  15.267 -2.3249  1.2002 -1.8794
 3878TIP3   OH233124   3.345   2.049  11.907  0.0848  0.0355 -0.0923
 3878TIP3    H133125   3.366   1.960  11.879  0.4858 -0.0939  0.6006
 3878TIP3    H233126   3.430   2.092  11.914  0.1887 -0.4716  2.6907
 3879TIP3   OH233127   1.032   1.753  11.479 -0.1810  0.2218 -0.0588
 3879TIP3    H133128   1.098   1.747  11.410  0.2105  0.3480  0.3000
 3879TIP3    H233129   1.032   1.666  11.519 -1.1755 -0.1810 -0.9095
 3880TIP3   OH233130   0.690   6.508   1.280 -0.1491 -0.5194 -0.5559
 3880TIP3    H133131   0.632   6.435   1.302 -1.5940  0.9212  0.6374
 3880TIP3    H233132   0.766   6.496   1.336 -0.7775 -0.6177  0.2866
 3881TIP3   OH233133   6.259   5.175  17.089  0.0399 -0.0571 -0.5165
 3881TIP3    H133134   6.232   5.219  17.170  1.4505 -0.2194  0.0842
 3881TIP3    H233135   6.278   5.085  17.116 -0.7318 -0.4654 -1.3004
 3882TIP3   OH233136   1.412   3.701   3.112 -0.5436  0.2850  0.1600
 3882TIP3    H133137   1.400   3.611   3.080 -2.5361 -0.0248  1.5690
 3882TIP3    H233138   1.462   3.745   3.043  0.7113 -1.9503 -0.4564
 3883TIP3   OH233139   1.543   6.233   0.085  0.1589 -0.5695  0.0079
 3883TIP3    H133140   1.549   6.163   0.020  1.1638 -1.4411  1.0112
 3883TIP3    H233141   1.552   6.313   0.034 -1.2690 -1.1100 -1.2061
 3884TIP3   OH233142   1.252   2.600   1.655 -0.2526  0.5094 -0.1774
 3884TIP3    H133143   1.199   2.674   1.623  0.1087  1.0336  0.4109
 3884TIP3    H233144   1.199   2.523   1.636 -0.4928  0.8820 -1.1304
 3885TIP3   OH233145   2.866   4.246   4.349 -0.3774  0.2827 -0.1010
 3885TIP3    H133146   2.836   4.157   4.370 -0.0681 -0.2154 -1.6461
 3885TIP3    H233147   2.791   4.288   4.309 -0.8813  1.1392  1.6530
 3886TIP3   OH233148   3.706   1.056  10.919  0.2013  0.0280 -0.0940
 3886TIP3    H133149   3.657   1.137  10.921  0.5928  0.2702 -0.1868
 3886TIP3    H233150   3.784   1.076  10.867  0.6658 -0.1999  0.5079
 3887TIP3   OH233151   4.477   0.586  14.273 -0.2121 -0.6884  0.0924
 3887TIP3    H133152   4.572   0.593  14.269 -0.0566 -2.5858 -0.0579
 3887TIP3    H233153   4.452   0.545  14.190 -0.8762 -2.6300  1.1857
 3888TIP3   OH233154   2.892   4.017   2.744  0.0238 -0.1507 -0.5382
 3888TIP3    H133155   2.978   3.975   2.741  0.4227  0.3132  1.8388
 3888TIP3    H233156   2.881   4.057   2.658  1.2848 -1.9023 -1.5640
 3889TIP3   OH233157   2.990   0.542   2.178  0.5928 -0.5241 -0.6266
 3889TIP3    H133158   2.972   0.636   2.174  0.3940 -0.4563  0.9586
 3889TIP3    H233159   3.085   0.535   2.166  0.4249 -0.2846 -2.3134
 3890TIP3   OH233160   4.007   2.645  12.585  0.3360  0.1185 -0.2689
 3890TIP3    H133161   3.931   2.671  12.534 -0.6027 -0.1327  0.9444
 3890TIP3    H233162   3.982   2.664  12.676  0.2666 -3.2246  0.5370
 3891TIP3   OH233163   0.398   4.730  12.508 -0.2767 -0.0498 -0.4019
 3891TIP3    H133164   0.398   4.806  12.450 -1.5642 -0.0651 -0.4730
 3891TIP3    H233165   0.455   4.666  12.464 -0.6878  0.1939 -1.3199
 3892TIP3   OH233166   5.046   5.638   1.058  0.4430  0.3737 -0.0897
 3892TIP3    H133167   4.964   5.670   1.021  0.2750  0.3108  0.2303
 3892TIP3    H233168   5.071   5.565   1.002  0.3368  0.4604 -0.2514
 3893TIP3   OH233169   5.370   0.179  11.805  0.1808 -0.1443  0.0114
 3893TIP3    H133170   5.425   0.101  11.793  0.3280 -0.8260  3.8171
 3893TIP3    H233171   5.433   0.251  11.812  0.2461 -0.1339 -0.6794
 3894TIP3   OH233172   5.716   4.989   4.180  0.0493 -0.3136 -0.6049
 3894TIP3    H133173   5.685   5.074   4.149 -1.7526 -0.8448 -0.3408
 3894TIP3    H233174   5.657   4.926   4.140  0.9001 -1.4032 -0.1936
 3895TIP3   OH233175   0.461   0.757   2.450 -0.4412 -0.2437  0.4246
 3895TIP3    H133176   0.451   0.826   2.384 -0.1322 -0.8231 -0.2451
 3895TIP3    H233177   0.379   0.709   2.447 -0.5550 -0.0700  0.7047
 3896TIP3   OH233178   3.167   5.395   6.234 -0.1959 -0.0008 -0.4134
 3896TIP3    H133179   3.211   5.314   6.211 -1.7788 -0.5922 -1.5820
 3896TIP3    H233180   3.077   5.369   6.255 -0.8123  1.4502 -1.0649
 3897TIP3   OH233181   1.877   0.320   6.647  0.0044  0.1616  0.0967
 3897TIP3    H133182   1.806   0.325   6.583 -0.4076  1.3043  0.6202
 3897TIP3    H233183   1.949   0.368   6.606 -0.2073  0.7568  0.4083
 3898TIP3   OH233184   1.045   4.192  15.481  0.3582 -0.2674 -0.1561
 3898TIP3    H133185   1.000   4.212  15.564 -0.4223 -1.7621 -0.1946
 3898TIP3    H233186   1.059   4.098  15.483  1.5955 -0.1302 -1.1283
 3899TIP3   OH233187   6.630   0.865   3.435  0.1672  0.2433  0.6322
 3899TIP3    H133188   6.710   0.871   3.383  0.8631 -5.0085  0.5058
 3899TIP3    H233189   6.662   0.852   3.525 -0.3823 -2.2383  0.5322
 3900TIP3   OH233190   2.462   3.658  12.975  0.4150 -0.5785  0.3451
 3900TIP3    H133191   2.422   3.733  13.019 -1.6966 -1.7059  0.4978
 3900TIP3    H233192   2.481   3.689  12.887 -1.6778 -0.1657 -0.0159
 3901TIP3   OH233193   3.598   4.929   6.003 -0.2727 -0.3476  0.0452
 3901TIP3    H133194   3.536   4.933   6.075 -0.1623 -0.1005  0.1287
 3901TIP3    H233195   3.609   5.020   5.975 -0.1432 -0.4170 -0.1338
 3902TIP3   OH233196   4.424   1.435  15.201 -0.5524  0.1328  0.4846
 3902TIP3    H133197   4.361   1.367  15.226 -0.5842 -0.5453 -1.2537
 3902TIP3    H233198   4.461   1.403  15.118  1.5664  0.8473  1.0882
 3903TIP3   OH233199   1.275   6.035  13.741 -0.3786 -0.5009  0.1972
 3903TIP3    H133200   1.317   5.974  13.681 -0.0411  0.1037 -0.1892
 3903TIP3    H233201   1.242   6.105  13.686  1.1412  0.7591  0.8003
 3904TIP3   OH233202   3.316   0.052   4.089  0.2399  0.5457  0.4282
 3904TIP3    H133203   3.246   0.089   4.035  0.7522 -1.2842 -1.6878
 3904TIP3    H233204   3.289   0.068   4.179 -0.8697  3.4491 -0.3181
 3905TIP3   OH233205   2.243   3.006   4.662 -0.0883  0.3911  0.3781
 3905TIP3    H133206   2.290   3.074   4.613  1.3877 -0.1467  0.9738
 3905TIP3    H233207   2.307   2.935   4.671 -0.8745 -0.1909  1.6276
 3906TIP3   OH233208   0.960   3.863  13.594 -0.1554 -0.5274 -0.7254
 3906TIP3    H133209   0.970   3.822  13.681 -0.2068  1.2352  0.1565
 3906TIP3    H233210   1.015   3.941  13.598 -3.8250  2.3116 -0.4469
 3907TIP3   OH233211   2.497   5.470  13.093 -0.0814  0.0354  0.3580
 3907TIP3    H133212   2.526   5.404  13.030  0.3890 -1.4879  2.0860
 3907TIP3    H233213   2.575   5.520  13.113  0.0277 -0.2217  0.5783
 3908TIP3   OH233214   1.988   3.769  13.938  0.0093 -0.2168 -0.2783
 3908TIP3    H133215   2.011   3.691  13.989 -0.5802 -0.0215  0.3045
 3908TIP3    H233216   1.910   3.803  13.981  0.7568  1.1961  0.0104
 3909TIP3   OH233217   4.094   3.675   0.643  0.3045  0.2129  0.1671
 3909TIP3    H133218   4.171   3.632   0.681  0.9342  1.3767  0.2448
 3909TIP3    H233219   4.077   3.750   0.700 -0.7805  0.0805  0.0366
 3910TIP3   OH233220   2.996   5.062   3.303  0.5271  0.0159 -0.3006
 3910TIP3    H133221   2.945   5.114   3.366 -1.0624 -2.5004  0.6496
 3910TIP3    H233222   3.077   5.042   3.350  0.0913 -0.3997  0.2910
 3911TIP3   OH233223   1.931   5.217   1.674 -0.1025  0.0158  0.0615
 3911TIP3    H133224   1.899   5.143   1.622  1.7910  0.1640 -1.4159
 3911TIP3    H233225   1.895   5.202   1.762 -3.8098 -0.0228 -1.2656
 3912TIP3   OH233226   4.092   6.119   1.756  0.0817  0.3201  0.2536
 3912TIP3    H133227   4.173   6.171   1.756  1.9076 -2.2957  0.3734
 3912TIP3    H233228   4.113   6.044   1.701 -1.4503 -1.6103  2.1435
 3913TIP3   OH233229   3.999   3.353   2.874 -0.0608 -0.8659 -0.2935
 3913TIP3    H133230   4.043   3.437   2.863 -0.0401 -1.0506 -1.8201
 3913TIP3    H233231   3.906   3.374   2.867 -0.3464 -0.4635  3.0041
 3914TIP3   OH233232   1.152   1.393   4.818  0.5378 -0.0318 -0.2417
 3914TIP3    H133233   1.184   1.303   4.828 -0.5830 -0.6995 -2.0113
 3914TIP3    H233234   1.173   1.416   4.728 -2.6018 -0.0567 -1.1195
 3915TIP3   OH233235   1.891   3.358  15.836  1.0153 -0.2199  0.1053
 3915TIP3    H133236   1.914   3.283  15.891  0.9550 -0.7474 -0.5765
 3915TIP3    H233237   1.833   3.410  15.891  0.0205 -1.3296  0.1644
 3916TIP3   OH233238   2.237   4.912   2.190  0.0282  0.2010  0.1234
 3916TIP3    H133239   2.283   4.828   2.179  0.7599  0.6551 -0.3606
 3916TIP3    H233240   2.170   4.912   2.122 -0.4591 -0.2957  0.5860
 3917TIP3   OH233241   2.345   2.931  14.419 -0.5717 -0.6376 -0.1706
 3917TIP3    H133242   2.406   2.974  14.478  0.3226 -1.0199 -0.7814
 3917TIP3    H233243   2.345   2.985  14.340 -1.5260 -0.2920  0.0564
 3918TIP3   OH233244   4.550   4.082  13.445 -0.5688 -0.1521  0.0286
 3918TIP3    H133245   4.643   4.080  13.421 -0.5040 -0.6046  0.3199
 3918TIP3    H233246   4.539   4.009  13.505 -1.3319 -0.7258 -0.7861
 3919TIP3   OH233247   3.685   5.261  14.858  0.2511  0.2980 -0.5040
 3919TIP3    H133248   3.767   5.211  14.864 -1.0018 -1.7032  2.6226
 3919TIP3    H233249   3.690   5.324  14.930 -1.3037 -0.5401  0.3772
 3920TIP3   OH233250   2.612   0.264  11.097  0.2225 -0.1196 -0.1046
 3920TIP3    H133251   2.701   0.231  11.110  0.4816  1.4537  2.7980
 3920TIP3    H233252   2.562   0.187  11.069  2.0582 -1.4997  0.2210
 3921TIP3   OH233253   4.098   2.808  13.650 -0.5284  0.0788  0.1399
 3921TIP3    H133254   4.087   2.893  13.607 -0.1953 -0.2375 -0.5964
 3921TIP3    H233255   4.162   2.824  13.719 -0.1134  0.3238 -0.2996
 3922TIP3   OH233256   3.374   2.320   0.681  0.4522 -0.4966 -0.7913
 3922TIP3    H133257   3.361   2.401   0.632  0.8671 -0.0008 -0.0994
 3922TIP3    H233258   3.286   2.288   0.699  0.2907 -0.3711 -1.3388
 3923TIP3   OH233259   3.018   1.531  13.114 -0.4841  0.4779  0.3237
 3923TIP3    H133260   2.972   1.615  13.107  0.5501  1.0804  0.5641
 3923TIP3    H233261   3.110   1.554  13.106 -0.2839 -0.9851 -2.7632
 3924TIP3   OH233262   2.610   6.325  13.653 -0.1594 -0.3238  0.3590
 3924TIP3    H133263   2.588   6.385  13.582  1.2326 -0.7077 -0.4506
 3924TIP3    H233264   2.600   6.377  13.733  1.8818  1.3209 -0.3703
 3925TIP3   OH233265   5.308   5.812   4.051 -0.0788 -0.0744  0.2251
 3925TIP3    H133266   5.368   5.869   4.100 -0.0824 -1.1661  1.5653
 3925TIP3    H233267   5.222   5.827   4.092 -0.0794 -1.0112  0.5923
 3926TIP3   OH233268   6.363   6.482  15.774  0.1262  0.4442 -0.1133
 3926TIP3    H133269   6.284   6.518  15.733 -0.5856 -0.5802  0.3138
 3926TIP3    H233270   6.366   6.522  15.861 -0.8936 -0.7959  0.5187
 3927TIP3   OH233271   2.689   4.817  15.617 -0.2116  0.4103 -0.2799
 3927TIP3    H133272   2.784   4.803  15.620 -0.1515  0.9196  2.5130
 3927TIP3    H233273   2.678   4.886  15.551  1.4170  0.6746 -0.3209
 3928TIP3   OH233274   5.563   2.625  16.918  0.2048  0.6823 -0.7078
 3928TIP3    H133275   5.477   2.603  16.882  1.5965 -1.6843 -2.9956
 3928TIP3    H233276   5.587   2.707  16.875 -0.3863  0.6786 -1.0531
 3929TIP3   OH233277   3.586   0.740   1.101 -0.0103  0.0274 -0.9486
 3929TIP3    H133278   3.578   0.835   1.099 -0.9706 -0.0085  0.2680
 3929TIP3    H233279   3.555   0.711   1.015 -1.0549  0.7291 -0.8225
 3930TIP3   OH233280   2.229   0.634   3.193  0.0311  0.0761  0.3701
 3930TIP3    H133281   2.208   0.544   3.166 -0.9550  0.0093  1.2753
 3930TIP3    H233282   2.192   0.641   3.281  2.7093  0.4083  1.5945
 3931TIP3   OH233283   3.347   3.176   3.224 -0.2812  0.6311  0.6705
 3931TIP3    H133284   3.433   3.147   3.195 -0.7974 -0.5734  0.2852
 3931TIP3    H233285   3.365   3.231   3.301  0.7598 -0.8812  1.5749
 3932TIP3   OH233286   6.270   1.462   0.757  0.5170  0.5588 -0.7148
 3932TIP3    H133287   6.200   1.500   0.809  0.0557 -1.3037  0.1273
 3932TIP3    H233288   6.337   1.530   0.751 -0.1356  1.3771  0.9217
 3933TIP3   OH233289   3.190   6.111   0.308  0.5698  0.1439  0.1388
 3933TIP3    H133290   3.269   6.097   0.256  0.9028 -2.0468  1.1330
 3933TIP3    H233291   3.221   6.164   0.383  0.3734  2.0634 -1.0683
 3934TIP3   OH233292   0.908   3.373  13.198  0.0281 -0.1946  0.1591
 3934TIP3    H133293   0.943   3.460  13.212 -1.6545  0.6614 -0.6227
 3934TIP3    H233294   0.985   3.316  13.190  1.1366  0.8962  2.4233
 3935TIP3   OH233295   4.901   0.705   3.122 -0.0632  0.7441  0.4698
 3935TIP3    H133296   4.815   0.740   3.100  0.0830 -0.1403 -1.6780
 3935TIP3    H233297   4.927   0.654   3.046  0.9876 -1.6801  2.3149
 3936TIP3   OH233298   4.949   3.424  16.378  0.3093  0.1419  0.0071
 3936TIP3    H133299   4.969   3.478  16.302  3.0211 -0.4553  0.1729
 3936TIP3    H233300   4.925   3.339  16.341 -0.0241  0.3196 -0.1921
 3937TIP3   OH233301   2.566   5.044  13.738  0.1307  0.2647  0.7808
 3937TIP3    H133302   2.534   4.956  13.716  0.3403  0.6831 -1.3686
 3937TIP3    H233303   2.661   5.034  13.743  0.5822  0.9978 -3.2729
 3938TIP3   OH233304   0.840   0.378  14.374 -0.1098 -0.2848 -0.3293
 3938TIP3    H133305   0.782   0.359  14.448 -0.4077  2.3790  0.2475
 3938TIP3    H233306   0.783   0.376  14.297 -0.1510 -1.4063 -0.2792
 3939TIP3   OH233307   4.583   3.672  15.064  0.3047 -0.0325  0.6093
 3939TIP3    H133308   4.659   3.662  15.007 -0.0941  0.7876 -0.0804
 3939TIP3    H233309   4.529   3.596  15.047  1.0777 -0.7565  1.2926
 3940TIP3   OH233310   2.612   5.264   1.805  0.0459 -0.3309  0.0309
 3940TIP3    H133311   2.615   5.193   1.741 -1.2514 -1.6747  1.3866
 3940TIP3    H233312   2.543   5.322   1.774  0.9127  0.2153 -0.9280
 3941TIP3   OH233313   1.228   4.372  15.417  0.7255 -0.1616  0.3083
 3941TIP3    H133314   1.164   4.313  15.457  2.1266 -0.5888  2.0735
 3941TIP3    H233315   1.186   4.458  15.418 -1.3303 -1.0102 -2.2533
 3942TIP3   OH233316   5.144   0.211  16.192 -0.0776  0.0160 -0.1609
 3942TIP3    H133317   5.227   0.242  16.228 -0.9585  1.7597  0.4999
 3942TIP3    H233318   5.159   0.205  16.097  0.4071  1.7247 -0.2195
 3943TIP3   OH233319   5.450   3.424   4.240 -0.6780 -0.5262 -0.3538
 3943TIP3    H133320   5.428   3.404   4.331 -1.2850 -2.2019 -0.8225
 3943TIP3    H233321   5.524   3.366   4.221 -0.7140 -0.3677 -0.9959
 3944TIP3   OH233322   4.474   5.050  17.214 -0.8144  0.5019  0.0418
 3944TIP3    H133323   4.534   5.102  17.159  0.7623  1.0171  2.1285
 3944TIP3    H233324   4.446   4.978  17.157  1.2192  0.6695 -1.2861
 3945TIP3   OH233325   1.631   4.642  16.060  0.3943  0.8809  0.1297
 3945TIP3    H133326   1.640   4.554  16.097  1.5892 -0.2182 -2.5477
 3945TIP3    H233327   1.721   4.675  16.057 -0.0470  2.2466  1.1219
 3946TIP3   OH233328   2.638   3.028   2.539 -0.2983 -0.4913 -0.1045
 3946TIP3    H133329   2.642   3.058   2.448 -0.1130  1.4242  0.4867
 3946TIP3    H233330   2.721   3.056   2.578 -1.8073  2.1243  1.5671
 3947TIP3   OH233331   2.537   3.305  12.388 -0.0093  0.3920 -0.2058
 3947TIP3    H133332   2.551   3.306  12.293 -0.6921  0.7747 -0.3132
 3947TIP3    H233333   2.443   3.289  12.398  0.0237  0.5422  0.4019
 3948TIP3   OH233334   6.321   1.036  16.123  0.3012  0.5902  1.2445
 3948TIP3    H133335   6.345   0.959  16.072  0.8492  0.6977  1.3371
 3948TIP3    H233336   6.241   1.068  16.081  3.0000  3.2691 -2.5039
 3949TIP3   OH233337   4.068   5.271   2.840 -0.4564 -0.3121  0.0903
 3949TIP3    H133338   3.983   5.227   2.842  0.5943 -2.5123 -1.0183
 3949TIP3    H233339   4.132   5.202   2.857  1.1990  1.0723 -0.1940
 3950TIP3   OH233340   5.094   0.699   5.569 -0.1343  0.5983 -0.0047
 3950TIP3    H133341   5.110   0.781   5.523 -1.5326  0.8944 -0.0126
 3950TIP3    H233342   5.049   0.725   5.649 -2.2269 -0.2465 -0.8325
 3951TIP3   OH233343   5.878   4.263  17.103  0.3539  0.0536  0.1844
 3951TIP3    H133344   5.902   4.264  17.195 -0.5109  1.3100  0.4255
 3951TIP3    H233345   5.942   4.321  17.061 -0.8262  1.6254  0.4646
 3952TIP3   OH233346   3.971   4.940  17.199  0.1871  0.4093  0.0813
 3952TIP3    H133347   3.981   4.852  17.161 -0.3764  0.7770 -0.9652
 3952TIP3    H233348   4.021   4.996  17.140  1.0004  0.7338  1.0548
 3953TIP3   OH233349   0.082   2.023  14.832  0.0898 -0.1318  0.3789
 3953TIP3    H133350   0.052   2.013  14.741 -1.2916  0.4259  0.7474
 3953TIP3    H233351   0.002   2.017  14.884  1.0359 -2.3405  1.7494
 3954TIP3   OH233352   3.321   5.881  14.807  0.4106  0.0134 -0.0931
 3954TIP3    H133353   3.257   5.865  14.877  0.8677  0.1187  0.3591
 3954TIP3    H233354   3.279   5.848  14.728 -0.3860  0.4869  0.1191
 3955TIP3   OH233355   4.688   4.762  15.062 -0.3922  0.7817 -0.7104
 3955TIP3    H133356   4.622   4.702  15.028 -0.7959  0.3265  0.7966
 3955TIP3    H233357   4.645   4.847  15.063 -0.8812  0.5367 -0.0005
 3956TIP3   OH233358   2.851   6.263   3.676  0.9022  0.6086 -0.1325
 3956TIP3    H133359   2.829   6.236   3.766 -1.6917  0.7145 -0.6605
 3956TIP3    H233360   2.910   6.337   3.687 -0.0076  1.1462  1.5353
 3957TIP3   OH233361   1.369   0.615   2.009  0.1935 -0.0214  0.1376
 3957TIP3    H133362   1.392   0.607   1.917  3.7393  2.4034  0.6070
 3957TIP3    H233363   1.451   0.635   2.053 -1.5881  0.4267  3.6572
 3958TIP3   OH233364   3.491   6.239   0.723 -0.7933 -0.3441  0.2394
 3958TIP3    H133365   3.444   6.243   0.640 -1.5834 -0.3288  0.6723
 3958TIP3    H233366   3.579   6.269   0.703 -0.6800 -1.2929 -0.7965
 3959TIP3   OH233367   4.135   0.426  12.783 -0.1130 -0.1728 -0.0526
 3959TIP3    H133368   4.106   0.335  12.784 -0.3918 -0.0784  0.6799
 3959TIP3    H233369   4.054   0.477  12.782  0.0115  0.0859  1.4109
 3960TIP3   OH233370   5.061   1.549  11.872  0.0364  0.8507  0.2774
 3960TIP3    H133371   5.124   1.487  11.836  2.2209  1.3644  2.8737
 3960TIP3    H233372   4.978   1.502  11.871  1.1952 -1.3103  0.1434
 3961TIP3   OH233373   6.815   2.721  16.938  0.0965  0.1548  0.4839
 3961TIP3    H133374   6.822   2.769  17.021  1.0743  1.3319 -0.2507
 3961TIP3    H233375   6.905   2.711  16.909 -0.2513 -0.0403 -0.5461
 3962TIP3   OH233376   2.934   0.121   0.694 -0.1865  0.2355 -0.7204
 3962TIP3    H133377   2.926   0.029   0.669  0.4609  0.1716 -0.7109
 3962TIP3    H233378   2.957   0.166   0.613  1.2205  0.1281 -0.4146
 3963TIP3   OH233379   0.882   3.831  13.215  0.0195 -0.5000  0.2244
 3963TIP3    H133380   0.866   3.922  13.190 -0.2020 -1.3179 -3.1280
 3963TIP3    H233381   0.975   3.818  13.198  0.0143 -0.9490  0.5248
 3964TIP3   OH233382   1.912   2.152  12.855 -0.3379 -0.1652  0.5379
 3964TIP3    H133383   1.886   2.242  12.835  1.8986  1.3369  3.5997
 3964TIP3    H233384   1.829   2.105  12.869 -1.6681  2.5883  3.0122
 3965TIP3   OH233385   0.300   2.281  13.207  0.0974 -0.0484  0.8027
 3965TIP3    H133386   0.307   2.195  13.166  2.1644  1.4602 -2.4609
 3965TIP3    H233387   0.213   2.312  13.181  0.3326 -0.2011 -0.2458
 3966TIP3   OH233388   4.966   0.959  15.454  0.2776 -0.0270  0.1459
 3966TIP3    H133389   5.046   1.012  15.456  0.0576  0.3214  2.5819
 3966TIP3    H233390   4.946   0.943  15.546 -1.7110 -1.2775 -0.4547
 3967TIP3   OH233391   6.071   5.119  15.208 -0.2819  0.0968  0.0920
 3967TIP3    H133392   6.023   5.039  15.184 -1.3537  0.6366  0.3572
 3967TIP3    H233393   6.007   5.171  15.257  0.6027  0.8357  0.4829
 3968TIP3   OH233394   0.830   3.278  15.042  0.0211 -0.0319 -0.2357
 3968TIP3    H133395   0.736   3.275  15.059  0.2407  2.7772  2.5615
 3968TIP3    H233396   0.869   3.292  15.128  2.9829 -0.5709 -1.3694
 3969TIP3   OH233397   5.422   3.338   5.544  0.0596  0.7400 -0.1566
 3969TIP3    H133398   5.370   3.272   5.499  0.2801 -0.1608  0.8670
 3969TIP3    H233399   5.512   3.307   5.536  0.0925  0.4836  0.9844
 3970TIP3   OH233400   6.303   0.398  15.624  0.2750 -0.0517 -0.1800
 3970TIP3    H133401   6.363   0.387  15.550  0.4157 -1.1814  0.0815
 3970TIP3    H233402   6.217   0.408  15.584  0.3152 -0.9004 -0.5029
 3971TIP3   OH233403   1.114   2.221  16.964 -0.5485  0.0959  0.8006
 3971TIP3    H133404   1.099   2.155  17.032 -0.8377  0.6495  1.2890
 3971TIP3    H233405   1.178   2.281  17.003 -0.0529 -0.0706  0.2415
 3972TIP3   OH233406   3.717   5.960  14.950  0.7549 -0.5506 -0.4370
 3972TIP3    H133407   3.752   5.985  15.036 -1.8351  0.0630  0.5117
 3972TIP3    H233408   3.712   5.865  14.953  2.7085 -0.7093 -0.8036
 3973TIP3   OH233409   4.161   6.619   4.329  0.2662  0.6974  0.1577
 3973TIP3    H133410   4.234   6.669   4.366 -0.5022  1.2019  1.0404
 3973TIP3    H233411   4.084   6.655   4.372 -0.5023  0.1296 -0.7186
 3974TIP3   OH233412   2.583   6.329   5.095 -0.0505  0.3947  0.3419
 3974TIP3    H133413   2.537   6.381   5.028 -1.2432 -0.4143  0.5167
 3974TIP3    H233414   2.595   6.243   5.054  0.5413  0.3305  0.6361
 3975TIP3   OH233415   0.566   4.590  13.093 -0.5282 -0.1855 -0.2848
 3975TIP3    H133416   0.636   4.540  13.136  0.2012 -0.1409 -1.3596
 3975TIP3    H233417   0.497   4.525  13.076 -1.2664 -0.0112  1.7700
 3976TIP3   OH233418   1.758   4.805  13.830  0.1966 -0.4998 -0.4404
 3976TIP3    H133419   1.685   4.765  13.783  0.6064 -0.5267 -1.0538
 3976TIP3    H233420   1.768   4.891  13.790 -0.5084  0.1506  0.6911
 3977TIP3   OH233421   2.838   0.434  14.125 -0.1749 -1.2051  0.0886
 3977TIP3    H133422   2.931   0.446  14.107 -0.3251  0.0212  0.0118
 3977TIP3    H233423   2.828   0.459  14.217 -0.9775  2.5298 -0.8280
 3978TIP3   OH233424   5.547   0.855  13.519 -0.1870 -0.0398  0.5653
 3978TIP3    H133425   5.595   0.889  13.444 -0.2723 -1.7985 -0.3211
 3978TIP3    H233426   5.596   0.887  13.595  0.6913  0.6073 -0.2579
 3979TIP3   OH233427   5.989   5.843   4.540 -0.3135 -0.0219 -0.8514
 3979TIP3    H133428   6.019   5.852   4.631 -0.0266 -0.1546 -0.9289
 3979TIP3    H233429   5.957   5.930   4.516  1.6255  0.6071 -1.3296
 3980TIP3   OH233430   2.594   5.032   6.662 -0.0322 -0.1647  0.3811
 3980TIP3    H133431   2.674   5.022   6.713  1.1934  1.9884 -0.9482
 3980TIP3    H233432   2.545   4.952   6.677  2.8515 -2.0468  0.4393
 3981TIP3   OH233433   1.120   0.073  16.269 -0.2755  0.5165 -0.5205
 3981TIP3    H133434   1.041   0.071  16.322 -0.9376  0.5630 -1.4829
 3981TIP3    H233435   1.167   0.151  16.298 -0.5902  0.5015  0.0348
 3982TIP3   OH233436   4.504   6.784  11.967  0.4881 -0.2718  0.1209
 3982TIP3    H133437   4.472   6.846  12.032 -0.2243 -2.0876  1.6148
 3982TIP3    H233438   4.453   6.803  11.888 -1.4835 -0.5068  1.2725
 3983TIP3   OH233439   1.894   0.387   5.590  0.2575  0.1200 -0.5509
 3983TIP3    H133440   1.927   0.419   5.506 -0.0893 -1.0669 -1.1764
 3983TIP3    H233441   1.970   0.348   5.632 -0.1367 -2.2813 -1.8301
 3984TIP3   OH233442   0.505   4.418  14.204 -0.0651  0.8627 -0.6981
 3984TIP3    H133443   0.552   4.493  14.170  2.1863  0.1228  0.5699
 3984TIP3    H233444   0.559   4.385  14.276 -2.4997 -0.1224  0.8567
 3985TIP3   OH233445   4.586   4.467  16.444 -0.1732 -0.1192 -0.2759
 3985TIP3    H133446   4.508   4.443  16.393  1.9307 -0.2803 -3.7951
 3985TIP3    H233447   4.605   4.557  16.418  0.8985 -0.1257  0.4210
 3986TIP3   OH233448   2.894   1.961   3.905  0.6455  0.6767  0.6559
 3986TIP3    H133449   2.897   1.902   3.980  1.8216  1.5188  1.2892
 3986TIP3    H233450   2.968   1.934   3.850 -1.1387 -1.0209 -1.0976
 3987TIP3   OH233451   0.665   4.467  13.797  0.4660  0.3616  0.0932
 3987TIP3    H133452   0.646   4.382  13.837  0.1260  0.1451 -0.5131
 3987TIP3    H233453   0.752   4.490  13.828  0.6923 -0.3666  0.0018
 3988TIP3   OH233454   6.053   6.324  13.335 -0.9851  0.0019 -0.3021
 3988TIP3    H133455   6.092   6.411  13.341  0.7358 -0.6002 -1.7936
 3988TIP3    H233456   6.019   6.319  13.246  1.7326 -1.8471 -1.3839
 3989TIP3   OH233457   5.976   0.413   0.446  0.0757  0.0181  0.6674
 3989TIP3    H133458   5.939   0.326   0.433 -1.1612  0.3933  1.4876
 3989TIP3    H233459   5.993   0.418   0.540  0.0895  0.6835  0.6334
 3990TIP3   OH233460   0.353   1.291   4.086  0.4789 -0.0518  0.4349
 3990TIP3    H133461   0.410   1.362   4.117 -0.6390  0.4912  1.3508
 3990TIP3    H233462   0.265   1.329   4.088  0.0150 -1.0374 -0.4141
 3991TIP3   OH233463   4.444   6.033   1.104 -0.8110 -0.7219  0.6511
 3991TIP3    H133464   4.388   6.102   1.141 -1.0582 -1.0039  0.8034
 3991TIP3    H233465   4.514   6.022   1.169 -1.0274 -0.9405  0.8459
 3992TIP3   OH233466   5.600   4.053  16.197 -0.1850 -0.0485 -0.4953
 3992TIP3    H133467   5.654   3.975  16.190  0.2960  0.0913  1.3864
 3992TIP3    H233468   5.650   4.121  16.152  0.4488 -0.2902 -0.1522
 3993TIP3   OH233469   0.553   5.078   1.938 -0.8749 -0.1816 -0.1296
 3993TIP3    H133470   0.566   5.056   1.846 -0.4885 -0.4189 -0.0208
 3993TIP3    H233471   0.621   5.144   1.956 -0.5016 -0.6441  0.1656
 3994TIP3   OH233472   5.356   1.643   6.414  0.5653 -0.5867 -0.2343
 3994TIP3    H133473   5.283   1.635   6.353  0.1801 -2.2082  0.3671
 3994TIP3    H233474   5.428   1.678   6.361 -0.1880 -0.5006 -1.2305
 3995TIP3   OH233475   3.947   2.169   2.060 -0.4958  0.2957 -0.4555
 3995TIP3    H133476   3.889   2.156   2.135 -0.8337  0.0536 -0.7532
 3995TIP3    H233477   3.931   2.259   2.032  0.3458  0.7074  0.3557
 3996TIP3   OH233478   3.661   4.247   1.841 -0.7453  0.1504 -0.1648
 3996TIP3    H133479   3.742   4.293   1.864  0.1195 -0.7181 -1.3919
 3996TIP3    H233480   3.683   4.154   1.850 -1.6746 -0.0874 -0.2948
 3997TIP3   OH233481   5.474   1.903  13.327  0.1953  0.1521  0.1420
 3997TIP3    H133482   5.508   1.898  13.238 -0.5433  0.6673 -0.1754
 3997TIP3    H233483   5.513   1.828  13.372  1.7678  0.7485 -0.1956
 3998TIP3   OH233484   5.793   3.526   4.954  0.3631  0.0613 -0.4317
 3998TIP3    H133485   5.766   3.568   5.036 -1.7274  0.9245 -1.4664
 3998TIP3    H233486   5.779   3.433   4.969 -0.6445  0.2636  0.0007
 3999TIP3   OH233487   4.080   3.424   4.595 -0.3572 -0.6904  0.1121
 3999TIP3    H133488   4.160   3.470   4.567 -1.2405 -0.4717 -2.2758
 3999TIP3    H233489   4.107   3.333   4.604  0.3537 -0.4795  0.2052
 4000TIP3   OH233490   1.198   1.022  14.766 -0.1430 -0.1602  0.0087
 4000TIP3    H133491   1.203   1.113  14.739 -2.5713 -0.4849 -1.9496
 4000TIP3    H233492   1.223   0.973  14.687 -0.6418 -1.1749  0.4649
 4001TIP3   OH233493   0.059   5.272  14.256  0.4819 -0.6820 -0.1722
 4001TIP3    H133494  -0.028   5.241  14.281  0.7523 -1.7675 -0.5386
 4001TIP3    H233495   0.118   5.202  14.284  1.0509 -0.7931 -1.6008
 4002TIP3   OH233496   6.320   3.849   5.284 -0.4743 -0.3340 -0.2911
 4002TIP3    H133497   6.287   3.795   5.211 -0.8531  0.6288 -0.8575
 4002TIP3    H233498   6.349   3.930   5.242 -3.4431  1.5177  0.8458
 4003TIP3   OH233499   3.928   3.075   1.469  0.4740  0.2942 -0.6173
 4003TIP3    H133500   4.023   3.067   1.474  0.3299 -0.8296  2.5645
 4003TIP3    H233501   3.905   3.031   1.386  2.8264  3.8163 -3.4388
 4004TIP3   OH233502   3.335   2.442   0.262  0.0319 -0.9537  0.1879
 4004TIP3    H133503   3.320   2.366   0.206  0.8699 -0.8799 -0.1566
 4004TIP3    H233504   3.257   2.447   0.317  0.5206 -2.8332  1.1325
 4005TIP3   OH233505   5.019   2.296   5.900 -0.2088  0.2854 -0.6409
 4005TIP3    H133506   5.067   2.357   5.844  1.1405 -0.3722 -0.2360
 4005TIP3    H233507   4.931   2.334   5.906  0.4627  1.9573 -0.7428
 4006TIP3   OH233508   0.138   5.907  15.503  0.3967  0.3038  0.0297
 4006TIP3    H133509   0.111   5.984  15.454 -0.2874  0.4061  0.5466
 4006TIP3    H233510   0.137   5.935  15.595  1.5214  0.0812  0.1342
 4007TIP3   OH233511   6.390   0.862  13.343 -0.0677 -0.3912  0.2964
 4007TIP3    H133512   6.421   0.900  13.425  1.9501 -2.0714  0.3907
 4007TIP3    H233513   6.324   0.797  13.370  0.3143 -0.6732  0.5522
 4008TIP3   OH233514   6.344   2.886   2.477 -0.0041 -0.2670 -0.5109
 4008TIP3    H133515   6.332   2.902   2.571  0.9886  0.7252 -0.5290
 4008TIP3    H233516   6.298   2.804   2.461 -1.2110  0.1543  0.5932
 4009TIP3   OH233517   4.354   5.405   0.897  0.5939 -0.9145  0.1438
 4009TIP3    H133518   4.303   5.365   0.967 -0.1340 -0.1677  0.0520
 4009TIP3    H233519   4.312   5.376   0.816  0.1754 -0.1494  0.0718
 4010TIP3   OH233520   4.158   1.911   5.880 -0.5865 -0.2774 -0.4291
 4010TIP3    H133521   4.170   1.837   5.821 -2.9432 -0.3246 -0.9536
 4010TIP3    H233522   4.238   1.913   5.932  0.3406 -2.0131 -1.6705
 4011TIP3   OH233523   2.459   6.665   2.236 -0.2780 -0.0894  0.0333
 4011TIP3    H133524   2.555   6.661   2.242 -0.0449  1.4390 -1.7960
 4011TIP3    H233525   2.441   6.751   2.198 -2.1854 -1.5178 -2.6154
 4012TIP3   OH233526   4.857   3.378  16.639  0.0789 -0.0252 -0.2117
 4012TIP3    H133527   4.865   3.382  16.544  1.9635  2.1983 -0.0435
 4012TIP3    H233528   4.795   3.448  16.661 -0.9836 -1.0519  0.1887
 4013TIP3   OH233529   3.705   5.633   5.818 -0.5851 -0.2498  0.1855
 4013TIP3    H133530   3.611   5.643   5.833 -0.5982 -0.4436  0.2356
 4013TIP3    H233531   3.714   5.548   5.776 -0.3892 -0.4181  0.5715
 4014TIP3   OH233532   6.178   3.651   0.507  0.5845 -0.0508 -0.2530
 4014TIP3    H133533   6.190   3.602   0.425 -0.9445 -0.9144  0.0023
 4014TIP3    H233534   6.170   3.742   0.479  2.4876 -0.0128 -0.8220
 4015TIP3   OH233535   1.337   2.995   5.922  0.5342  0.6080  0.1125
 4015TIP3    H133536   1.421   2.977   5.964  1.2386  0.3373 -1.3163
 4015TIP3    H233537   1.275   2.934   5.962  1.3712 -0.2494  0.1340
 4016TIP3   OH233538   2.812   1.671   2.435 -0.0659 -0.1092 -0.3005
 4016TIP3    H133539   2.898   1.633   2.421 -0.0201 -0.3570  0.6222
 4016TIP3    H233540   2.753   1.619   2.379 -0.1009 -1.9555  1.3666
 4017TIP3   OH233541   2.613   1.585  13.141 -0.1791 -0.4117  0.0158
 4017TIP3    H133542   2.645   1.621  13.224  4.3374 -0.0023 -1.6270
 4017TIP3    H233543   2.580   1.498  13.164 -0.4252  0.2371  2.3921
 4018TIP3   OH233544   6.820   1.715   3.033 -0.3326 -0.8646 -0.1855
 4018TIP3    H133545   6.782   1.802   3.023 -1.9456 -1.0800  2.7028
 4018TIP3    H233546   6.868   1.700   2.952 -2.4103  1.4922 -2.0341
 4019TIP3   OH233547   3.189   6.433   0.646 -0.1214 -0.4071 -0.1055
 4019TIP3    H133548   3.182   6.493   0.572 -0.8866  0.9791  1.0697
 4019TIP3    H233549   3.218   6.487   0.719  1.1472 -1.8516  0.5227
 4020TIP3   OH233550   5.656   5.924   5.564 -0.0612 -0.2166 -0.3254
 4020TIP3    H133551   5.718   5.853   5.544 -1.2529 -0.9691 -1.5423
 4020TIP3    H233552   5.591   5.883   5.621  1.1791  0.9058  2.0534
 4021TIP3   OH233553   2.719   2.355   1.850  0.5080 -0.1171  0.1290
 4021TIP3    H133554   2.811   2.329   1.841  0.9850  0.9008  1.6336
 4021TIP3    H233555   2.710   2.378   1.943  0.0743  4.4717 -0.8075
 4022TIP3   OH233556   3.356   0.800  16.651 -0.2060 -1.0071 -0.5648
 4022TIP3    H133557   3.369   0.895  16.659 -0.7067 -1.0399  1.0932
 4022TIP3    H233558   3.262   0.791  16.632 -0.3208 -1.1790  0.0514
 4023TIP3   OH233559   6.220   5.410   3.632 -0.1314  0.0990  0.8253
 4023TIP3    H133560   6.278   5.338   3.608 -0.2830  0.5038 -0.9666
 4023TIP3    H233561   6.273   5.467   3.687  0.3366 -0.8062  1.3369
 4024TIP3   OH233562   3.374   6.357   1.079  0.3390  1.3280  0.4125
 4024TIP3    H133563   3.338   6.313   1.156 -2.4534  1.0098 -0.9228
 4024TIP3    H233564   3.431   6.292   1.038  0.1891  0.7416  1.1155
 4025TIP3   OH233565   3.277   2.420   6.136 -0.3659  0.0992 -0.3947
 4025TIP3    H133566   3.322   2.391   6.216 -1.2604 -0.7664 -0.1772
 4025TIP3    H233567   3.271   2.340   6.083 -0.1285  0.5850 -1.1584
 4026TIP3   OH233568   3.222   0.124   4.628  0.0648  0.7238  0.0739
 4026TIP3    H133569   3.254   0.043   4.666 -1.1555 -0.4815 -1.3437
 4026TIP3    H233570   3.283   0.143   4.556 -0.6470  0.0629 -0.7237
 4027TIP3   OH233571   5.778   0.715  13.194 -0.3132  0.0075  0.3884
 4027TIP3    H133572   5.735   0.797  13.219 -0.4213  0.0277  0.1326
 4027TIP3    H233573   5.752   0.701  13.103  0.1175 -0.0447  0.2723
 4028TIP3   OH233574   0.358   4.631  10.776  0.0604 -0.3904  0.5543
 4028TIP3    H133575   0.403   4.698  10.724  0.1679 -0.0352  1.0965
 4028TIP3    H233576   0.299   4.589  10.714  0.0541  0.1476  0.1810
 4029TIP3   OH233577   4.510   1.007  12.366 -0.0940  0.4584  0.4038
 4029TIP3    H133578   4.476   1.011  12.455 -1.5388  3.5827 -0.1314
 4029TIP3    H233579   4.432   1.013  12.311  0.9173  1.0324 -1.0251
 4030TIP3   OH233580   0.796   4.044   0.584 -0.4416  0.5810 -0.1396
 4030TIP3    H133581   0.860   4.097   0.537  0.7676 -0.1775  0.5915
 4030TIP3    H233582   0.797   4.079   0.674  2.1246 -1.9942  1.0182
 4031TIP3   OH233583   1.530   2.272  11.047  0.4096  0.2013  0.3315
 4031TIP3    H133584   1.545   2.242  11.137 -0.4093  1.5864  0.9499
 4031TIP3    H233585   1.612   2.316  11.023  0.8651 -0.7265  0.1527
 4032TIP3   OH233586   3.292   1.427  17.268  0.0648 -0.4513  0.1403
 4032TIP3    H133587   3.384   1.404  17.271 -0.4156 -3.0005 -1.5698
 4032TIP3    H233588   3.286   1.494  17.200  0.6183 -0.5325  0.0052
 4033TIP3   OH233589   4.425   6.757   3.859 -0.3528 -0.3740 -0.2112
 4033TIP3    H133590   4.465   6.721   3.938 -0.4734 -2.0455 -0.8743
 4033TIP3    H233591   4.477   6.834   3.838  0.9552 -1.0842  0.3619
 4034TIP3   OH233592   5.439   5.852   0.277 -0.0014  0.0781  0.1015
 4034TIP3    H133593   5.367   5.827   0.219 -0.5522 -0.0994  0.8517
 4034TIP3    H233594   5.461   5.771   0.323  0.0330  0.3505  0.5709
 4035TIP3   OH233595   4.320   1.913  15.641  0.1934  0.1689 -0.1181
 4035TIP3    H133596   4.407   1.907  15.601  0.2509  0.9332 -0.1146
 4035TIP3    H233597   4.322   1.850  15.713  0.6182 -0.0814 -0.3461
 4036TIP3   OH233598   2.323   6.768   4.402  0.1911  0.8724  0.0138
 4036TIP3    H133599   2.336   6.740   4.492  1.4354 -1.7326 -0.8791
 4036TIP3    H233600   2.337   6.863   4.404 -1.7071  1.2079  2.8125
 4037TIP3   OH233601   4.174   3.780  11.771 -0.1960 -0.4588 -0.0897
 4037TIP3    H133602   4.108   3.796  11.838 -0.3675  0.7039 -0.5287
 4037TIP3    H233603   4.200   3.867  11.741  2.7068 -0.7825  1.1862
 4038TIP3   OH233604   0.605   3.545   3.458  0.4943 -0.4536  0.1756
 4038TIP3    H133605   0.578   3.502   3.377  0.5867  2.3738 -1.4715
 4038TIP3    H233606   0.523   3.575   3.498  0.4826 -1.4546  0.9370
 4039TIP3   OH233607   0.931   0.956  14.847 -0.7707  0.2022 -0.3075
 4039TIP3    H133608   0.893   0.978  14.762 -1.2230  1.0192  0.0801
 4039TIP3    H233609   1.023   0.980  14.840 -0.5965 -0.6130 -0.8606
 4040TIP3   OH233610   5.860   3.797  15.640 -0.1757 -0.4263 -0.1008
 4040TIP3    H133611   5.774   3.773  15.605 -0.2856 -1.0933  0.6036
 4040TIP3    H233612   5.922   3.751  15.583 -0.3859 -2.6209  1.3134
 4041TIP3   OH233613   5.195   5.537   0.547 -0.3226  0.0175 -0.8380
 4041TIP3    H133614   5.202   5.629   0.572 -1.0884 -0.0637 -0.3059
 4041TIP3    H233615   5.117   5.533   0.492  0.8005  0.0236 -2.5318
 4042TIP3   OH233616   6.014   3.062   0.675  0.3103 -0.0667 -0.0323
 4042TIP3    H133617   5.936   3.118   0.679 -0.1321 -0.6171 -0.8146
 4042TIP3    H233618   6.087   3.123   0.680 -0.1668  0.5961 -0.9123
 4043TIP3   OH233619   5.078   5.225   5.055  0.2535  0.0700  0.7049
 4043TIP3    H133620   5.036   5.165   4.994 -0.2251  2.0773 -1.0489
 4043TIP3    H233621   5.020   5.227   5.131 -1.9564  1.3907 -0.9171
 4044TIP3   OH233622   3.065   1.707   3.661 -0.2733 -0.2040  1.2011
 4044TIP3    H133623   3.073   1.639   3.728  0.9596 -0.0103  1.2828
 4044TIP3    H233624   3.068   1.660   3.578 -0.3551 -0.3258  1.2670
 4045TIP3   OH233625   4.692   3.181  12.181 -0.4102  0.7052  0.3942
 4045TIP3    H133626   4.763   3.119  12.196  0.0918  1.6074  1.9316
 4045TIP3    H233627   4.638   3.176  12.260 -1.4414  0.8411 -0.2813
 4046TIP3   OH233628   2.867   0.449   3.941 -1.3981 -0.6002 -0.0873
 4046TIP3    H133629   2.808   0.445   4.016 -1.2662  0.5581  0.0945
 4046TIP3    H233630   2.810   0.439   3.865 -1.6262 -1.0105  0.1322
 4047TIP3   OH233631   3.834   6.743   5.726  0.2236 -0.1750  0.5524
 4047TIP3    H133632   3.853   6.757   5.634  3.1557  0.1922  1.1261
 4047TIP3    H233633   3.739   6.751   5.733  0.1136  1.8065 -2.0838
 4048TIP3   OH233634   4.200   6.455   5.691 -0.2945 -0.0734 -0.4968
 4048TIP3    H133635   4.144   6.513   5.742 -1.4739 -0.5294 -1.2228
 4048TIP3    H233636   4.219   6.504   5.611 -0.7265 -0.3991 -0.8077
 4049TIP3   OH233637   5.221   0.840   0.376  0.7524 -0.5097 -0.3786
 4049TIP3    H133638   5.224   0.751   0.411  0.8962 -0.0550  0.7869
 4049TIP3    H233639   5.129   0.867   0.384  0.6155 -0.7174 -1.1716
 4050TIP3   OH233640   4.849   2.298  12.881 -0.0968  0.4699  0.9527
 4050TIP3    H133641   4.795   2.377  12.888  0.0327  1.0255 -2.5662
 4050TIP3    H233642   4.786   2.226  12.888 -0.5008  0.9102  2.1397
 4051TIP3   OH233643   4.722   0.206   4.307  0.8666 -0.0860 -0.2743
 4051TIP3    H133644   4.693   0.297   4.312  1.2402  0.1587 -1.9128
 4051TIP3    H233645   4.730   0.189   4.213  0.9102 -1.7796  0.0104
 4052TIP3   OH233646   5.959   2.814  12.754  0.2711 -0.5302 -0.1871
 4052TIP3    H133647   5.994   2.843  12.670 -0.7109 -0.2882 -0.5344
 4052TIP3    H233648   5.883   2.870  12.769  1.4330  0.6617  1.7480
 4053TIP3   OH233649   0.944   0.320  16.111  0.0116 -0.1195 -0.2641
 4053TIP3    H133650   0.990   0.276  16.040 -0.4169 -0.7105 -0.1768
 4053TIP3    H233651   0.869   0.362  16.068 -0.1723 -0.3638 -0.1810
 4054TIP3   OH233652   2.071   6.417  15.880 -0.1668 -0.4193  0.2082
 4054TIP3    H133653   2.087   6.379  15.794 -2.6666 -1.0996 -0.0329
 4054TIP3    H233654   2.134   6.489  15.886  0.8549 -1.0768 -1.6716
 4055TIP3   OH233655   3.392   2.478   1.868  0.1139  0.2754 -0.0651
 4055TIP3    H133656   3.344   2.417   1.924 -0.0832  0.3282 -0.1720
 4055TIP3    H233657   3.387   2.561   1.914 -0.4457  0.4232 -0.3734
 4056TIP3   OH233658   6.631   3.142   0.465 -0.2998  0.4286  0.5412
 4056TIP3    H133659   6.637   3.110   0.375  1.7446 -0.2480  0.8579
 4056TIP3    H233660   6.613   3.064   0.517  0.7258  0.4398  0.9270
 4057TIP3   OH233661   1.079   4.826   2.888  0.0236 -0.1880 -0.5314
 4057TIP3    H133662   1.067   4.921   2.889 -0.7102 -0.2547 -1.5325
 4057TIP3    H233663   1.101   4.805   2.797 -4.0013 -1.3843 -1.4613
 4058TIP3   OH233664   5.557   1.916   5.477 -0.5605  0.0457 -0.3705
 4058TIP3    H133665   5.555   1.825   5.449 -1.5371  0.3558 -1.3544
 4058TIP3    H233666   5.481   1.956   5.435 -1.2295  0.8888  1.5419
 4059TIP3   OH233667   1.608   6.744  11.461 -0.2148  0.2528 -0.1311
 4059TIP3    H133668   1.561   6.735  11.378  0.7815 -0.7306 -0.6175
 4059TIP3    H233669   1.696   6.710  11.443  0.2298  0.6421  1.1551
 4060TIP3   OH233670   1.385   1.774   5.082 -0.6790  0.3474 -0.0845
 4060TIP3    H133671   1.474   1.756   5.113 -0.5620 -0.3961 -0.8092
 4060TIP3    H233672   1.343   1.818   5.155  0.5019  1.3570  0.0175
 4061TIP3   OH233673   4.975   3.869   0.697 -0.2104 -0.0425 -0.1307
 4061TIP3    H133674   4.885   3.900   0.712 -0.3306  0.0318 -0.9830
 4061TIP3    H233675   4.967   3.773   0.698 -0.0318 -0.0714  1.3228
 4062TIP3   OH233676   0.675   2.375  16.582  0.2489 -0.1056  0.0035
 4062TIP3    H133677   0.591   2.371  16.626  0.3803 -2.0096  0.1550
 4062TIP3    H233678   0.738   2.347  16.648  1.0091  1.0911 -0.1716
 4063TIP3   OH233679   3.723   4.761   4.527  0.2821 -0.2909 -0.9873
 4063TIP3    H133680   3.756   4.851   4.541  1.0569 -0.7846  0.6300
 4063TIP3    H233681   3.793   4.718   4.478  2.7104 -1.5676  3.1266
 4064TIP3   OH233682   3.781   3.367  15.978 -0.5623 -0.1264 -0.2499
 4064TIP3    H133683   3.777   3.443  16.037 -0.6110  1.8374 -2.6346
 4064TIP3    H233684   3.870   3.335  15.985  0.0761  1.4640 -0.6859
 4065TIP3   OH233685   5.067   2.264   3.705 -0.1277 -0.8407  0.3390
 4065TIP3    H133686   5.056   2.178   3.745  1.8745 -1.1722  0.2923
 4065TIP3    H233687   5.078   2.247   3.612  0.9020 -0.6243  0.4043
 4066TIP3   OH233688   4.394   3.777   5.416 -0.4446 -0.1924  0.5135
 4066TIP3    H133689   4.346   3.696   5.434 -0.8427  0.0752  0.6704
 4066TIP3    H233690   4.405   3.818   5.501 -1.0058  0.3376  0.3356
 4067TIP3   OH233691   1.059   5.026   1.360  0.2678  0.1574 -0.0595
 4067TIP3    H133692   0.986   5.085   1.379  0.6911  0.1326  1.8108
 4067TIP3    H233693   1.103   5.067   1.285 -0.0917  1.6421  0.5088
 4068TIP3   OH233694   4.659   0.625   0.251 -0.0648  0.1445  0.4151
 4068TIP3    H133695   4.743   0.633   0.207 -0.2448  0.1594  0.0681
 4068TIP3    H233696   4.595   0.654   0.186 -0.3115  0.4224  0.7803
 4069TIP3   OH233697   2.202   3.005  13.404  0.5650 -0.4425  0.4683
 4069TIP3    H133698   2.227   3.085  13.451  0.2148 -1.0572  1.7375
 4069TIP3    H233699   2.110   3.019  13.381  0.8498  0.0272 -0.4003
 4070TIP3   OH233700   4.768   6.419  13.463  0.0111 -0.2833 -0.2741
 4070TIP3    H133701   4.755   6.330  13.432 -0.3893  0.0592 -1.1113
 4070TIP3    H233702   4.839   6.412  13.527 -0.1846 -1.2332 -0.1549
 4071TIP3   OH233703   5.393   1.634  16.141  0.1789 -0.1906  0.0043
 4071TIP3    H133704   5.462   1.668  16.199  1.3669  0.0640 -1.4971
 4071TIP3    H233705   5.402   1.539  16.147 -0.4525 -0.1994  1.0734
 4072TIP3   OH233706   5.725   4.220   0.227 -0.2090 -0.0058  0.6791
 4072TIP3    H133707   5.639   4.197   0.192 -0.5541 -0.2320  1.6411
 4072TIP3    H233708   5.782   4.149   0.199 -0.4940 -0.2166  0.6266
 4073TIP3   OH233709   6.632   2.209   2.295  0.0357 -0.0297 -0.7330
 4073TIP3    H133710   6.723   2.240   2.291  0.0456  0.4840  1.7166
 4073TIP3    H233711   6.591   2.264   2.362 -2.0211 -0.4602 -1.5582
 4074TIP3   OH233712   3.788   4.461  17.097  0.2285  0.0546 -0.0214
 4074TIP3    H133713   3.782   4.482  17.191 -0.6572  0.3488 -0.1355
 4074TIP3    H233714   3.704   4.421  17.076  0.4920 -0.1758 -0.6541
 4075TIP3   OH233715   6.604   6.349  14.698 -0.4570 -0.2734  0.0739
 4075TIP3    H133716   6.661   6.274  14.678 -0.8076  0.0631 -2.5064
 4075TIP3    H233717   6.635   6.380  14.783  1.0201 -2.0980  0.2850
 4076TIP3   OH233718   5.672   4.177   2.847  0.0768 -0.0653  0.1494
 4076TIP3    H133719   5.626   4.231   2.911 -1.7359 -0.5567 -0.6858
 4076TIP3    H233720   5.742   4.234   2.814 -0.5842  1.0845  0.6621
 4077TIP3   OH233721   0.776   5.022   0.579 -0.1219  0.9915  0.1419
 4077TIP3    H133722   0.803   4.942   0.533  0.1588  2.1138 -1.7549
 4077TIP3    H233723   0.839   5.030   0.651 -0.6942 -0.9205  0.9419
 4078TIP3   OH233724   1.379   0.880   5.286 -0.1114  0.3081  0.2233
 4078TIP3    H133725   1.409   0.790   5.276  0.4638  0.4510  0.5683
 4078TIP3    H233726   1.388   0.898   5.379  0.9426  1.1043 -0.0088
 4079TIP3   OH233727   5.790   0.249  10.524  0.6676 -0.2174  0.0443
 4079TIP3    H133728   5.867   0.237  10.579  0.8421  0.7873  0.0358
 4079TIP3    H233729   5.773   0.343  10.527  0.1047 -0.2803 -0.8470
 4080TIP3   OH233730   0.147   6.799  13.712 -0.2960 -0.4073  0.0827
 4080TIP3    H133731   0.164   6.705  13.718 -0.5647 -0.4631  0.0136
 4080TIP3    H233732   0.086   6.817  13.784 -0.4158 -0.3295 -0.0352
 4081TIP3   OH233733   4.510   0.952   2.971 -0.1734  0.1523 -0.1299
 4081TIP3    H133734   4.516   1.040   3.008  0.4535 -0.5881  1.6081
 4081TIP3    H233735   4.444   0.908   3.024  0.0954 -0.6704 -0.4656
 4082TIP3   OH233736   6.774   5.221   0.336 -0.3122  0.1080 -0.1959
 4082TIP3    H133737   6.807   5.135   0.360 -0.8760  0.4956  2.2400
 4082TIP3    H233738   6.679   5.215   0.348 -0.2044  1.5245  1.8141
 4083TIP3   OH233739   4.256   2.348   2.491 -0.6330  0.2596  0.1258
 4083TIP3    H133740   4.314   2.421   2.510 -0.9842  0.5326  0.1768
 4083TIP3    H233741   4.286   2.314   2.407  0.1603 -0.1804  0.5836
 4084TIP3   OH233742   5.598   5.895  16.458 -0.2799  0.0843  0.1606
 4084TIP3    H133743   5.572   5.837  16.530  1.0898 -1.4615 -0.5042
 4084TIP3    H233744   5.623   5.977  16.501  0.4970 -0.7920  1.4846
 4085TIP3   OH233745   1.142   5.603   5.272 -0.4839 -0.2796  0.1505
 4085TIP3    H133746   1.080   5.530   5.276 -1.6434  0.6114 -0.9679
 4085TIP3    H233747   1.152   5.621   5.178  1.8182 -0.6519  0.2427
 4086TIP3   OH233748   2.393   5.998   2.359  0.3564  0.6211  0.3858
 4086TIP3    H133749   2.462   6.043   2.408  0.0685  1.2677  0.2027
 4086TIP3    H233750   2.372   5.921   2.413  1.0265  0.5636  0.5767
 4087TIP3   OH233751   6.146   6.237  16.958  0.3700 -0.2948 -0.3292
 4087TIP3    H133752   6.169   6.330  16.962 -0.4615 -0.0672 -0.6391
 4087TIP3    H233753   6.155   6.206  17.048  0.6958  0.0716 -0.2332
 4088TIP3   OH233754   2.864   1.599   1.846  0.6082 -0.1198  0.5478
 4088TIP3    H133755   2.939   1.555   1.885 -0.3380 -0.1511  2.4412
 4088TIP3    H233756   2.805   1.616   1.919 -1.1449  0.1101 -0.8433
 4089TIP3   OH233757   3.428   1.361   3.104  0.1704  0.6396 -0.3605
 4089TIP3    H133758   3.506   1.309   3.086 -0.5320 -0.4056 -0.4796
 4089TIP3    H233759   3.391   1.322   3.183  0.6939  2.2335  0.7241
 4090TIP3   OH233760   2.989   4.718   5.455  0.3900 -0.0744 -0.1434
 4090TIP3    H133761   3.070   4.756   5.420 -0.3894  2.3857  0.5441
 4090TIP3    H233762   2.963   4.653   5.389  3.8041 -2.3289  0.4522
 4091TIP3   OH233763   5.180   5.812  12.242  0.1177 -0.4873 -0.5727
 4091TIP3    H133764   5.237   5.849  12.176  0.4741  1.3950  0.7022
 4091TIP3    H233765   5.228   5.737  12.277 -0.0757 -1.4992 -2.3797
 4092TIP3   OH233766   3.251   1.172   2.555  0.3826 -0.0154  0.3125
 4092TIP3    H133767   3.331   1.177   2.502 -0.4059  1.4862 -0.7926
 4092TIP3    H233768   3.229   1.263   2.574 -1.7310 -0.3044 -0.4593
 4093TIP3   OH233769   5.175   1.718  12.115 -0.2116 -0.5074  0.3417
 4093TIP3    H133770   5.190   1.639  12.064 -0.7725 -1.0473  0.9986
 4093TIP3    H233771   5.226   1.705  12.195  3.4021  1.7282 -1.3149
 4094TIP3   OH233772   4.476   0.648   2.498 -0.0283  0.0335  0.4260
 4094TIP3    H133773   4.486   0.712   2.569 -0.5855  0.2749  0.2976
 4094TIP3    H233774   4.543   0.582   2.515 -0.4468 -0.1544  1.4390
 4095TIP3   OH233775   3.861   6.547  17.061 -0.6340  0.2446  0.5614
 4095TIP3    H133776   3.773   6.576  17.036 -0.3213 -0.3872 -1.4696
 4095TIP3    H233777   3.905   6.530  16.977  0.7263 -1.5267  1.5837
 4096TIP3   OH233778   1.189   5.515   5.854 -0.5143 -0.1702  0.5731
 4096TIP3    H133779   1.284   5.516   5.870 -0.5391  0.4382  0.7140
 4096TIP3    H233780   1.171   5.428   5.821  0.7223  0.8315 -3.2863
 4097TIP3   OH233781   5.575   3.695   4.197 -0.6864 -0.5588 -0.5886
 4097TIP3    H133782   5.556   3.659   4.110 -1.7341  0.2479 -0.7196
 4097TIP3    H233783   5.560   3.622   4.257 -3.4849 -0.2605 -0.7765
 4098TIP3   OH233784   1.774   1.217  14.444 -0.0795  0.2310 -0.2183
 4098TIP3    H133785   1.794   1.295  14.496 -0.5689  0.1402  0.1131
 4098TIP3    H233786   1.857   1.195  14.402 -0.2227  1.6303 -1.2901
 4099TIP3   OH233787   1.802   0.206   3.736  0.5318 -0.8673  0.0952
 4099TIP3    H133788   1.750   0.126   3.732  1.2506 -1.3227 -0.4974
 4099TIP3    H233789   1.743   0.275   3.707  0.0153 -1.2381  0.2447
 4100TIP3   OH233790   4.989   4.751  12.230  0.3313  0.1602 -0.5591
 4100TIP3    H133791   5.037   4.669  12.243 -2.1958 -1.5095 -0.9252
 4100TIP3    H233792   4.967   4.780  12.319  0.2807 -0.1787 -0.4595
 4101TIP3   OH233793   6.727   1.655  11.796 -0.2767 -0.1302  0.7537
 4101TIP3    H133794   6.669   1.655  11.720  1.3807  0.5462 -0.5707
 4101TIP3    H233795   6.728   1.563  11.825  0.4381 -0.7747 -1.1550
 4102TIP3   OH233796   3.514   3.984   5.141 -0.0742  0.3042 -0.2568
 4102TIP3    H133797   3.531   4.051   5.208  0.4506 -0.8983  0.8615
 4102TIP3    H233798   3.586   3.995   5.078 -0.8572  1.7840 -0.9611
 4103TIP3   OH233799   5.207   3.843   4.913  0.0827  0.5345 -0.6723
 4103TIP3    H133800   5.292   3.808   4.886 -0.3376  0.6496 -2.2263
 4103TIP3    H233801   5.151   3.767   4.921  0.0067  0.5642 -0.9058
 4104TIP3   OH233802   2.880   6.438   3.130 -0.0327 -0.1769  0.6716
 4104TIP3    H133803   2.945   6.368   3.134  0.2579  0.0240 -0.2712
 4104TIP3    H233804   2.852   6.450   3.221 -0.0357 -1.4563  0.8531
 4105TIP3   OH233805   6.052   0.571  11.176  0.0343  0.0918  0.2417
 4105TIP3    H133806   6.030   0.534  11.090  0.3334 -2.4014  1.1730
 4105TIP3    H233807   5.982   0.540  11.234  1.6281 -1.1724  1.5806
 4106TIP3   OH233808   3.298   4.357  11.464 -0.0190 -0.4347  0.1790
 4106TIP3    H133809   3.342   4.427  11.416 -0.5742 -1.3078 -1.7242
 4106TIP3    H233810   3.229   4.400  11.513  0.0237  0.4246 -0.4941
 4107TIP3   OH233811   4.502   4.135  16.765  0.4523  0.7862  0.1148
 4107TIP3    H133812   4.567   4.084  16.716 -0.4388 -0.0647 -0.2202
 4107TIP3    H233813   4.527   4.226  16.750  1.2793  0.4940 -0.4018
 4108TIP3   OH233814   0.345   0.214  17.243  0.0818  0.2546  0.2259
 4108TIP3    H133815   0.258   0.249  17.225 -0.9762 -2.4573 -0.4805
 4108TIP3    H233816   0.331   0.119  17.251  2.8058 -0.1468  1.2539
 4109TIP3   OH233817   4.298   5.824  16.134  0.4165  0.8084 -0.0939
 4109TIP3    H133818   4.387   5.810  16.167  0.6598  1.0169 -0.6348
 4109TIP3    H233819   4.291   5.920  16.127  0.0563  0.8015  0.1976
 4110TIP3   OH233820   6.506   0.118   2.778  0.2589  0.0821  0.4505
 4110TIP3    H133821   6.476   0.131   2.868 -1.8184  1.2597 -0.3432
 4110TIP3    H233822   6.476   0.031   2.754 -0.5638  0.3749  0.4044
 4111TIP3   OH233823   2.886   3.449  12.733  0.2824  0.3367  0.3593
 4111TIP3    H133824   2.861   3.528  12.781  0.8982  0.2740  0.7802
 4111TIP3    H233825   2.975   3.430  12.761  0.0427 -0.6662  0.4672
 4112TIP3   OH233826   2.211   0.278  17.284 -0.0916  0.1213 -0.0236
 4112TIP3    H133827   2.203   0.342  17.354  1.2595 -0.4282  0.6624
 4112TIP3    H233828   2.160   0.203  17.314 -0.0266  0.1182  0.0773
 4113TIP3   OH233829   0.536   1.819  13.434  0.2384 -0.3047 -0.0162
 4113TIP3    H133830   0.621   1.863  13.437 -0.1104  0.7106 -2.8553
 4113TIP3    H233831   0.495   1.840  13.518  2.1195  0.5070  0.7501
 4114TIP3   OH233832   2.327   0.948  11.883  0.4539  0.5471  1.1584
 4114TIP3    H133833   2.253   0.950  11.822 -0.5222 -1.1316  2.2120
 4114TIP3    H233834   2.289   0.923  11.967  2.0195  1.0798  2.0742
 4115TIP3   OH233835   2.475   2.884   2.047 -0.1802 -0.0601 -0.2748
 4115TIP3    H133836   2.539   2.814   2.059  0.3645  0.0686 -2.0706
 4115TIP3    H233837   2.477   2.933   2.129 -0.0694 -1.7196  0.7515
 4116TIP3   OH233838   2.828   4.594  12.765  0.7453 -0.3450  0.0572
 4116TIP3    H133839   2.906   4.646  12.784  1.2779 -1.7665  2.1656
 4116TIP3    H233840   2.765   4.620  12.833 -0.3569  0.1859 -1.1171
 4117TIP3   OH233841   2.794   1.969   5.077 -0.1955  0.7651 -0.0966
 4117TIP3    H133842   2.881   2.007   5.088  0.1930 -0.2414  0.4912
 4117TIP3    H233843   2.791   1.897   5.141 -0.7151 -0.4691 -1.4613
 4118TIP3   OH233844   5.170   4.419   2.101  0.3807 -0.3745  0.5725
 4118TIP3    H133845   5.208   4.420   2.013 -0.9213 -2.4891 -0.1017
 4118TIP3    H233846   5.204   4.338   2.140 -1.3828 -1.0423  0.8448
 4119TIP3   OH233847   3.592   5.124  14.545  0.1167 -0.0025  0.0662
 4119TIP3    H133848   3.543   5.055  14.590 -0.7773  0.1111 -0.7096
 4119TIP3    H233849   3.556   5.206  14.579 -0.9997  0.0919 -1.2611
 4120TIP3   OH233850   1.057   6.807  15.364  0.2489  0.1433 -0.0157
 4120TIP3    H133851   0.979   6.830  15.414  0.2902 -1.9209  1.1397
 4120TIP3    H233852   1.109   6.888  15.362 -1.3541  1.2214  0.2227
 4121TIP3   OH233853   4.692   1.699   4.788 -0.1053 -0.1685 -0.3111
 4121TIP3    H133854   4.688   1.742   4.873 -0.2371 -0.3905 -0.2034
 4121TIP3    H233855   4.759   1.747   4.740 -0.4071  0.2885 -0.2732
 4122TIP3   OH233856   5.548   5.595  15.965 -0.2079 -0.3861 -0.2695
 4122TIP3    H133857   5.580   5.505  15.961 -0.5704 -0.5011 -0.5589
 4122TIP3    H233858   5.534   5.611  16.059  0.8445 -0.2782 -0.1240
 4123TIP3   OH233859   3.240   2.121   6.034 -0.3176 -0.3503 -0.5304
 4123TIP3    H133860   3.322   2.075   6.050  0.2240  0.8956  0.4472
 4123TIP3    H233861   3.185   2.101   6.109 -0.0463  0.6133 -0.0525
 4124TIP3   OH233862   3.024   5.946  13.877 -0.0986 -0.5456  0.0184
 4124TIP3    H133863   3.074   5.996  13.942 -1.2887  0.2475  0.3407
 4124TIP3    H233864   2.934   5.947  13.910 -0.4460 -1.4492 -0.8621
 4125TIP3   OH233865   4.770   3.730   1.679  0.7113  0.0238 -0.4903
 4125TIP3    H133866   4.807   3.807   1.635 -2.5176  0.7790 -2.1818
 4125TIP3    H233867   4.676   3.745   1.679  0.1433 -2.7028  1.6405
 4126TIP3   OH233868   0.301   3.426   4.616  0.1529 -0.6416  0.6583
 4126TIP3    H133869   0.365   3.441   4.686 -0.2565 -1.1004  1.1427
 4126TIP3    H233870   0.240   3.363   4.653  0.2247 -1.3052 -0.3064
 4127TIP3   OH233871   2.545   1.654   6.214  0.2068 -0.3216  0.3856
 4127TIP3    H133872   2.469   1.663   6.158 -0.4708 -1.0421  1.1680
 4127TIP3    H233873   2.559   1.560   6.222  0.6116 -0.2188  0.9995
 4128TIP3   OH233874   2.696   6.567   6.072  0.8534 -0.0542 -0.0767
 4128TIP3    H133875   2.602   6.580   6.056  0.4732  0.5175  2.2854
 4128TIP3    H233876   2.734   6.654   6.064  1.0120 -0.1181 -0.0080
 4129TIP3   OH233877   2.008   6.260  16.131  0.2026 -0.0284 -0.1924
 4129TIP3    H133878   2.030   6.313  16.055  0.4295  1.3200  0.7898
 4129TIP3    H233879   1.915   6.277  16.147  0.3244  0.2476  0.2481
 4130TIP3   OH233880   5.080   6.255   2.467  0.3163  0.3889  0.0415
 4130TIP3    H133881   5.038   6.270   2.383  0.0841 -0.7952 -0.0795
 4130TIP3    H233882   5.008   6.237   2.528  0.5545 -0.1378  0.1745
 4131TIP3   OH233883   6.505   5.107  11.619 -0.2852 -0.2525 -0.5778
 4131TIP3    H133884   6.554   5.098  11.701 -0.5269 -1.1609 -0.5265
 4131TIP3    H233885   6.435   5.168  11.640  0.4179  0.5445 -0.4717
 4132TIP3   OH233886   0.147   0.837   0.651 -0.0142 -0.0907 -0.2687
 4132TIP3    H133887   0.075   0.839   0.714  0.8269  1.0023  0.7122
 4132TIP3    H233888   0.158   0.745   0.629 -0.6706 -0.4353  0.8112
 4133TIP3   OH233889   0.233   3.528  14.220  0.2561 -0.1189  0.5006
 4133TIP3    H133890   0.276   3.510  14.303 -1.2970  1.1193  1.6444
 4133TIP3    H233891   0.292   3.492  14.154  1.6745 -0.8861  2.1063
 4134TIP3   OH233892   2.859   0.864   5.243 -0.1415 -0.1640 -0.3329
 4134TIP3    H133893   2.800   0.890   5.314  0.1032 -2.0556  0.6362
 4134TIP3    H233894   2.842   0.770   5.231  0.5591 -0.1084 -2.0906
 4135TIP3   OH233895   4.131   5.537   6.035  0.0717  0.4813 -0.1363
 4135TIP3    H133896   4.069   5.556   5.964 -0.2078 -2.5680 -0.8352
 4135TIP3    H233897   4.207   5.500   5.991 -0.3230 -1.9906  1.1043
 4136TIP3   OH233898   2.192   2.247   5.722 -0.7431  0.1739 -0.4684
 4136TIP3    H133899   2.104   2.211   5.719 -1.0455  0.9211 -0.8009
 4136TIP3    H233900   2.234   2.204   5.797 -1.7946  0.7403  0.4686
 4137TIP3   OH233901   3.461   3.875   3.902 -0.1702  0.4015  0.5136
 4137TIP3    H133902   3.509   3.807   3.949  2.5858  1.5342 -0.4372
 4137TIP3    H233903   3.500   3.957   3.931 -0.6277  1.3257 -1.2875
 4138TIP3   OH233904   4.928   1.282   0.458  0.1773 -0.8110 -0.3072
 4138TIP3    H133905   4.947   1.210   0.398  0.2579 -0.9160 -0.1560
 4138TIP3    H233906   4.970   1.257   0.540 -0.7182 -1.1141  0.0720
 4139TIP3   OH233907   6.401   4.290  15.785 -0.0629  0.0457 -0.3979
 4139TIP3    H133908   6.448   4.310  15.704  1.2542  1.5771  0.6691
 4139TIP3    H233909   6.469   4.258  15.844 -0.4762  1.4280  0.8868
 4140TIP3   OH233910   1.383   1.386  12.437 -0.2772  0.6234 -0.2986
 4140TIP3    H133911   1.439   1.390  12.359 -0.0713 -1.5913 -0.3164
 4140TIP3    H233912   1.444   1.369  12.509 -0.8857 -3.7787 -0.5556
 4141TIP3   OH233913   6.404   2.404   6.525  0.0799  0.1810  0.2824
 4141TIP3    H133914   6.422   2.325   6.474 -2.5268 -0.9729  0.9451
 4141TIP3    H233915   6.473   2.408   6.590  0.4007 -1.4440  0.0777
 4142TIP3   OH233916   1.824   0.954   4.234 -0.1865 -0.1798 -0.8291
 4142TIP3    H133917   1.728   0.953   4.228 -0.1492  0.8901 -2.0015
 4142TIP3    H233918   1.843   0.914   4.319 -1.7288  0.5885 -0.0779
 4143TIP3   OH233919   5.533   4.675   3.352 -0.4060  0.2504 -0.5180
 4143TIP3    H133920   5.470   4.625   3.402 -1.3245  0.6800 -1.2141
 4143TIP3    H233921   5.614   4.624   3.357 -0.6105  0.0347  0.9422
 4144TIP3   OH233922   0.697   0.045   4.494 -0.0608 -0.2319 -0.3059
 4144TIP3    H133923   0.788   0.016   4.490  0.0877  0.2010 -0.2072
 4144TIP3    H233924   0.646  -0.035   4.499  0.3488 -0.4701  0.2670
 4145TIP3   OH233925   5.947   2.597   6.599 -0.2777  0.0512  0.2543
 4145TIP3    H133926   5.857   2.565   6.600 -0.3467  0.2087 -0.3188
 4145TIP3    H233927   6.000   2.521   6.574 -0.2148 -0.1175  0.8887
 4146TIP3   OH233928   2.125   1.628  12.661  0.9113  0.1645  0.0536
 4146TIP3    H133929   2.157   1.705  12.614  4.3238 -0.6814  0.7309
 4146TIP3    H233930   2.093   1.663  12.744 -0.2749  1.0864 -0.7447
 4147TIP3   OH233931   3.612   4.937  16.880 -0.0825 -0.3453  0.0396
 4147TIP3    H133932   3.593   5.029  16.863 -1.0033 -0.2658  1.3288
 4147TIP3    H233933   3.707   4.935  16.891  0.2864 -0.0386 -2.5545
 4148TIP3   OH233934   5.912   6.111  12.256  0.1451 -0.0449 -0.3031
 4148TIP3    H133935   5.858   6.186  12.278  0.3261  0.4107 -1.3174
 4148TIP3    H233936   5.975   6.104  12.327 -0.6762 -0.0332  0.4373
 4149TIP3   OH233937   5.829   5.527   3.773  0.9277  0.5860 -0.3601
 4149TIP3    H133938   5.895   5.564   3.830  0.2948 -0.1664  0.9130
 4149TIP3    H233939   5.874   5.458   3.725  1.1141  0.1679  0.4022
 4150TIP3   OH233940   0.985   3.311   6.253 -0.3508  0.0190 -0.0028
 4150TIP3    H133941   1.075   3.282   6.266  0.6641  0.8905 -3.6751
 4150TIP3    H233942   0.991   3.407   6.254 -1.4147  0.0894  0.5685
 4151TIP3   OH233943   2.049   5.260  13.133 -0.5676 -0.7933  0.4176
 4151TIP3    H133944   2.119   5.270  13.198  0.6207  0.7446 -1.0069
 4151TIP3    H233945   1.981   5.320  13.161 -0.1970 -0.3742  0.4318
 4152TIP3   OH233946   5.624   1.941   5.990  0.0992 -0.6058  0.0425
 4152TIP3    H133947   5.712   1.918   5.960 -0.9545 -2.7444 -1.6908
 4152TIP3    H233948   5.569   1.930   5.913 -1.9514 -0.9661  1.4828
 4153TIP3   OH233949   2.907   3.072  11.329 -0.2985  0.1407  0.4579
 4153TIP3    H133950   2.858   3.076  11.247 -1.0656 -0.4048  0.8766
 4153TIP3    H233951   2.989   3.119  11.311  0.0444 -0.9338 -0.9618
 4154TIP3   OH233952   2.610   4.847  11.717  0.0270 -0.6110 -0.0962
 4154TIP3    H133953   2.646   4.857  11.628  0.9811  0.0428  0.3436
 4154TIP3    H233954   2.676   4.794  11.763  1.0342  1.5060  1.0367
 4155TIP3   OH233955   0.671   0.760  11.121 -0.3467  0.0283  0.1277
 4155TIP3    H133956   0.591   0.735  11.075  0.3916 -3.4230  0.4493
 4155TIP3    H233957   0.665   0.855  11.129 -1.8022  0.6014 -4.6091
 4156TIP3   OH233958   3.605   1.610  11.923 -0.6734 -0.5988  0.8123
 4156TIP3    H133959   3.614   1.671  11.996 -0.5260 -0.0956  0.3845
 4156TIP3    H233960   3.613   1.523  11.962  0.3038 -0.3130  1.2652
 4157TIP3   OH233961   5.341   6.666  15.008 -0.0901 -0.3465 -0.5073
 4157TIP3    H133962   5.380   6.639  14.925  1.7016 -2.2782  0.8535
 4157TIP3    H233963   5.401   6.632  15.075 -1.3906  1.2358  1.6006
 4158TIP3   OH233964   0.520   6.209   4.365 -0.2932  0.0923 -0.3369
 4158TIP3    H133965   0.600   6.182   4.410  0.8955  2.6343 -0.7342
 4158TIP3    H233966   0.463   6.132   4.369  1.6529 -1.3848  1.0993
 4159TIP3   OH233967   4.277   4.877  15.842 -0.0016 -0.0252  0.0969
 4159TIP3    H133968   4.211   4.891  15.910 -0.7172  1.3763 -0.8234
 4159TIP3    H233969   4.318   4.963  15.831  2.1030 -0.8883  0.7320
 4160TIP3   OH233970   6.107   6.424  15.547 -0.2082 -0.4880  0.0245
 4160TIP3    H133971   6.128   6.502  15.496 -0.0791 -0.9503 -0.6423
 4160TIP3    H233972   6.037   6.452  15.605 -0.0977  0.1502 -0.1400
 4161TIP3   OH233973   2.769   0.995   4.394  0.2433  0.2440  0.1073
 4161TIP3    H133974   2.676   1.018   4.400  0.2866  0.4770 -0.0813
 4161TIP3    H233975   2.770   0.903   4.369  0.0612  0.2576  0.0459
 4162TIP3   OH233976   4.692   2.000   1.305  0.1279  0.4270 -0.1693
 4162TIP3    H133977   4.676   1.954   1.222  0.2925 -0.9741  0.5605
 4162TIP3    H233978   4.607   2.000   1.349  0.6312 -1.3851  0.9002
 4163TIP3   OH233979   0.898   0.409   4.748 -0.8297 -0.2281 -0.0114
 4163TIP3    H133980   0.980   0.388   4.703  0.2409  2.8584  0.2492
 4163TIP3    H233981   0.924   0.422   4.839 -1.9275 -0.7337  0.3894
 4164TIP3   OH233982   6.480   3.475   1.170 -0.0926  0.3696  0.8070
 4164TIP3    H133983   6.486   3.567   1.199  0.9152 -0.3354  3.1094
 4164TIP3    H233984   6.481   3.480   1.075 -1.6505  2.8367  0.8296
 4165TIP3   OH233985   0.069   1.720  12.004  0.0823  0.3978 -0.0957
 4165TIP3    H133986   0.051   1.684  11.917  1.3940 -0.7853  0.0809
 4165TIP3    H233987   0.112   1.804  11.987 -3.1809  2.1510 -0.5142
 4166TIP3   OH233988   1.008   0.371  16.980  0.1559 -0.1623  0.2592
 4166TIP3    H133989   0.978   0.433  16.914  1.5316  1.0848  0.7602
 4166TIP3    H233990   1.042   0.297  16.930 -2.7660 -1.2507 -0.3414
 4167TIP3   OH233991   2.967   4.961   3.636 -0.2692 -0.2367  0.2174
 4167TIP3    H133992   2.918   4.962   3.554 -0.7722  1.1954  0.4929
 4167TIP3    H233993   3.025   5.037   3.629  1.3207 -1.4127  0.2598
 4168TIP3   OH233994   5.220   1.935  11.944 -0.7674  0.1176 -0.4188
 4168TIP3    H133995   5.185   1.851  11.974 -1.5858  0.1163 -1.3334
 4168TIP3    H233996   5.278   1.964  12.015  2.0903 -2.7283 -1.3208
 4169TIP3   OH233997   4.757   4.380   6.333  0.3584  0.1403  0.3556
 4169TIP3    H133998   4.782   4.305   6.388 -0.7113 -0.5664 -0.0745
 4169TIP3    H233999   4.709   4.438   6.393  0.8980  0.3271  0.6129
 4170TIP3   OH234000   0.870   4.586  15.190  0.0188  0.3175  0.7068
 4170TIP3    H134001   0.907   4.643  15.122  0.7715 -0.3585  0.5311
 4170TIP3    H234002   0.829   4.515  15.142 -0.7622  0.6057  0.9307
 4171TIP3   OH234003   4.229   1.132   3.273 -0.4704 -0.1991 -0.1981
 4171TIP3    H134004   4.218   1.050   3.321  0.3782  0.1614  0.6476
 4171TIP3    H234005   4.322   1.136   3.253 -0.5161  0.5260 -0.2989
 4172TIP3   OH234006   3.072   5.760   1.459 -0.5717 -0.0140 -0.4710
 4172TIP3    H134007   2.995   5.752   1.402 -0.4701  0.5732 -0.6922
 4172TIP3    H234008   3.093   5.853   1.459 -1.5481  0.2638  1.8382
 4173TIP3   OH234009   2.276   4.848   1.732  0.3528  0.6316 -0.0162
 4173TIP3    H134010   2.185   4.819   1.731  0.2613  0.8636 -1.9612
 4173TIP3    H234011   2.272   4.941   1.709  1.0805  0.6238 -0.2022
 4174TIP3   OH234012   5.175   5.635   2.675  0.4366  0.6381  0.2466
 4174TIP3    H134013   5.165   5.547   2.638  3.4452  0.0818  0.5361
 4174TIP3    H234014   5.103   5.685   2.637 -1.3025 -1.8822 -0.0467
 4175TIP3   OH234015   4.812   0.482  15.238 -0.2400  1.1838  0.2120
 4175TIP3    H134016   4.888   0.477  15.180 -0.6313  1.9202 -0.3845
 4175TIP3    H234017   4.753   0.414  15.204 -0.8521  2.2099 -0.8549
 4176TIP3   OH234018   2.657   3.812  15.581  0.0299  0.5663  0.0431
 4176TIP3    H134019   2.603   3.799  15.659  0.8295  0.2630  0.5601
 4176TIP3    H234020   2.744   3.783  15.607  0.3040  0.4169 -0.9835
 4177TIP3   OH234021   1.841   0.722   3.251  0.0902  0.1029  0.2763
 4177TIP3    H134022   1.780   0.658   3.286  0.5419  0.2287  1.3183
 4177TIP3    H234023   1.923   0.704   3.296  1.0357 -0.5030 -1.5833
 4178TIP3   OH234024   0.068   4.195  13.207 -0.3613 -0.1467  0.4324
 4178TIP3    H134025   0.064   4.211  13.113 -2.9106 -1.2070  0.2897
 4178TIP3    H234026   0.050   4.280  13.246 -0.0243  0.1477 -0.0409
 4179TIP3   OH234027   1.845   0.131   5.494 -0.0258  0.3153 -0.3637
 4179TIP3    H134028   1.844   0.067   5.565 -0.2722  1.4257  0.6691
 4179TIP3    H234029   1.929   0.176   5.504 -0.7297  1.5455  0.2413
 4180TIP3   OH234030   0.921   2.129   2.499  0.4616 -0.2200  0.6406
 4180TIP3    H134031   0.850   2.065   2.503  0.7382 -0.5094  1.0312
 4180TIP3    H234032   0.948   2.130   2.408  0.0126 -0.1730  0.5049
 4181TIP3   OH234033   2.035   6.401   6.182 -0.6661  0.0214  0.8233
 4181TIP3    H134034   2.096   6.375   6.251  1.4643  0.4726 -0.8096
 4181TIP3    H234035   2.002   6.487   6.211  1.5391  1.0307  0.5253
 4182TIP3   OH234036   0.800   2.446  11.971  0.2998  0.0023  0.0281
 4182TIP3    H134037   0.868   2.387  12.005  1.2731  0.1447 -1.5905
 4182TIP3    H234038   0.843   2.531  11.965 -0.4889  0.4393  0.3843
 4183TIP3   OH234039   0.772   1.340   3.077  0.6265  0.2899  0.0382
 4183TIP3    H134040   0.849   1.324   3.022  0.1782 -0.3713 -0.4032
 4183TIP3    H234041   0.726   1.256   3.079  0.3923  0.4310  1.0499
 4184TIP3   OH234042   5.521   0.363   1.753  0.0129  0.1931  0.3304
 4184TIP3    H134043   5.595   0.378   1.694  1.9435 -0.7610  2.3576
 4184TIP3    H234044   5.538   0.277   1.791 -4.2979 -2.0198 -2.0019
 4185TIP3   OH234045   2.754   2.752  13.205 -0.1126 -0.5476  0.1490
 4185TIP3    H134046   2.735   2.822  13.142 -0.3878  0.5177  1.3780
 4185TIP3    H234047   2.749   2.794  13.291 -0.2543 -2.0770  0.9344
 4186TIP3   OH234048   1.425   5.659   2.869 -0.0997 -0.0187 -0.0874
 4186TIP3    H134049   1.462   5.603   2.801 -0.3921 -0.5997  0.2156
 4186TIP3    H234050   1.482   5.736   2.871  0.6350 -0.5465 -0.1476
 4187TIP3   OH234051   0.535   1.254   0.422  0.4001  0.5748  0.2837
 4187TIP3    H134052   0.452   1.247   0.469  0.8670  2.0335  1.4155
 4187TIP3    H234053   0.585   1.178   0.450  0.1367  0.6852  1.0943
 4188TIP3   OH234054   2.518   4.844   3.728  0.2276 -0.1583 -0.0908
 4188TIP3    H134055   2.584   4.902   3.766  0.0175  0.8305 -1.1626
 4188TIP3    H234056   2.438   4.864   3.776  0.0533  0.7974 -0.7456
 4189TIP3   OH234057   1.384   1.187  16.891  0.3774  0.3986  0.0669
 4189TIP3    H134058   1.386   1.179  16.795 -0.8022  2.1970 -0.1632
 4189TIP3    H234059   1.307   1.138  16.918  1.5443 -1.3995  0.3111
 4190TIP3   OH234060   1.984   4.806   1.786 -0.9605 -0.3540  0.3599
 4190TIP3    H134061   1.909   4.787   1.841  0.4671 -0.0913  2.5103
 4190TIP3    H234062   2.006   4.897   1.805 -0.2051 -0.3667 -0.3639
 4191TIP3   OH234063   5.181   4.372  13.380  0.3880 -0.1652 -0.0449
 4191TIP3    H134064   5.217   4.378  13.292 -0.7043 -0.3556 -0.5225
 4191TIP3    H234065   5.138   4.287  13.382 -0.1966  0.1368  0.4433
 4192TIP3   OH234066   6.469   3.215   0.039 -0.0420 -0.2449 -0.2322
 4192TIP3    H134067   6.516   3.214  -0.044 -0.4715  1.7285 -0.5561
 4192TIP3    H234068   6.384   3.254   0.019 -1.1908 -2.1355  0.6772
 4193TIP3   OH234069   1.376   4.335   1.710 -0.2952  0.7296 -0.1900
 4193TIP3    H134070   1.394   4.381   1.792  0.1224  0.9585 -0.4087
 4193TIP3    H234071   1.396   4.398   1.641  0.5180  0.1537 -0.4987
 4194TIP3   OH234072   4.135   5.893   0.422  0.6372  0.3262  0.6531
 4194TIP3    H134073   4.048   5.933   0.421  0.9200  0.9524 -0.7687
 4194TIP3    H234074   4.120   5.802   0.450 -0.2927  0.7837  1.6946
 4195TIP3   OH234075   5.857   4.148  16.701  0.3194 -0.1129  0.2324
 4195TIP3    H134076   5.813   4.157  16.617 -1.0423  2.4240  1.1098
 4195TIP3    H234077   5.806   4.082  16.748  1.7904 -2.4437 -1.2514
 4196TIP3   OH234078   1.028   5.004  12.219 -0.2611  0.1828  0.3261
 4196TIP3    H134079   1.077   5.055  12.283  0.2122 -0.0042  0.1168
 4196TIP3    H234080   0.943   4.989  12.261  0.0986 -0.0823  0.9819
 4197TIP3   OH234081   5.756   3.219   2.854 -0.1408  0.0893 -0.3123
 4197TIP3    H134082   5.784   3.148   2.913  0.3777  0.8992  0.4502
 4197TIP3    H234083   5.783   3.189   2.767  0.4128 -0.4853  0.0444
 4198TIP3   OH234084   2.238   2.605   0.328  0.4087  0.1922 -0.1219
 4198TIP3    H134085   2.243   2.674   0.263  0.9620 -0.2192 -0.5227
 4198TIP3    H234086   2.207   2.528   0.279  0.8247 -0.1169  0.0939
 4199TIP3   OH234087   1.832   3.039  14.841  0.2339 -0.6180 -0.1166
 4199TIP3    H134088   1.805   2.994  14.761 -0.2523  0.2416 -0.4472
 4199TIP3    H234089   1.775   3.003  14.909 -1.2464  0.5952 -0.6653
 4200TIP3   OH234090   2.374   6.149   2.743  0.4981  0.2222 -0.5778
 4200TIP3    H134091   2.439   6.132   2.676  2.0931  0.2295  0.9056
 4200TIP3    H234092   2.320   6.070   2.745  0.7387  0.0290 -1.5133
 4201TIP3   OH234093   1.226   3.775  12.583  0.0010  0.2384 -0.5682
 4201TIP3    H134094   1.292   3.716  12.546  1.0285  1.4325 -0.7139
 4201TIP3    H234095   1.203   3.833  12.511  0.3112  1.1290  0.0437
 4202TIP3   OH234096   5.119   0.598  16.157  0.1536 -0.1428 -0.2395
 4202TIP3    H134097   5.186   0.654  16.117  0.5151  0.2793  0.9184
 4202TIP3    H234098   5.160   0.563  16.235 -0.9113 -0.0300  0.3916
 4203TIP3   OH234099   3.934   0.535   0.005  0.1227 -0.3906  0.7714
 4203TIP3    H134100   3.898   0.487  -0.070  0.2170 -1.9791  1.6974
 4203TIP3    H234101   3.864   0.534   0.070 -0.1998  1.5495  0.5266
 4204TIP3   OH234102   0.568   3.828   0.937  0.1257 -0.3967 -0.8006
 4204TIP3    H134103   0.580   3.818   1.031  0.2053  0.5716 -0.7035
 4204TIP3    H234104   0.474   3.839   0.925  0.3210  2.0203 -0.5566
 4205TIP3   OH234105   6.679   3.374   3.814  0.8879  0.4273 -0.5583
 4205TIP3    H134106   6.700   3.455   3.767  0.7783  0.6478 -0.2321
 4205TIP3    H234107   6.636   3.319   3.749 -2.0476  1.8751 -0.0382
 4206TIP3   OH234108   3.578   0.374   2.823  0.4003  0.8280 -0.0724
 4206TIP3    H134109   3.589   0.294   2.771  0.1755  1.2157 -0.7341
 4206TIP3    H234110   3.527   0.432   2.767 -1.2033  0.7026  1.1739
 4207TIP3   OH234111   0.742   2.605  13.523  0.4522 -0.6925  0.2958
 4207TIP3    H134112   0.712   2.529  13.571  0.1343 -0.0189  1.1937
 4207TIP3    H234113   0.693   2.678  13.561  0.8313 -0.0307 -0.4661
 4208TIP3   OH234114   2.124   5.509   5.610  0.7882 -0.4988 -0.6614
 4208TIP3    H134115   2.094   5.419   5.620  0.1200 -0.1426  0.8839
 4208TIP3    H234116   2.219   5.503   5.615  0.8826 -1.3388 -2.7907
 4209TIP3   OH234117   4.590   6.291   0.064  0.2341  0.7479 -0.5949
 4209TIP3    H134118   4.593   6.230   0.137  0.8702  2.4769  0.8989
 4209TIP3    H234119   4.673   6.279   0.019  0.0185 -0.0244 -0.8121
 4210TIP3   OH234120   5.496   3.789  12.735 -0.0911 -0.1468  0.2679
 4210TIP3    H134121   5.474   3.772  12.643  0.3844  0.6020 -0.0009
 4210TIP3    H234122   5.560   3.861  12.731  1.0658 -1.0868  1.1100
 4211TIP3   OH234123   2.660   2.125   2.785 -0.2936  0.4193  0.2065
 4211TIP3    H134124   2.578   2.075   2.789 -0.9717  1.4463 -0.3314
 4211TIP3    H234125   2.644   2.192   2.719  0.2477  1.9224  1.5310
 4212TIP3   OH234126   3.090   1.122  16.095 -0.0939  0.4230  0.0953
 4212TIP3    H134127   3.105   1.102  16.003 -1.9147  4.2213 -1.2365
 4212TIP3    H234128   3.159   1.185  16.118 -1.5923  2.1268  0.1681
 4213TIP3   OH234129   5.510   2.387   1.105  0.0927  0.0327 -1.0991
 4213TIP3    H134130   5.595   2.429   1.086  0.1189 -0.4939 -2.2194
 4213TIP3    H234131   5.498   2.399   1.199  0.9656  0.9482 -1.0867
 4214TIP3   OH234132   6.399   4.386   5.233 -0.4327 -0.1725  0.3772
 4214TIP3    H134133   6.484   4.406   5.272 -0.2990 -0.2768  0.1419
 4214TIP3    H234134   6.336   4.430   5.290 -0.1955  0.2358  0.3336
 4215TIP3   OH234135   5.352   0.109  15.000  0.3249  0.4453 -0.1549
 4215TIP3    H134136   5.427   0.111  14.942  0.3483 -0.4866 -0.1742
 4215TIP3    H234137   5.326   0.017  15.003  1.5111  0.0972  2.7940
 4216TIP3   OH234138   5.371   3.269   4.498 -0.4318 -0.3203  0.0495
 4216TIP3    H134139   5.312   3.338   4.467  0.1334 -0.1623 -0.7107
 4216TIP3    H234140   5.330   3.236   4.578 -1.9601 -0.7477 -0.8758
 4217TIP3   OH234141   5.626   0.343   2.069  0.3457  0.1056 -0.6295
 4217TIP3    H134142   5.533   0.350   2.094 -0.4042 -1.5847 -2.6514
 4217TIP3    H234143   5.643   0.421   2.017  0.3444  0.8874  0.5217
 4218TIP3   OH234144   3.689   1.448   4.629 -0.5343  0.0842 -0.4262
 4218TIP3    H134145   3.732   1.363   4.630 -0.9425 -0.1186  0.1621
 4218TIP3    H234146   3.696   1.478   4.538  2.2266  0.7601 -0.0955
 4219TIP3   OH234147   1.910   5.673   4.377 -0.5874 -0.1766 -0.4996
 4219TIP3    H134148   1.934   5.607   4.442  0.2439  0.8178  0.2411
 4219TIP3    H234149   1.966   5.654   4.302 -0.4661 -0.4106 -0.3522
 4220TIP3   OH234150   3.966   3.706  13.870  0.5938 -0.1037  0.5671
 4220TIP3    H134151   3.876   3.715  13.837  0.3927  0.9063  1.3203
 4220TIP3    H234152   3.955   3.681  13.962  1.0737  0.3657  0.7571
 4221TIP3   OH234153   2.862   2.937  14.636 -0.1517 -0.3964 -0.4845
 4221TIP3    H134154   2.888   2.961  14.725 -0.7505 -2.4809  0.3038
 4221TIP3    H234155   2.852   2.842  14.639 -0.6759 -0.4543 -2.6678
 4222TIP3   OH234156   2.191   1.169  17.256 -0.4127 -0.3891 -0.4215
 4222TIP3    H134157   2.277   1.156  17.295 -1.3388 -0.7044  1.6017
 4222TIP3    H234158   2.166   1.258  17.281 -1.0027 -0.5689 -0.3594
 4223TIP3   OH234159   1.970   4.345  15.892 -0.4304  0.2200 -0.0353
 4223TIP3    H134160   2.015   4.350  15.976 -0.4549  0.8974 -0.0576
 4223TIP3    H234161   1.958   4.252  15.876  0.8984  0.0272  0.0070
 4224TIP3   OH234162   6.222   1.459   2.360 -0.0094  0.3942  0.0088
 4224TIP3    H134163   6.178   1.536   2.395 -0.3935  0.2265 -0.0981
 4224TIP3    H234164   6.248   1.484   2.272  1.6592  1.0898  0.6596
 4225TIP3   OH234165   4.768   5.020  16.980  0.3142  0.3957  0.2223
 4225TIP3    H134166   4.745   4.928  16.991  1.0921  0.3534  1.7752
 4225TIP3    H234167   4.832   5.021  16.909 -0.0401 -0.1990 -0.1070
 4226TIP3   OH234168   4.770   2.557  12.120  0.4027 -0.4110 -0.4838
 4226TIP3    H134169   4.836   2.623  12.144  1.5283 -1.0758 -1.6235
 4226TIP3    H234170   4.694   2.579  12.174  1.8123 -0.1064  1.4752
 4227TIP3   OH234171   4.394   0.155  13.766 -0.3978 -0.2072  0.1566
 4227TIP3    H134172   4.404   0.074  13.815  0.3644 -0.3102 -0.1588
 4227TIP3    H234173   4.307   0.188  13.790 -0.7203 -1.1281  0.2595
 4228TIP3   OH234174   6.749   4.601   0.523 -0.5003 -0.6859  0.1454
 4228TIP3    H134175   6.661   4.612   0.558 -0.8590 -0.3792 -0.8294
 4228TIP3    H234176   6.740   4.532   0.457  0.0452 -0.8269  0.2097
 4229TIP3   OH234177   5.096   4.065  14.516  0.3051 -0.0352 -0.5998
 4229TIP3    H134178   5.134   4.022  14.593 -0.4080  2.3738  1.2009
 4229TIP3    H234179   5.007   4.033  14.511  0.4024 -0.3168 -0.5283
 4230TIP3   OH234180   2.297   4.140   3.083 -0.4760 -0.1272 -0.5169
 4230TIP3    H134181   2.214   4.097   3.102 -0.1610  0.0335  1.4158
 4230TIP3    H234182   2.363   4.072   3.095 -0.2668 -0.0962 -1.4253
 4231TIP3   OH234183   1.139   2.123   6.422 -0.0661 -0.3861  0.3639
 4231TIP3    H134184   1.089   2.087   6.349 -0.2908  0.2588  0.1899
 4231TIP3    H234185   1.200   2.054   6.447 -0.9226 -1.1251  0.4658
 4232TIP3   OH234186   1.834   3.731   1.305  0.3276 -0.0906 -0.3157
 4232TIP3    H134187   1.861   3.813   1.346 -1.0234 -1.0881  2.9207
 4232TIP3    H234188   1.908   3.672   1.317  0.5993  0.1131 -0.9596
 4233TIP3   OH234189   4.649   1.456   6.060  0.2466  0.2238  0.0034
 4233TIP3    H134190   4.618   1.367   6.077 -1.0507  0.5672 -0.3852
 4233TIP3    H234191   4.744   1.450   6.065  0.1493 -0.9764  0.9608
 4234TIP3   OH234192   0.353   6.437   2.391 -0.4894  0.5091 -0.0452
 4234TIP3    H134193   0.449   6.438   2.394 -0.5082  0.4757  1.1025
 4234TIP3    H234194   0.329   6.527   2.370 -0.2103  0.5026 -0.4105
 4235TIP3   OH234195   3.567   3.869  15.761  0.3919 -0.0602 -0.0834
 4235TIP3    H134196   3.473   3.884  15.756  0.3655 -0.1372  0.1875
 4235TIP3    H234197   3.578   3.810  15.835  0.7232  0.5396  0.3452
 4236TIP3   OH234198   3.427   1.676  13.957  0.4268 -0.2710  0.4165
 4236TIP3    H134199   3.400   1.728  14.033  1.5747 -1.6924  1.8905
 4236TIP3    H234200   3.522   1.691  13.950  0.2377  0.3844 -1.2122
 4237TIP3   OH234201   4.299   6.766   5.611 -0.7999  0.4135 -0.1635
 4237TIP3    H134202   4.230   6.720   5.564  0.5403 -0.5025 -1.3350
 4237TIP3    H234203   4.287   6.740   5.703  0.7244 -3.6167 -0.8953
 4238TIP3   OH234204   3.781   3.316  15.231  0.6269 -0.4636 -0.0834
 4238TIP3    H134205   3.716   3.347  15.294  0.4569 -1.2547  0.1372
 4238TIP3    H234206   3.860   3.303  15.284  1.0819  0.8422 -0.4150
 4239TIP3   OH234207   5.756   3.896  11.638 -0.0387  0.2942  0.3967
 4239TIP3    H134208   5.779   3.950  11.713 -1.0172 -1.1609  1.7983
 4239TIP3    H234209   5.776   3.806  11.665  0.5078 -0.1860 -1.4488
 4240TIP3   OH234210   0.736   3.822  16.951 -0.3333  0.0142 -0.2065
 4240TIP3    H134211   0.735   3.726  16.948 -0.6819 -0.0232  0.7164
 4240TIP3    H234212   0.650   3.848  16.918 -0.8756 -0.0685  1.0763
 4241TIP3   OH234213   6.356   4.473  14.786  0.4574  0.1590 -0.1078
 4241TIP3    H134214   6.393   4.510  14.706 -0.7589 -0.1174 -0.8253
 4241TIP3    H234215   6.432   4.456  14.842  1.3375  0.2894 -1.2263
 4242TIP3   OH234216   1.849   6.751  15.691 -0.4628  0.5828  0.5164
 4242TIP3    H134217   1.884   6.795  15.769 -0.2070  0.4550  0.4722
 4242TIP3    H234218   1.850   6.658  15.713  1.3207  0.3765 -0.3145
 4243TIP3   OH234219   0.867   5.140   1.705  0.2073 -0.2513 -0.2263
 4243TIP3    H134220   0.834   5.105   1.788  0.3660  1.2719  0.5184
 4243TIP3    H234221   0.961   5.123   1.708  0.4128  0.8899  0.5060
 4244TIP3   OH234222   5.964   0.580  11.579 -0.3625 -0.4063 -0.2275
 4244TIP3    H134223   5.876   0.607  11.554 -0.5381 -0.9859 -0.2369
 4244TIP3    H234224   6.021   0.646  11.539 -0.6981 -0.8231 -1.4352
 4245TIP3   OH234225   0.423   2.793  14.270 -0.0047  0.1213  0.1094
 4245TIP3    H134226   0.510   2.759  14.249  0.1701  0.5914  0.0604
 4245TIP3    H234227   0.428   2.817  14.363 -0.3708 -0.7116  0.3593
 4246TIP3   OH234228   4.002   4.454   2.448  0.0244  0.1605  0.4380
 4246TIP3    H134229   3.936   4.393   2.479 -1.4796  1.9185  0.8935
 4246TIP3    H234230   3.969   4.484   2.363  1.9766 -1.4367 -0.9643
 4247TIP3   OH234231   2.476   4.857  16.122  0.3837  0.2085 -1.2785
 4247TIP3    H134232   2.461   4.845  16.029 -1.7122  1.2130 -1.1142
 4247TIP3    H234233   2.427   4.937  16.145  1.3471  0.3331  0.5619
 4248TIP3   OH234234   4.763   0.546   4.610  0.3062 -0.2102  0.0056
 4248TIP3    H134235   4.693   0.606   4.585  0.1802 -0.5049 -0.3569
 4248TIP3    H234236   4.841   0.582   4.568  0.5442  0.6108  1.1361
 4249TIP3   OH234237   0.325   1.726  16.334 -0.7798 -0.0441  1.3249
 4249TIP3    H134238   0.236   1.716  16.299 -1.0946  0.0138  2.0712
 4249TIP3    H234239   0.379   1.746  16.258 -1.2044 -1.2401  0.6908
 4250TIP3   OH234240   3.728   2.612   0.190 -0.2273  0.3698 -0.0723
 4250TIP3    H134241   3.744   2.598   0.283  0.3274 -0.9391 -0.3466
 4250TIP3    H234242   3.726   2.707   0.180 -2.6077  0.6085  1.6679
 4251TIP3   OH234243   4.963   2.927  16.880 -0.5677  0.1599  0.0946
 4251TIP3    H134244   5.008   3.008  16.903  1.2699  0.4648 -3.8088
 4251TIP3    H234245   4.941   2.938  16.788 -1.2167 -3.3769 -0.2846
 4252TIP3   OH234246   5.382   5.055   1.054  0.0853  0.7383  0.0786
 4252TIP3    H134247   5.403   4.995   1.126 -1.3274 -0.4297 -0.4462
 4252TIP3    H234248   5.352   5.134   1.098  1.9680  1.1182  0.7844
 4253TIP3   OH234249   6.217   0.132  16.707  0.1917 -0.1372  0.3565
 4253TIP3    H134250   6.201   0.043  16.675 -2.1899 -0.1108  1.2389
 4253TIP3    H234251   6.188   0.188  16.635  0.6060 -0.0615  0.2467
 4254TIP3   OH234252   3.405   4.794  11.527 -0.4242  0.4523 -0.2005
 4254TIP3    H134253   3.420   4.860  11.595  1.0809  0.9460 -0.9785
 4254TIP3    H234254   3.440   4.834  11.447  0.5699 -1.2892 -0.6758
 4255TIP3   OH234255   6.038   0.809   4.212  0.1096  0.1311 -1.0131
 4255TIP3    H134256   6.125   0.818   4.249 -0.3051  0.3652 -0.0746
 4255TIP3    H234257   5.979   0.833   4.283 -0.7466 -0.8550 -1.3716
 4256TIP3   OH234258   2.763   5.847   1.038  0.4175  0.5285  0.3739
 4256TIP3    H134259   2.684   5.893   1.068 -0.3703 -0.9115  0.6348
 4256TIP3    H234260   2.800   5.904   0.972 -0.0553  1.9074  1.2556
 4257TIP3   OH234261   6.318   1.865   1.596 -0.3671  0.1423 -0.2692
 4257TIP3    H134262   6.287   1.917   1.670 -0.9835 -1.2612  0.5193
 4257TIP3    H234263   6.245   1.866   1.534 -0.9883 -0.9375  0.3978
 4258TIP3   OH234264   5.108   6.499   3.694 -0.1630  0.6283 -0.2696
 4258TIP3    H134265   5.124   6.405   3.684 -3.1712 -0.1755  1.3829
 4258TIP3    H234266   5.096   6.530   3.604  3.4910  0.1195 -1.0966
 4259TIP3   OH234267   2.809   3.247  12.323  0.4603 -0.4323 -0.3764
 4259TIP3    H134268   2.773   3.230  12.236  2.7501 -0.1219 -1.4589
 4259TIP3    H234269   2.761   3.325  12.354 -0.0810 -0.2820 -1.5376
 4260TIP3   OH234270   1.702   6.543  10.027 -0.2547  0.4006  0.0609
 4260TIP3    H134271   1.770   6.479  10.003  1.8817  2.5066  0.0968
 4260TIP3    H234272   1.627   6.489  10.052  0.7551 -2.0587 -1.6934
 4261TIP3   OH234273   2.025   6.241   1.168 -0.2400  0.5426  0.6137
 4261TIP3    H134274   1.978   6.300   1.227  0.1467 -0.9061  2.4310
 4261TIP3    H234275   2.100   6.210   1.219 -0.2092 -1.2040 -0.4290
 4262TIP3   OH234276   4.901   3.518   1.802  0.3030  0.5092  0.0020
 4262TIP3    H134277   4.855   3.596   1.772  0.0940 -0.2733 -1.8306
 4262TIP3    H234278   4.972   3.506   1.739  0.2325 -0.8621  0.1476
 4263TIP3   OH234279   3.055   5.579  12.830 -0.4243 -0.1513  0.1156
 4263TIP3    H134280   3.114   5.588  12.905  0.1714  0.2495 -0.3911
 4263TIP3    H234281   3.097   5.513  12.774 -1.5658 -1.4955  0.7774
 4264TIP3   OH234282   2.752   2.473   3.595 -0.4808 -0.1207  0.5455
 4264TIP3    H134283   2.688   2.419   3.548 -2.1501  2.0427  0.1622
 4264TIP3    H234284   2.786   2.533   3.529  0.7993 -0.1956  1.1056
 4265TIP3   OH234285   6.713   4.592   2.143 -0.4042 -0.1005  0.0699
 4265TIP3    H134286   6.737   4.557   2.057 -0.7032  1.8435 -0.8785
 4265TIP3    H234287   6.769   4.669   2.153 -0.0292 -0.5598  1.8747
 4266TIP3   OH234288   1.049   1.855  14.113  0.0364 -0.7281 -0.2349
 4266TIP3    H134289   1.032   1.783  14.174 -0.0168 -0.4674  0.0574
 4266TIP3    H234290   1.141   1.844  14.087  0.4665 -0.0489  0.9369
 4267TIP3   OH234291   6.348   5.353  12.286  0.3464  0.2660  0.6871
 4267TIP3    H134292   6.377   5.442  12.262  0.8286  0.6689  2.6485
 4267TIP3    H234293   6.409   5.325  12.353 -2.3027  0.1965  3.2599
 4268TIP3   OH234294   2.459   0.852   3.526 -0.0453 -0.4365 -0.2280
 4268TIP3    H134295   2.461   0.823   3.435 -2.4482  0.4457 -0.6367
 4268TIP3    H234296   2.505   0.936   3.526 -1.4998  0.3878 -1.0017
 4269TIP3   OH234297   0.874   1.035  14.565  0.0529 -0.3674  0.3123
 4269TIP3    H134298   0.885   0.953  14.517  0.9614  0.4424 -0.9245
 4269TIP3    H234299   0.807   1.083  14.516 -1.4160 -0.8458  1.7472
 4270TIP3   OH234300   6.553   5.997  12.519  0.1828  0.1664 -0.3821
 4270TIP3    H134301   6.501   6.016  12.441 -2.1160 -0.3943  0.9299
 4270TIP3    H234302   6.490   5.961  12.582  1.8274  1.1142  1.9423
 4271TIP3   OH234303   3.647   2.502  11.956 -0.4440 -0.4306  0.4582
 4271TIP3    H134304   3.568   2.498  11.903 -0.8528 -2.0175  1.1255
 4271TIP3    H234305   3.619   2.542  12.038 -0.2493  0.2014  0.2239
 4272TIP3   OH234306   4.246   5.728  12.435  0.3780 -0.0248  0.6529
 4272TIP3    H134307   4.162   5.725  12.389 -0.1716 -1.7091  1.6489
 4272TIP3    H234308   4.308   5.760  12.370 -0.8816  0.4310 -0.3662
 4273TIP3   OH234309   5.011   0.119  15.425  0.5236  0.2108  0.3414
 4273TIP3    H134310   4.956   0.041  15.419  1.1572 -0.1500 -1.5964
 4273TIP3    H234311   4.965   0.177  15.486 -1.4226 -0.5209 -0.3623
 4274TIP3   OH234312   6.513   2.872  14.101 -0.2492 -0.3145 -0.3639
 4274TIP3    H134313   6.604   2.859  14.077 -0.7401 -0.2599 -2.4530
 4274TIP3    H234314   6.508   2.847  14.193  1.7865 -0.6275 -0.2999
 4275TIP3   OH234315   0.842   1.809  11.298 -0.3677 -0.0799  1.6168
 4275TIP3    H134316   0.907   1.789  11.365  0.0585  0.8012  1.4769
 4275TIP3    H234317   0.866   1.755  11.223  1.7688  2.0383  0.6383
 4276TIP3   OH234318   1.803   3.552  13.580 -0.1501 -0.1937  0.2105
 4276TIP3    H134319   1.763   3.490  13.641 -0.6842 -0.9958 -0.9337
 4276TIP3    H234320   1.730   3.606  13.549  0.1522  0.3428  0.4030
 4277TIP3   OH234321   6.800   5.927   1.607 -0.2838 -0.1940  0.5728
 4277TIP3    H134322   6.858   5.952   1.679 -0.7760  0.2635  0.8242
 4277TIP3    H234323   6.839   5.966   1.529  0.0415 -0.3582  0.6546
 4278TIP3   OH234324   5.837   6.582  13.032 -0.4529 -0.1310 -0.3837
 4278TIP3    H134325   5.857   6.672  13.057  0.3562  0.0557 -1.6323
 4278TIP3    H234326   5.767   6.590  12.968 -0.6480 -0.4201 -0.2086
 4279TIP3   OH234327   2.858   1.398  12.915 -0.5569 -1.0229 -0.2832
 4279TIP3    H134328   2.781   1.378  12.969 -0.5226 -0.8637 -0.1737
 4279TIP3    H234329   2.921   1.435  12.976 -0.3119 -1.3514 -0.3382
 4280TIP3   OH234330   2.938   1.151  13.401  0.4170  0.1154 -0.2055
 4280TIP3    H134331   2.875   1.194  13.459 -2.1656 -1.2753 -1.7516
 4280TIP3    H234332   2.935   1.059  13.428  0.7891 -0.1794 -1.1505
 4281TIP3   OH234333   0.154   5.283  13.658  0.1182  0.4051 -0.3075
 4281TIP3    H134334   0.088   5.330  13.709 -0.1877 -1.5215  1.1582
 4281TIP3    H234335   0.221   5.259  13.722 -0.7119 -2.8762 -0.5159
 4282TIP3   OH234336   2.033   3.583   1.365 -0.2127  0.1548 -0.0646
 4282TIP3    H134337   2.047   3.582   1.460  1.7258  1.0585 -0.2970
 4282TIP3    H234338   2.089   3.512   1.332 -0.1194  0.4779 -0.6146
 4283TIP3   OH234339   4.346   0.882  15.292  0.6306 -0.0138 -0.6385
 4283TIP3    H134340   4.418   0.819  15.291  0.7303  0.0906 -0.0210
 4283TIP3    H234341   4.319   0.887  15.383 -1.0808 -1.0665 -1.0481
 4284TIP3   OH234342   3.557   5.874  12.172 -0.1807  0.0923  0.1218
 4284TIP3    H134343   3.503   5.891  12.250 -2.1215  2.5822 -1.6077
 4284TIP3    H234344   3.645   5.899  12.198 -0.7787  0.8434  1.5291
 4285TIP3   OH234345   2.747   1.695   2.117 -0.1820  0.3961  0.3108
 4285TIP3    H134346   2.832   1.719   2.153 -0.8804 -0.4251  2.6733
 4285TIP3    H234347   2.720   1.619   2.168 -2.4775  0.8335 -0.1492
 4286TIP3   OH234348   6.292   5.380  11.976 -0.0439  0.5558  0.4308
 4286TIP3    H134349   6.243   5.462  11.965  0.3389  1.3187  3.6191
 4286TIP3    H234350   6.224   5.314  11.993 -0.3204  0.1884 -1.7485
 4287TIP3   OH234351   0.718   1.773   5.799  0.1977 -0.2266  0.7986
 4287TIP3    H134352   0.670   1.745   5.877 -0.7602 -1.1895 -0.1096
 4287TIP3    H234353   0.717   1.868   5.802 -0.0306 -0.2554  1.8305
 4288TIP3   OH234354   3.302   4.534  15.043  0.5325 -0.0192  0.3497
 4288TIP3    H134355   3.229   4.500  15.095  0.6059  1.9240  1.8464
 4288TIP3    H234356   3.373   4.472  15.058 -0.3523 -1.1313  0.0695
 4289TIP3   OH234357   2.018   5.117   2.361  0.4228 -0.1394 -0.4609
 4289TIP3    H134358   2.010   5.033   2.406  1.5240 -0.3234 -0.5681
 4289TIP3    H234359   2.110   5.120   2.333  0.1453  0.6516 -1.3371
 4290TIP3   OH234360   0.578   3.608   5.480 -0.1469  0.1638 -0.2753
 4290TIP3    H134361   0.633   3.684   5.463  0.6124  0.0122  1.3014
 4290TIP3    H234362   0.590   3.590   5.573 -2.8166  0.0502  0.1315
 4291TIP3   OH234363   4.670   2.733  15.351  0.1298 -0.1225  0.0914
 4291TIP3    H134364   4.696   2.787  15.425 -1.3611 -0.4934  0.9290
 4291TIP3    H234365   4.751   2.718  15.302  1.2919 -0.4753  2.0273
 4292TIP3   OH234366   1.205   3.222  14.622 -0.1206 -0.8916 -0.0936
 4292TIP3    H134367   1.152   3.160  14.572  0.2043 -0.6019 -0.8121
 4292TIP3    H234368   1.166   3.222  14.709 -1.5198 -0.4323 -0.6988
 4293TIP3   OH234369   0.980   1.127   0.395  0.0763 -0.4633  0.6862
 4293TIP3    H134370   0.904   1.097   0.444  0.4701 -1.2360  0.8398
 4293TIP3    H234371   1.055   1.090   0.441  0.4203 -1.8392 -0.9041
 4294TIP3   OH234372   2.600   0.696  11.271  0.5422  0.1380 -0.2633
 4294TIP3    H134373   2.688   0.696  11.310  0.4943  1.0114 -0.1466
 4294TIP3    H234374   2.586   0.605  11.246  0.8781 -0.3146  1.0922
 4295TIP3   OH234375   6.754   2.970  15.227  0.0708 -0.3940  0.7956
 4295TIP3    H134376   6.845   2.941  15.237 -0.0734 -0.4905  1.9498
 4295TIP3    H234377   6.724   2.985  15.317 -1.1372 -0.6161  0.4408
 4296TIP3   OH234378   0.136   1.525  13.252  0.2151  0.1074  0.0709
 4296TIP3    H134379   0.185   1.605  13.234  0.6786 -0.2401 -0.2655
 4296TIP3    H234380   0.067   1.525  13.186  0.2101  0.2345  0.0754
 4297TIP3   OH234381   3.528   4.659  13.205 -0.5735  0.2754  0.5248
 4297TIP3    H134382   3.486   4.738  13.240 -0.7573 -0.3790  1.8420
 4297TIP3    H234383   3.615   4.659  13.245 -0.7133 -0.3842  0.8380
 4298TIP3   OH234384   5.023   4.230   3.292 -0.4897  0.2822  0.1353
 4298TIP3    H134385   4.961   4.169   3.253  1.0352  0.1769 -2.3088
 4298TIP3    H234386   5.091   4.242   3.226 -0.2156  3.9301  0.8466
 4299TIP3   OH234387   0.244   1.639   1.622 -0.6467  0.1270 -0.6968
 4299TIP3    H134388   0.261   1.621   1.530 -0.5709  2.0568 -1.1072
 4299TIP3    H234389   0.321   1.606   1.668 -0.8024 -1.0777 -1.2835
 4300TIP3   OH234390   3.647   2.635   5.038  0.4661  0.2848  0.5677
 4300TIP3    H134391   3.697   2.625   5.118  0.3410 -0.9596  0.5122
 4300TIP3    H234392   3.713   2.649   4.970  0.6118  0.6415  0.7804
 4301TIP3   OH234393   3.243   1.035  16.974 -0.0423  0.3231  0.0130
 4301TIP3    H134394   3.219   0.953  17.016  0.2243 -0.1345 -0.7072
 4301TIP3    H234395   3.239   1.017  16.880 -0.1452  1.1824 -0.1631
 4302TIP3   OH234396   0.583   6.800  15.983 -0.4939  0.5612  0.1424
 4302TIP3    H134397   0.619   6.715  16.008 -1.0262  0.1922 -0.3256
 4302TIP3    H234398   0.490   6.783  15.966 -0.6637  1.2916  0.3189
 4303TIP3   OH234399   2.512   2.238  15.326 -0.5868 -0.1178  0.1822
 4303TIP3    H134400   2.594   2.288  15.330 -0.4360 -0.2782 -0.7298
 4303TIP3    H234401   2.508   2.206  15.237 -1.9567  0.3945  0.0350
 4304TIP3   OH234402   3.895   0.598   5.292  0.0907 -0.0829  0.2883
 4304TIP3    H134403   3.892   0.514   5.338 -0.0930 -0.2912 -0.1034
 4304TIP3    H234404   3.822   0.648   5.329 -0.5286 -0.5295 -0.3103
 4305TIP3   OH234405   1.953   3.992   2.576  0.0473  0.2580  0.4161
 4305TIP3    H134406   1.926   3.914   2.626  2.0224 -1.1468 -0.5508
 4305TIP3    H234407   2.048   3.994   2.586  0.2248  1.4316 -1.1855
 4306TIP3   OH234408   6.640   5.427   5.644 -0.4688  0.2520  0.3495
 4306TIP3    H134409   6.711   5.367   5.667  0.4750  1.2574  0.0995
 4306TIP3    H234410   6.576   5.371   5.599 -0.5307 -0.9523  1.8394
 4307TIP3   OH234411   2.789   6.178   5.414 -0.2146  0.7949 -0.2163
 4307TIP3    H134412   2.739   6.258   5.395  0.5660  1.4150  0.2495
 4307TIP3    H234413   2.851   6.205   5.482 -0.8254 -0.5467  0.9198
 4308TIP3   OH234414   3.858   3.049   5.380  0.3818  0.0752 -0.5739
 4308TIP3    H134415   3.851   3.112   5.308  0.2258 -0.9376 -1.4777
 4308TIP3    H234416   3.781   3.064   5.434  0.8947  1.3637 -0.1713
 4309TIP3   OH234417   5.495   6.432  15.990 -0.3377  0.2554 -0.1070
 4309TIP3    H134418   5.563   6.406  16.051  1.8196  2.1432 -1.5239
 4309TIP3    H234419   5.480   6.354  15.936 -0.0201 -0.4714  0.8276
 4310TIP3   OH234420   0.274   6.762  12.396 -0.0508  1.2412  0.3241
 4310TIP3    H134421   0.183   6.772  12.368  0.4711  2.1975 -1.2185
 4310TIP3    H234422   0.320   6.736  12.316  0.7235 -1.4393  1.5424
 4311TIP3   OH234423   3.088   0.880   5.935  0.6332 -0.5143  0.2331
 4311TIP3    H134424   3.147   0.832   5.877  0.8163  1.2242 -1.1114
 4311TIP3    H234425   3.072   0.963   5.890  0.1031  0.5894  2.3081
 4312TIP3   OH234426   2.852   1.350  12.382  0.4824  0.2165 -0.3452
 4312TIP3    H134427   2.939   1.382  12.405  0.5188 -0.6354  0.8125
 4312TIP3    H234428   2.812   1.421  12.332  1.8394  0.6150 -0.9159
 4313TIP3   OH234429   6.244   6.433  13.087 -0.2428  0.7064  0.0540
 4313TIP3    H134430   6.193   6.440  13.006  0.3019  2.1752 -0.2095
 4313TIP3    H234431   6.202   6.495  13.147  0.1090  0.5595  0.4528
 4314TIP3   OH234432   5.334   5.229  12.645 -0.4325  0.0074  0.3746
 4314TIP3    H134433   5.277   5.151  12.640 -0.7396  0.1222  1.6351
 4314TIP3    H234434   5.297   5.280  12.717  0.9456  0.3564  0.8623
 4315TIP3   OH234435   4.961   1.769   6.430 -0.2318 -0.0099  0.2686
 4315TIP3    H134436   4.877   1.754   6.387  0.6481 -1.4394 -1.0458
 4315TIP3    H234437   5.022   1.711   6.384  1.1682 -0.1399  2.1804
 4316TIP3   OH234438   2.765   4.623   4.845  0.0143 -0.1763  0.0219
 4316TIP3    H134439   2.745   4.575   4.925 -0.7808 -0.2134 -0.1815
 4316TIP3    H234440   2.812   4.561   4.790 -0.7285 -0.6344 -0.1144
 4317TIP3   OH234441   0.844   5.386   0.732 -0.3031 -0.2837 -0.6976
 4317TIP3    H134442   0.757   5.348   0.719 -0.6491  0.1985  0.1287
 4317TIP3    H234443   0.864   5.431   0.650 -1.2655  0.4467 -0.5375
 4318TIP3   OH234444   2.126   2.315  14.350 -0.0474 -0.0861 -0.8449
 4318TIP3    H134445   2.153   2.406  14.354 -1.9767  0.5009 -0.4859
 4318TIP3    H234446   2.173   2.280  14.273  2.7532  0.4255  0.4963
 4319TIP3   OH234447   1.798   0.898  17.280 -0.2459 -0.5546  0.4889
 4319TIP3    H134448   1.828   0.885  17.190  1.5722  0.9604  0.7926
 4319TIP3    H234449   1.859   0.847  17.333 -0.8363 -0.8218  0.9204
 4320TIP3   OH234450   0.984   1.632  16.545  0.1230  0.1818 -0.3363
 4320TIP3    H134451   0.951   1.575  16.614  1.2859  0.4048  0.4309
 4320TIP3    H234452   0.979   1.720  16.582  0.8651  0.2914 -0.4794
 4321TIP3   OH234453   5.498   1.265   2.859 -0.1006 -0.3978  0.0147
 4321TIP3    H134454   5.516   1.172   2.874 -1.9577 -0.4544  2.4556
 4321TIP3    H234455   5.525   1.309   2.939 -2.9925  0.5448  0.6109
 4322TIP3   OH234456   4.996   1.858   4.731 -0.6305  0.1989  0.4847
 4322TIP3    H134457   4.927   1.868   4.796 -0.9990 -0.8025  0.2633
 4322TIP3    H234458   5.004   1.764   4.719 -0.0403  0.3482 -0.3585
 4323TIP3   OH234459   2.294   2.383   0.125 -0.7451  0.5343 -0.3251
 4323TIP3    H134460   2.213   2.400   0.077 -1.0992 -0.1496  0.0108
 4323TIP3    H234461   2.301   2.288   0.127 -0.4547  0.5653  0.5048
 4324TIP3   OH234462   5.271   0.093  14.012 -0.3940  0.2464  0.1065
 4324TIP3    H134463   5.353   0.124  14.050  0.0621 -0.7457 -0.0503
 4324TIP3    H234464   5.256   0.151  13.937 -0.2062  0.8686  0.5384
 4325TIP3   OH234465   4.373   4.350   5.254  0.0107 -0.1151 -0.0977
 4325TIP3    H134466   4.433   4.319   5.187  1.0215 -0.4472  0.9267
 4325TIP3    H234467   4.345   4.436   5.223  0.4690 -0.2505 -0.9268
 4326TIP3   OH234468   0.357   0.458  13.337 -0.0182  0.0370  0.1967
 4326TIP3    H134469   0.397   0.418  13.260  0.9240  2.5774 -0.7254
 4326TIP3    H234470   0.268   0.479  13.310  0.3949  1.1692 -0.3199
 4327TIP3   OH234471   0.121   4.377   2.613 -0.6021  0.3474  0.3062
 4327TIP3    H134472   0.165   4.292   2.609 -1.0004  0.0380  1.8700
 4327TIP3    H234473   0.093   4.393   2.523  2.7593  0.6483 -0.8224
 4328TIP3   OH234474   2.923   1.850  15.431  0.1890 -0.5222 -0.1420
 4328TIP3    H134475   2.919   1.755  15.434 -0.2671 -0.4928  0.5402
 4328TIP3    H234476   2.885   1.873  15.346 -1.8677 -0.8829  0.6147
 4329TIP3   OH234477   0.690   6.373   3.537 -0.3089  0.0171 -0.1598
 4329TIP3    H134478   0.698   6.356   3.631 -0.7031 -3.9735 -0.6664
 4329TIP3    H234479   0.596   6.383   3.523 -0.2464  0.6578 -0.1482
 4330TIP3   OH234480   1.313   5.485   3.338  0.2307 -0.1997  0.4325
 4330TIP3    H134481   1.236   5.504   3.392 -1.5994 -2.3204 -1.1812
 4330TIP3    H234482   1.317   5.556   3.275 -0.6234 -0.1955  0.3683
 4331TIP3   OH234483   1.523   6.106   1.951  0.1504 -0.4395  0.3015
 4331TIP3    H134484   1.427   6.107   1.952  0.1098 -1.9554  0.4894
 4331TIP3    H234485   1.548   6.141   2.036 -0.2464 -0.1938  0.3213
 4332TIP3   OH234486   4.575   2.867  12.041  0.2718  0.1745 -0.2223
 4332TIP3    H134487   4.510   2.817  12.091  0.3383 -1.3411 -1.5792
 4332TIP3    H234488   4.633   2.904  12.108 -0.7416 -0.2164  0.9027
 4333TIP3   OH234489   2.628   1.538   0.912 -0.7626  0.1864  0.5229
 4333TIP3    H134490   2.570   1.504   0.980 -0.0725 -1.3454  0.3775
 4333TIP3    H234491   2.593   1.501   0.831 -0.4924  0.5287  0.2479
 4334TIP3   OH234492   1.799   0.482   1.017  0.0580  0.4462 -0.1535
 4334TIP3    H134493   1.861   0.429   1.067 -1.1511 -1.9069 -0.9982
 4334TIP3    H234494   1.759   0.539   1.083  0.2497 -0.8501  1.1501
 4335TIP3   OH234495   3.456   6.816   1.382  0.2012 -0.0543  0.6987
 4335TIP3    H134496   3.530   6.809   1.321 -1.2108  1.4308 -1.3302
 4335TIP3    H234497   3.388   6.762   1.343 -0.4470  0.2126  1.4376
 4336TIP3   OH234498   6.562   1.179   2.329  0.0782  0.2298  0.3944
 4336TIP3    H134499   6.609   1.200   2.249  3.0249  1.2284  2.2252
 4336TIP3    H234500   6.616   1.114   2.373 -0.0965  1.5012  2.6693
 4337TIP3   OH234501   4.496   5.213  14.370  0.6193 -0.1125  0.0688
 4337TIP3    H134502   4.460   5.302  14.360  0.0022 -0.0052  2.6808
 4337TIP3    H234503   4.589   5.227  14.390  0.3370 -0.0038  1.3268
 4338TIP3   OH234504   6.418   2.354  15.617  0.2857 -0.3544  0.1016
 4338TIP3    H134505   6.369   2.374  15.697  0.0071 -2.3409  0.4877
 4338TIP3    H234506   6.355   2.367  15.547  0.0495 -0.1363  0.3522
 4339TIP3   OH234507   0.289   2.607  16.067 -0.1435  0.4113 -0.3214
 4339TIP3    H134508   0.380   2.581  16.052 -0.4142  0.2548 -1.8935
 4339TIP3    H234509   0.293   2.671  16.138  1.6569  3.0547 -2.5907
 4340TIP3   OH234510   4.024   2.109  14.153  0.2852 -0.2546  0.5751
 4340TIP3    H134511   4.045   2.124  14.061 -0.1076 -0.8844  0.3788
 4340TIP3    H234512   4.106   2.124  14.199  0.5312 -0.1387  0.1029
 4341TIP3   OH234513   0.690   4.510  16.644  0.1734  0.5061 -0.4674
 4341TIP3    H134514   0.691   4.418  16.618 -0.2321  0.1772  0.6406
 4341TIP3    H234515   0.598   4.534  16.642  0.3620  1.1881 -1.7240
 4342TIP3   OH234516   5.454   3.207   0.877 -0.1696  0.4193  0.3350
 4342TIP3    H134517   5.416   3.120   0.888 -1.7424  1.0241 -0.0413
 4342TIP3    H234518   5.425   3.235   0.790  0.4775  1.2388  0.3665
 4343TIP3   OH234519   1.313   3.194  11.805 -0.1116  0.1244  0.3568
 4343TIP3    H134520   1.390   3.251  11.798 -1.0047  1.2742 -0.5722
 4343TIP3    H234521   1.284   3.182  11.715 -0.1790 -1.5139  0.5751
 4344TIP3   OH234522   3.790   0.861  15.885 -0.4230 -0.3945 -0.2275
 4344TIP3    H134523   3.721   0.847  15.820 -0.7133  1.7491 -0.4635
 4344TIP3    H234524   3.750   0.833  15.968 -0.6954 -1.4322 -0.6917
 4345TIP3   OH234525   1.755   6.050  11.119 -0.2158  0.3054  0.5291
 4345TIP3    H134526   1.676   6.001  11.100  0.8271 -1.3823  0.3426
 4345TIP3    H234527   1.733   6.141  11.100 -1.0119 -0.5150 -3.1656
 4346TIP3   OH234528   3.188   5.734  16.639  0.4333  1.1768 -0.0073
 4346TIP3    H134529   3.124   5.803  16.621  0.0184  1.0501  0.9184
 4346TIP3    H234530   3.249   5.737  16.565 -0.5183  1.4406 -0.7918
 4347TIP3   OH234531   6.309   1.357  15.207 -0.6949  0.0140 -0.0962
 4347TIP3    H134532   6.297   1.353  15.302 -1.3966 -0.5374 -0.1962
 4347TIP3    H234533   6.349   1.274  15.184  1.9400  1.1761  0.0133
 4348TIP3   OH234534   6.145   1.782  11.870 -0.1982  0.1141  0.5630
 4348TIP3    H134535   6.200   1.763  11.946  0.5681 -1.1439 -0.2740
 4348TIP3    H234536   6.177   1.866  11.838  1.1785 -0.5312  0.1700
 4349TIP3   OH234537   6.000   4.494  17.016  0.0511  0.1703  0.4571
 4349TIP3    H134538   5.972   4.546  17.091  1.1968  1.4446  0.0587
 4349TIP3    H234539   6.000   4.556  16.943  0.4235 -0.6580 -0.2666
 4350TIP3   OH234540   5.897   4.044  16.124 -0.2775  0.0162 -0.3793
 4350TIP3    H134541   5.943   4.015  16.202 -0.1603  1.7037  0.2131
 4350TIP3    H234542   5.910   3.973  16.061 -1.0169 -1.7273  1.3406
 4351TIP3   OH234543   4.446   1.101   0.965  0.2564  0.0590 -0.0957
 4351TIP3    H134544   4.396   1.149   0.899  1.2301  0.8756 -0.2674
 4351TIP3    H234545   4.503   1.043   0.915  0.0806 -0.2721  0.0780
 4352TIP3   OH234546   0.741   6.750   1.911 -0.1523  0.3178 -0.2085
 4352TIP3    H134547   0.825   6.744   1.866  1.4256 -1.6901  2.6836
 4352TIP3    H234548   0.763   6.751   2.004 -3.3415 -0.4998  0.6904
 4353TIP3   OH234549   1.313   3.897  16.662 -0.1851  0.5545  0.2638
 4353TIP3    H134550   1.252   3.910  16.590  0.1141 -1.8182 -0.5287
 4353TIP3    H234551   1.260   3.861  16.733  0.1914 -1.6895 -0.4900
 4354TIP3   OH234552   2.249   6.532  13.614 -0.2050  0.1320 -0.2608
 4354TIP3    H134553   2.342   6.546  13.596 -0.0424  1.6959  1.5046
 4354TIP3    H234554   2.205   6.609  13.576 -0.7176 -0.2763 -0.5162
 4355TIP3   OH234555   6.407   3.057  11.604  0.3987  0.0510 -0.0703
 4355TIP3    H134556   6.383   2.976  11.649 -0.4254  0.4842  0.2893
 4355TIP3    H234557   6.483   3.091  11.652  0.0509  0.0688  0.4671
 4356TIP3   OH234558   2.049   0.833  16.559  0.4423 -0.5369  0.6246
 4356TIP3    H134559   2.116   0.868  16.500  0.6978 -0.0168  1.2250
 4356TIP3    H234560   1.977   0.896  16.553 -0.0316 -1.1246 -0.0652
 4357TIP3   OH234561   5.669   3.727  16.112 -0.2420 -0.0065  0.2395
 4357TIP3    H134562   5.581   3.721  16.149 -0.7732 -0.9408 -1.0569
 4357TIP3    H234563   5.674   3.652  16.052  1.6861 -0.3591  0.7871
 4358TIP3   OH234564   2.094   4.796   6.408  0.2491 -0.0691 -0.3521
 4358TIP3    H134565   2.052   4.802   6.322 -2.0191  1.3821  0.7796
 4358TIP3    H234566   2.062   4.714   6.445  0.3460 -0.1486 -0.4438
 4359TIP3   OH234567   0.581   5.893   4.605  0.0729 -0.2999 -0.3626
 4359TIP3    H134568   0.624   5.963   4.556 -0.8905  1.9971  1.8626
 4359TIP3    H234569   0.640   5.873   4.677 -0.4123 -0.6053 -0.0405
 4360TIP3   OH234570   6.684   3.890  15.929 -0.2888 -0.5456  0.0145
 4360TIP3    H134571   6.742   3.833  15.879 -0.2913  0.5849 -1.3210
 4360TIP3    H234572   6.729   3.902  16.013  0.2477 -1.5678 -0.1061
 4361TIP3   OH234573   0.874   6.517  11.392 -0.2702 -0.0602  0.5680
 4361TIP3    H134574   0.965   6.546  11.402  0.0983 -1.1868  0.6229
 4361TIP3    H234575   0.868   6.489  11.300 -1.3673  2.6203 -0.2573
 4362TIP3   OH234576   3.647   2.166   4.611  0.8628  0.1773  0.0357
 4362TIP3    H134577   3.734   2.131   4.630  0.3554 -0.4158  1.3784
 4362TIP3    H234578   3.588   2.116   4.668 -0.6091 -0.7244 -2.1337
 4363TIP3   OH234579   4.456   0.652  16.100 -0.2216  0.1543 -0.0504
 4363TIP3    H134580   4.499   0.567  16.111  0.2685  0.1693 -1.5996
 4363TIP3    H234581   4.457   0.668  16.006  0.8902  2.4764  0.2623
 4364TIP3   OH234582   0.865   4.857  11.963  0.2434 -0.6586 -0.1469
 4364TIP3    H134583   0.910   4.869  11.880  2.6003 -1.9100  0.8287
 4364TIP3    H234584   0.930   4.884  12.029 -0.9950 -1.1164  1.3161
 4365TIP3   OH234585   2.209   3.728   4.242  0.3551 -0.3375 -0.3880
 4365TIP3    H134586   2.178   3.644   4.276 -0.9770  0.0541 -0.5852
 4365TIP3    H234587   2.304   3.717   4.234  0.1861 -1.8719 -0.5509
 4366TIP3   OH234588   3.435   1.651  14.727 -0.1901 -0.1168  0.7780
 4366TIP3    H134589   3.373   1.646  14.654 -0.2257 -0.8194  0.8518
 4366TIP3    H234590   3.496   1.719  14.701  0.3189 -0.9613 -0.3217
 4367TIP3   OH234591   6.635   6.587   5.525 -0.0719  0.0122 -0.0690
 4367TIP3    H134592   6.703   6.654   5.530 -3.0126  3.2614  0.7674
 4367TIP3    H234593   6.630   6.552   5.614  0.9637 -0.8272 -0.3224
 4368TIP3   OH234594   0.691   4.200   3.876 -0.4929 -0.0567  0.8178
 4368TIP3    H134595   0.703   4.129   3.813 -1.4820 -0.4897  1.1023
 4368TIP3    H234596   0.751   4.179   3.948  0.8588  0.5896 -0.0581
 4369TIP3   OH234597   5.210   0.862   4.854  0.3073  0.4095  0.2479
 4369TIP3    H134598   5.277   0.820   4.800  0.0594  0.3416 -0.0093
 4369TIP3    H234599   5.260   0.918   4.914  0.5853  0.5373 -0.0959
 4370TIP3   OH234600   3.847   2.715  12.813 -0.0230  0.2801  0.0559
 4370TIP3    H134601   3.801   2.798  12.800 -0.1781  0.0873 -0.6812
 4370TIP3    H234602   3.791   2.666  12.874 -0.0167  0.6404  0.3583
 4371TIP3   OH234603   6.296   5.642   0.979 -0.0620  0.4546 -0.4968
 4371TIP3    H134604   6.272   5.728   0.945  2.7221  1.0651 -1.1144
 4371TIP3    H234605   6.352   5.661   1.055 -1.1124 -0.8635  0.6600
 4372TIP3   OH234606   2.390   6.537   3.731 -0.5591 -0.0493  0.1684
 4372TIP3    H134607   2.328   6.498   3.794 -0.1490 -1.3048 -0.1625
 4372TIP3    H234608   2.340   6.606   3.687 -1.8410 -1.2186 -0.3004
 4373TIP3   OH234609   1.761   4.219  15.610  0.6511  0.1033  0.7297
 4373TIP3    H134610   1.844   4.181  15.637  0.4941  0.8859  2.4174
 4373TIP3    H234611   1.784   4.307  15.580  0.2836  0.8576  2.5760
 4374TIP3   OH234612   1.755   2.410  13.085  0.6344 -0.6955 -0.3472
 4374TIP3    H134613   1.802   2.484  13.124 -0.6382 -0.1248  0.1613
 4374TIP3    H234614   1.739   2.350  13.158 -1.0708  0.0121 -0.0845
 4375TIP3   OH234615   4.273   1.397   2.596 -0.1745 -0.0128 -0.5921
 4375TIP3    H134616   4.306   1.472   2.546  0.2023  0.0164 -0.3090
 4375TIP3    H234617   4.260   1.329   2.531 -1.2897  0.5462 -0.9725
 4376TIP3   OH234618   1.593   1.874  13.738 -0.9226 -0.2869 -0.2859
 4376TIP3    H134619   1.499   1.880  13.722 -0.9863  0.6632  0.3164
 4376TIP3    H234620   1.600   1.843  13.828 -0.6273 -1.9918 -0.8719
 4377TIP3   OH234621   0.393   1.941   4.446  0.2855 -0.0339  0.0178
 4377TIP3    H134622   0.436   1.860   4.421 -1.2303 -0.9438  0.1751
 4377TIP3    H234623   0.300   1.924   4.431 -0.4464  0.4096  3.2542
 4378TIP3   OH234624   3.419   2.444  11.813  0.1981 -0.5618 -0.0693
 4378TIP3    H134625   3.336   2.481  11.783 -1.4084 -1.4764  2.9011
 4378TIP3    H234626   3.429   2.363  11.761 -0.9987 -0.6707 -0.1636
 4379TIP3   OH234627   1.609   1.083  12.333  0.1158  0.5516  0.1666
 4379TIP3    H134628   1.670   1.141  12.377  0.2764  0.6605 -0.1911
 4379TIP3    H234629   1.604   1.005  12.388 -0.0814  0.8938  0.6339
 4380TIP3   OH234630   6.076   0.738   5.388 -0.9183  0.2788  0.2216
 4380TIP3    H134631   6.071   0.732   5.484  1.3271  1.0749  0.4448
 4380TIP3    H234632   5.985   0.742   5.360 -1.6351  0.5699  2.3649
 4381TIP3   OH234633   1.597   1.431  12.197  0.7874 -0.5847 -0.8227
 4381TIP3    H134634   1.589   1.361  12.132 -0.0415 -1.2898  0.0089
 4381TIP3    H234635   1.643   1.390  12.270  2.2484  0.3690 -1.1644
 4382TIP3   OH234636   6.074   3.200   2.791 -0.6361  0.8362 -0.1203
 4382TIP3    H134637   6.082   3.151   2.872  0.0028  0.1035 -0.6103
 4382TIP3    H234638   6.153   3.254   2.787 -0.1581  0.1183 -0.7277
 4383TIP3   OH234639   6.312   3.499   4.787 -0.3121  0.1594  0.3359
 4383TIP3    H134640   6.230   3.534   4.822 -0.6117 -0.1818 -0.0156
 4383TIP3    H234641   6.354   3.458   4.863  0.5120  2.1036  0.9838
 4384TIP3   OH234642   3.687   1.922   0.451 -0.1185 -0.3568  0.2586
 4384TIP3    H134643   3.676   1.976   0.529 -2.3091  1.3940 -1.1278
 4384TIP3    H234644   3.712   1.984   0.383 -0.6125 -1.4337 -0.9410
 4385TIP3   OH234645   6.317   2.237   2.815  0.0571 -0.5989 -0.1557
 4385TIP3    H134646   6.243   2.192   2.855  0.5006 -0.8033  0.4582
 4385TIP3    H234647   6.318   2.324   2.855 -0.6978 -0.0716 -1.2180
 4386TIP3   OH234648   1.063   1.503  12.082  0.1065  0.3284 -0.7696
 4386TIP3    H134649   1.143   1.452  12.089 -0.3687 -0.2444  1.8401
 4386TIP3    H234650   1.036   1.495  11.991  3.2404  0.9877 -1.8789
 4387TIP3   OH234651   6.315   1.078   0.028 -0.3717 -0.0813  0.2573
 4387TIP3    H134652   6.342   1.162   0.064  1.6469 -1.5728  2.5963
 4387TIP3    H234653   6.282   1.098  -0.059 -0.8451  3.1985  1.0630
 4388TIP3   OH234654   3.933   4.033  12.853  0.0030 -0.9994 -0.2453
 4388TIP3    H134655   3.992   4.088  12.801  0.4085 -0.6756  0.5429
 4388TIP3    H234656   3.854   4.025  12.800  0.2014 -0.2109 -0.6644
 4389TIP3   OH234657   5.427   1.407   4.909  0.4056 -0.4599 -0.0523
 4389TIP3    H134658   5.392   1.366   4.988  0.4668  0.0666  0.2483
 4389TIP3    H234659   5.492   1.470   4.940 -0.3408  0.5348 -0.4484
 4390TIP3   OH234660   1.169   6.160   1.645  0.7684 -0.0103 -0.0197
 4390TIP3    H134661   1.228   6.204   1.706 -0.6311 -0.1395  1.5142
 4390TIP3    H234662   1.204   6.071   1.637  0.2124 -0.4389  1.7862
 4391TIP3   OH234663   6.474   3.853  13.018 -0.8441 -0.8481  0.1109
 4391TIP3    H134664   6.532   3.833  13.091  0.1482  0.5070 -0.2654
 4391TIP3    H234665   6.510   3.803  12.945 -1.8498 -2.2214  0.5106
 4392TIP3   OH234666   2.976   6.029  16.951  0.2468 -0.3723  0.1904
 4392TIP3    H134667   2.990   6.098  17.016  1.9976 -0.9587  0.4968
 4392TIP3    H234668   3.034   6.051  16.879 -0.0415 -0.8976 -0.2081
 4393TIP3   OH234669   2.336   1.548  12.151 -0.0062 -0.0028  0.5162
 4393TIP3    H134670   2.320   1.614  12.084 -1.4478 -0.0279  0.8011
 4393TIP3    H234671   2.264   1.558  12.213  1.7921  0.7084  2.6476
 4394TIP3   OH234672   4.512   6.782  13.029  0.1553 -0.3814  0.2787
 4394TIP3    H134673   4.444   6.724  12.995  0.8094 -0.9045 -0.1571
 4394TIP3    H234674   4.518   6.759  13.122  0.1473 -0.7514  0.1900
 4395TIP3   OH234675   2.724   3.915  12.433  0.3278  0.4845 -0.0969
 4395TIP3    H134676   2.774   3.888  12.511 -0.7325  1.0893  0.8187
 4395TIP3    H234677   2.780   3.979  12.390  0.2161  1.4615  1.1402
 4396TIP3   OH234678   6.275   0.878  17.089 -0.3349  0.3040 -0.7941
 4396TIP3    H134679   6.358   0.872  17.136 -1.0634 -0.9927  0.3823
 4396TIP3    H234680   6.253   0.971  17.090 -1.4847  0.1769  3.5849
 4397TIP3   OH234681   0.539   0.599  16.441 -0.1081  0.3507 -0.0021
 4397TIP3    H134682   0.593   0.678  16.441  0.3321  0.0545 -0.1817
 4397TIP3    H234683   0.595   0.532  16.481 -0.5205  0.1564  0.2633
 4398TIP3   OH234684   0.460   3.389  11.630 -0.6766 -0.5913  0.0930
 4398TIP3    H134685   0.499   3.389  11.543 -1.1192  0.1526 -0.1174
 4398TIP3    H234686   0.431   3.299  11.644 -0.0959 -0.8409 -0.2953
 4399TIP3   OH234687   1.604   6.071   4.631 -0.0136  0.0331  0.2543
 4399TIP3    H134688   1.664   6.117   4.572 -0.0455  1.0776  0.9915
 4399TIP3    H234689   1.518   6.082   4.591  0.1337 -0.4841 -0.2186
 4400TIP3   OH234690   3.347   5.925   3.029  0.1323  0.0328  0.9277
 4400TIP3    H134691   3.335   5.935   3.123  0.5213 -0.2860  1.0114
 4400TIP3    H234692   3.430   5.879   3.020 -0.3294 -0.7247  0.4539
 4401TIP3   OH234693   1.466   6.755  11.841  0.0583 -0.4637  0.0370
 4401TIP3    H134694   1.537   6.691  11.841  1.8604  1.3145 -2.5466
 4401TIP3    H234695   1.401   6.720  11.781  1.3085  0.2718 -1.8429
 4402TIP3   OH234696   3.667   2.960  14.028 -0.6039  0.0740  0.1629
 4402TIP3    H134697   3.683   2.951  14.122 -0.2679  2.3598  0.3751
 4402TIP3    H234698   3.602   3.030  14.022 -1.2483 -0.6180 -1.2950
 4403TIP3   OH234699   5.877   6.002  15.429  0.0981 -0.2876 -0.5129
 4403TIP3    H134700   5.819   5.939  15.387 -0.9381 -0.5072  1.1472
 4403TIP3    H234701   5.824   6.082  15.437  0.6147  0.0599 -0.5271
 4404TIP3   OH234702   2.499   5.302  12.896 -0.2301  0.6972 -0.0035
 4404TIP3    H134703   2.548   5.318  12.815  0.4058 -0.8877  0.0438
 4404TIP3    H234704   2.451   5.221  12.879 -0.2702  0.4731  1.1276
 4405TIP3   OH234705   2.237   3.576   2.912 -0.5845  0.0437 -0.5019
 4405TIP3    H134706   2.159   3.558   2.860 -1.1081  2.1314 -0.5265
 4405TIP3    H234707   2.203   3.598   2.999 -0.0331  0.9163 -0.4999
 4406TIP3   OH234708   4.085   0.934  16.610 -0.6370  0.5447 -0.4675
 4406TIP3    H134709   4.043   0.933  16.696  0.7128  0.6541  0.2171
 4406TIP3    H234710   4.081   0.843  16.580 -1.3498  0.5553 -0.4149
 4407TIP3   OH234711   3.794   5.156  14.368  0.1753 -0.6306  0.3007
 4407TIP3    H134712   3.733   5.146  14.441  1.4256 -0.8579  1.3470
 4407TIP3    H234713   3.817   5.067  14.344 -0.9325 -0.5882 -1.0112
 4408TIP3   OH234714   5.211   5.482   3.380  0.1988 -0.0049 -0.0361
 4408TIP3    H134715   5.210   5.401   3.431  0.9467  0.2600  0.4290
 4408TIP3    H234716   5.178   5.548   3.441  0.3924  0.1825 -0.1328
 4409TIP3   OH234717   0.121   1.474   1.821  0.1976  0.1498  0.1124
 4409TIP3    H134718   0.122   1.546   1.757  1.5261  0.2480  0.2120
 4409TIP3    H234719   0.078   1.511   1.898  1.3572  1.0441  0.3598
 4410TIP3   OH234720   1.547   5.680  13.955 -0.0984  0.2360  0.3624
 4410TIP3    H134721   1.551   5.585  13.966 -1.4413  0.1564  0.2539
 4410TIP3    H234722   1.469   5.695  13.902 -1.1009  1.5266  2.0931
 4411TIP3   OH234723   5.527   3.338  16.843 -0.4644 -0.6957 -0.3101
 4411TIP3    H134724   5.546   3.395  16.917 -0.8502 -0.7960 -0.1366
 4411TIP3    H234725   5.601   3.351  16.784  1.5833 -3.0212  1.5053
 4412TIP3   OH234726   0.636   4.431   4.583  0.0926 -0.0926 -0.4232
 4412TIP3    H134727   0.668   4.398   4.666 -1.2578 -1.2986 -0.3492
 4412TIP3    H234728   0.544   4.405   4.580 -0.8349  2.8274 -0.8144
 4413TIP3   OH234729   2.493   3.255   4.759 -0.4694  0.0822 -0.1163
 4413TIP3    H134730   2.397   3.262   4.751 -0.3960  0.6664 -0.5447
 4413TIP3    H234731   2.506   3.203   4.838 -1.1254  1.9225  1.2889
 4414TIP3   OH234732   2.284   0.299  15.744 -0.2525  0.3360 -0.3962
 4414TIP3    H134733   2.195   0.330  15.760 -0.0779  0.2063  0.9771
 4414TIP3    H234734   2.334   0.378  15.722 -0.8803  0.2835 -2.1513
 4415TIP3   OH234735   0.362   4.882  14.357  0.4845  0.0284 -0.4870
 4415TIP3    H134736   0.387   4.974  14.350  0.9259 -0.1648 -1.5498
 4415TIP3    H234737   0.282   4.884  14.410  0.6670  0.9846 -0.2151
 4416TIP3   OH234738   6.104   5.929  13.966 -0.5504 -0.0457 -0.0165
 4416TIP3    H134739   6.018   5.899  13.994 -1.1030  0.6979 -0.8612
 4416TIP3    H234740   6.143   5.853  13.922 -0.7764 -0.3708  0.3370
 4417TIP3   OH234741   5.390   0.262  14.471  0.4500  0.1783  0.2170
 4417TIP3    H134742   5.422   0.175  14.447 -1.3437 -0.1495 -1.2040
 4417TIP3    H234743   5.456   0.322  14.439  0.8675 -0.5863 -0.3858
 4418TIP3   OH234744   6.640   0.678  10.837  0.3138  0.5931  0.0569
 4418TIP3    H134745   6.707   0.738  10.868  0.8856 -1.1701  2.4782
 4418TIP3    H234746   6.665   0.659  10.746  0.9577  2.7573 -0.2687
 4419TIP3   OH234747   5.307   6.470   2.895 -0.5330  0.2868 -0.0825
 4419TIP3    H134748   5.388   6.509   2.862  1.2608 -1.6207  1.8184
 4419TIP3    H234749   5.303   6.385   2.853 -1.3296  0.1776  0.2000
 4420TIP3   OH234750   4.062   3.667  11.311 -0.7212  0.0222  0.0493
 4420TIP3    H134751   4.034   3.688  11.222  1.3301 -4.5610 -2.0319
 4420TIP3    H234752   4.134   3.728  11.328 -1.6385  1.4767 -1.0805
 4421TIP3   OH234753   1.399   5.427   2.000  0.4217 -0.0594  0.6276
 4421TIP3    H134754   1.329   5.480   2.038  0.4669 -0.3256  1.0891
 4421TIP3    H234755   1.458   5.491   1.959 -0.1881  0.1525  0.0626
 4422TIP3   OH234756   1.708   2.052   5.408 -0.0193 -0.4683 -0.0800
 4422TIP3    H134757   1.774   1.987   5.386 -1.1199 -1.5129 -0.4374
 4422TIP3    H234758   1.673   2.022   5.492  0.5301  0.5540  0.5339
 4423TIP3   OH234759   5.718   2.613   3.534 -0.1820 -0.1921 -0.1239
 4423TIP3    H134760   5.745   2.572   3.452 -1.6150 -3.1220  0.7189
 4423TIP3    H234761   5.646   2.671   3.510  0.5174  0.2769 -1.1272
 4424TIP3   OH234762   1.038   4.987  10.917 -0.2904 -0.0370  0.2695
 4424TIP3    H134763   1.062   4.937  10.839 -3.3513 -1.6586  0.2169
 4424TIP3    H234764   1.008   5.071  10.883  0.5618  0.1482 -0.0530
 4425TIP3   OH234765   3.397   4.973  12.381  0.0222  0.6398 -0.0183
 4425TIP3    H134766   3.319   4.964  12.435 -1.4016 -1.5408 -2.1926
 4425TIP3    H234767   3.466   4.998  12.442 -1.4230 -1.6424  2.8283
 4426TIP3   OH234768   6.617   3.816  10.885  0.3706 -0.1912 -0.5738
 4426TIP3    H134769   6.588   3.886  10.827  2.1441 -0.0034 -1.3119
 4426TIP3    H234770   6.693   3.778  10.840 -0.8813 -3.0514 -0.5507
 4427TIP3   OH234771   6.437   2.592   3.459 -0.0203  0.3357  0.2947
 4427TIP3    H134772   6.402   2.519   3.510  1.9010 -0.2611  0.8559
 4427TIP3    H234773   6.385   2.667   3.487 -0.2238 -0.3214  1.8127
 4428TIP3   OH234774   3.441   5.941  15.186  0.6096 -0.0949 -0.1877
 4428TIP3    H134775   3.479   5.858  15.158 -1.8739 -1.1955 -0.5757
 4428TIP3    H234776   3.416   5.925  15.277 -0.5893 -0.0847 -0.5000
 4429TIP3   OH234777   4.078   3.994  16.677  0.1667 -0.0909 -0.4117
 4429TIP3    H134778   4.116   4.056  16.615  0.1869  3.0223  2.4030
 4429TIP3    H234779   4.153   3.954  16.721  0.1415 -0.5873 -0.8080
 4430TIP3   OH234780   6.167   1.145  15.414  0.0737  0.6672 -0.0068
 4430TIP3    H134781   6.220   1.224  15.410  0.1558  0.6901  1.1812
 4430TIP3    H234782   6.119   1.152  15.497  2.3928 -1.9000  1.7482
 4431TIP3   OH234783   1.882   5.940   3.390 -0.0918 -0.4718  0.0972
 4431TIP3    H134784   1.877   6.003   3.318 -0.5555 -2.2425 -1.4958
 4431TIP3    H234785   1.934   5.868   3.355  0.3296 -1.0649  1.8305
 4432TIP3   OH234786   5.176   5.338   3.945  0.0999 -0.1774  0.2285
 4432TIP3    H134787   5.094   5.303   3.980  0.6965 -0.2434  1.6244
 4432TIP3    H234788   5.158   5.430   3.929 -0.1581 -0.1211  0.8341
 4433TIP3   OH234789   2.094   6.340  12.486 -0.3644 -0.0710 -0.6706
 4433TIP3    H134790   2.066   6.248  12.487 -1.4366  0.2562  0.2519
 4433TIP3    H234791   2.189   6.335  12.474 -0.2809 -1.3350  0.2625
 4434TIP3   OH234792   0.221   6.205  16.429 -0.2191 -0.5319  0.3087
 4434TIP3    H134793   0.315   6.213  16.444 -0.2546 -0.4081  0.4595
 4434TIP3    H234794   0.189   6.295  16.424 -0.2827 -0.5717 -0.0380
 4435TIP3   OH234795   6.570   1.441  15.608  0.3067 -0.4958 -0.4050
 4435TIP3    H134796   6.646   1.427  15.552  1.3080 -1.3688  1.1025
 4435TIP3    H234797   6.605   1.435  15.697 -1.3629  0.0791  0.3223
 4436TIP3   OH234798   3.310   2.675  13.440  0.7478  0.0034  0.3540
 4436TIP3    H134799   3.308   2.599  13.382  0.5563  1.0276 -1.0561
 4436TIP3    H234800   3.290   2.640  13.527 -0.1011 -1.4303 -0.3784
 4437TIP3   OH234801   5.406   1.052   0.350 -0.5540 -0.0484  0.5999
 4437TIP3    H134802   5.330   0.994   0.343 -0.7814  0.3220 -0.0769
 4437TIP3    H234803   5.411   1.095   0.265  0.8543 -0.5950  0.3826
 4438TIP3   OH234804   0.447   0.052  14.754  0.2116 -0.9351  0.1485
 4438TIP3    H134805   0.420   0.030  14.665  0.5364  2.4393 -0.9126
 4438TIP3    H234806   0.526   0.001  14.768  2.7124  1.4986 -3.3019
 4439TIP3   OH234807   1.620   4.258   3.704 -0.1005  0.5674  0.1141
 4439TIP3    H134808   1.715   4.254   3.715 -0.0474  1.7438  0.2119
 4439TIP3    H234809   1.588   4.175   3.739  0.6758  1.1584  2.4065
 4440TIP3   OH234810   3.781   2.583  16.164  0.2355 -0.1724 -0.3267
 4440TIP3    H134811   3.819   2.660  16.205  1.0408 -0.3547 -0.7207
 4440TIP3    H234812   3.854   2.539  16.122 -0.4418 -0.4294 -1.2700
 4441TIP3   OH234813   2.515   4.432  14.026  0.0736 -0.4676 -0.3447
 4441TIP3    H134814   2.596   4.381  14.022  0.2102 -0.5088  2.0354
 4441TIP3    H234815   2.540   4.520  13.999  1.1522 -0.2550  1.2453
 4442TIP3   OH234816   3.689   3.025   0.627 -0.1468  0.6642  0.2226
 4442TIP3    H134817   3.593   3.028   0.619 -0.2769  1.2672  1.7930
 4442TIP3    H234818   3.712   3.102   0.678  1.2634  0.8370 -0.6080
 4443TIP3   OH234819   6.778   5.192   0.078 -0.4687 -0.1916 -0.3892
 4443TIP3    H134820   6.727   5.236   0.147  1.4978 -0.5726  1.3835
 4443TIP3    H234821   6.869   5.197   0.108  0.2813 -1.7976 -2.2029
 4444TIP3   OH234822   5.205   2.338   4.956  0.1532 -0.5609  0.0310
 4444TIP3    H134823   5.154   2.280   4.900  0.7384 -0.9962 -0.0685
 4444TIP3    H234824   5.278   2.284   4.986  1.7472  0.5971 -1.5384
 4445TIP3   OH234825   3.042   6.703  16.445  0.1816 -0.1715 -0.1584
 4445TIP3    H134826   3.125   6.685  16.401 -0.4442 -2.3393 -0.5387
 4445TIP3    H234827   2.975   6.663  16.390 -1.3836  2.9286 -0.7394
 4446TIP3   OH234828   1.438   4.949  13.104  0.1455  0.5008  0.2415
 4446TIP3    H134829   1.522   4.911  13.077  0.5813  2.0150 -0.7053
 4446TIP3    H234830   1.403   4.988  13.024 -1.3304  0.1559  0.7004
 4447TIP3   OH234831   6.169   4.190   1.348  0.1005  0.1472  0.0002
 4447TIP3    H134832   6.172   4.111   1.294 -0.2375  0.1169  0.0259
 4447TIP3    H234833   6.076   4.205   1.364  0.0881  1.1978 -0.9542
 4448TIP3   OH234834   5.629   2.134  12.303 -0.5039 -0.5046 -0.2788
 4448TIP3    H134835   5.574   2.081  12.360 -0.1370  0.1675  0.7355
 4448TIP3    H234836   5.621   2.223  12.338  0.4012 -0.2251 -0.7496
 4449TIP3   OH234837   3.613   3.288   1.053 -0.2299  0.5460  0.1641
 4449TIP3    H134838   3.535   3.342   1.037  0.4523  1.4716 -0.0835
 4449TIP3    H234839   3.579   3.212   1.101 -1.4429  0.4367 -0.8068
 4450TIP3   OH234840   3.312   6.056   1.725  0.1870 -0.4158 -0.0525
 4450TIP3    H134841   3.221   6.080   1.745  0.8251  0.1267  2.5242
 4450TIP3    H234842   3.306   5.963   1.701 -0.8155 -1.0963  2.5257
 4451TIP3   OH234843   0.869   1.308   0.722  0.7782  0.2403 -0.1613
 4451TIP3    H134844   0.827   1.394   0.721 -2.4531 -1.1899 -0.7916
 4451TIP3    H234845   0.864   1.280   0.813  1.8962  0.6825  0.0576
 4452TIP3   OH234846   2.283   1.813  14.910  0.5799 -0.1605  0.8340
 4452TIP3    H134847   2.193   1.844  14.919  0.7573  1.4327 -1.7156
 4452TIP3    H234848   2.278   1.718  14.921 -1.3371 -0.0419  1.2025
 4453TIP3   OH234849   3.055   3.508   3.248 -0.4101 -0.0883 -0.2400
 4453TIP3    H134850   3.080   3.527   3.338  0.9421 -0.6039 -0.4787
 4453TIP3    H234851   3.048   3.593   3.206 -0.7297  0.1403  0.2798
 4454TIP3   OH234852   6.549   0.145   1.463  0.3371  0.7527 -0.2265
 4454TIP3    H134853   6.604   0.222   1.454  1.8906 -0.5156 -2.2801
 4454TIP3    H234854   6.531   0.118   1.374 -1.2628 -0.5463  0.4432
 4455TIP3   OH234855   1.495   4.420   2.232 -0.0564 -0.0453 -0.0749
 4455TIP3    H134856   1.586   4.443   2.215  0.0990 -0.3827  0.3116
 4455TIP3    H234857   1.488   4.327   2.210 -0.1765 -0.1545  0.4070
 4456TIP3   OH234858   1.158   5.359  13.255 -0.4544 -0.1911 -0.0949
 4456TIP3    H134859   1.168   5.390  13.344  1.0173 -0.3970 -0.1539
 4456TIP3    H234860   1.064   5.363  13.237 -0.8162 -0.5642  1.6029
 4457TIP3   OH234861   4.009   4.767   4.638  0.2452 -0.1500  0.0009
 4457TIP3    H134862   4.085   4.738   4.687  1.2119  1.2488 -0.6074
 4457TIP3    H234863   3.993   4.856   4.668  0.6132  0.5987 -1.8560
 4458TIP3   OH234864   4.173   4.877  13.923 -0.3589 -0.3356  0.4016
 4458TIP3    H134865   4.157   4.882  14.017  0.2101  0.1767  0.4820
 4458TIP3    H234866   4.269   4.876  13.915 -0.3385  1.5172 -0.2195
 4459TIP3   OH234867   5.524   1.350  12.395 -0.1835  0.1287 -0.3139
 4459TIP3    H134868   5.572   1.307  12.467  1.0460  3.6956  1.2420
 4459TIP3    H234869   5.494   1.278  12.340  0.4739 -2.7276  2.7353
 4460TIP3   OH234870   2.567   1.435   4.161  0.1115  0.3698 -0.7042
 4460TIP3    H134871   2.545   1.428   4.068  0.3188 -1.6609 -0.6468
 4460TIP3    H234872   2.659   1.407   4.166 -0.2519 -0.7175  0.2303
 4461TIP3   OH234873   0.410   6.021   1.051  0.1781 -0.2052  0.0792
 4461TIP3    H134874   0.495   5.978   1.060  0.9699  1.3051  0.0923
 4461TIP3    H234875   0.376   5.991   0.967 -0.3293 -2.5342  1.0175
 4462TIP3   OH234876   3.649   5.796  12.558  0.4060 -0.0402  0.2336
 4462TIP3    H134877   3.679   5.886  12.549  0.6423  0.0493  1.6692
 4462TIP3    H234878   3.591   5.797  12.635 -0.2536 -0.9529 -0.2257
 4463TIP3   OH234879   4.121   5.036  12.764  0.2396  0.6218  0.6549
 4463TIP3    H134880   4.203   5.079  12.741  0.2769  0.3265  0.2095
 4463TIP3    H234881   4.140   4.991  12.846  1.1400 -1.0345 -0.3795
 4464TIP3   OH234882   3.151   0.785   4.091  0.6392  0.0479  0.1960
 4464TIP3    H134883   3.126   0.693   4.086 -1.9361  0.4466  2.7403
 4464TIP3    H234884   3.104   0.827   4.019 -0.5878 -0.2565  0.7913
 4465TIP3   OH234885   0.112   3.972  16.788  0.0154  0.4846 -0.3683
 4465TIP3    H134886   0.122   3.948  16.880  0.0921 -0.1003 -0.5262
 4465TIP3    H234887   0.169   3.911  16.741 -1.1101 -0.1632 -0.9213
 4466TIP3   OH234888   2.985   3.534   0.655  0.1826 -0.0682 -0.0693
 4466TIP3    H134889   2.970   3.480   0.578 -1.6525 -0.6149  0.5892
 4466TIP3    H234890   2.962   3.622   0.627 -1.5671 -0.4282  0.0733
 4467TIP3   OH234891   4.861   2.457   2.449  0.6282 -0.6728 -0.3991
 4467TIP3    H134892   4.842   2.367   2.478  2.9956 -0.9300  0.5775
 4467TIP3    H234893   4.820   2.512   2.516  1.3438 -1.1177  0.4229
 4468TIP3   OH234894   5.180   5.422  16.940 -0.7942  0.1201  0.1685
 4468TIP3    H134895   5.100   5.396  16.895 -0.6531 -0.6409  0.3525
 4468TIP3    H234896   5.245   5.357  16.914  0.0545  1.3239 -0.8178
 4469TIP3   OH234897   5.133   4.330   5.228  0.5458  0.3880  0.7094
 4469TIP3    H134898   5.054   4.292   5.189 -0.6229  1.9397  1.4567
 4469TIP3    H234899   5.196   4.257   5.230 -0.1439 -0.3810 -1.7472
 4470TIP3   OH234900   4.542   0.682   3.201  0.3077  0.1788 -0.0275
 4470TIP3    H134901   4.567   0.612   3.141  2.0232 -0.9351  1.8474
 4470TIP3    H234902   4.451   0.703   3.178 -0.3769 -2.8641 -0.4540
 4471TIP3   OH234903   2.113   2.578   1.830  0.3931 -0.1392 -0.4850
 4471TIP3    H134904   2.040   2.596   1.771 -0.4613 -0.8873  0.3135
 4471TIP3    H234905   2.087   2.499   1.877  1.4862 -0.1090  0.2108
 4472TIP3   OH234906   0.342   3.625   4.973  0.0601 -0.9500 -0.0116
 4472TIP3    H134907   0.274   3.557   4.964 -1.9075  0.7877  0.7560
 4472TIP3    H234908   0.307   3.700   4.925  1.3956  0.0455  0.5219
 4473TIP3   OH234909   2.947   4.976  14.009 -0.1315  0.2832  0.8520
 4473TIP3    H134910   3.029   5.023  13.997  1.0056 -1.4515  1.4701
 4473TIP3    H234911   2.943   4.956  14.102 -0.3853 -1.1215  0.5687
 4474TIP3   OH234912   0.645   3.289  12.455 -0.3884  0.1920  0.1113
 4474TIP3    H134913   0.637   3.381  12.481 -1.0903 -0.1144  1.0110
 4474TIP3    H234914   0.710   3.290  12.384  0.2061  1.2752  0.6519
 4475TIP3   OH234915   5.903   3.312  13.636 -0.3796  0.0855  0.0149
 4475TIP3    H134916   5.989   3.272  13.624 -0.9474 -0.7113 -1.7459
 4475TIP3    H234917   5.850   3.244  13.677 -0.2362  0.5120  0.9292
 4476TIP3   OH234918   5.276   6.739   2.019  0.1575 -0.5873 -0.3381
 4476TIP3    H134919   5.319   6.658   1.990  0.7092 -0.6736  0.6749
 4476TIP3    H234920   5.344   6.787   2.066 -0.8681 -0.8256  1.4850
 4477TIP3   OH234921   5.390   3.299  15.425  0.2650  0.7891  0.6770
 4477TIP3    H134922   5.420   3.254  15.504 -1.3749 -0.6528  0.5298
 4477TIP3    H234923   5.296   3.284  15.422  0.3277  0.3819 -1.7914
 4478TIP3   OH234924   2.075   3.063   3.715 -0.4068  0.2603 -0.0229
 4478TIP3    H134925   2.109   3.071   3.804  0.1259  1.0310 -0.2833
 4478TIP3    H234926   2.083   2.970   3.695 -3.1482 -0.4600  1.7297
 4479TIP3   OH234927   3.383   6.164  16.211 -0.0557  0.1430 -0.2264
 4479TIP3    H134928   3.458   6.222  16.220  0.2801 -0.2869 -0.2264
 4479TIP3    H234929   3.411   6.099  16.146  0.9202 -2.1403  2.2794
 4480TIP3   OH234930   2.786   3.122  17.100  0.5171 -0.2051 -0.5987
 4480TIP3    H134931   2.867   3.126  17.150  0.4609  0.6956 -0.5677
 4480TIP3    H234932   2.806   3.064  17.026  2.2257  2.4828 -2.4215
 4481TIP3   OH234933   2.784   6.572   6.499  0.3741  0.3911  0.3973
 4481TIP3    H134934   2.801   6.551   6.591  0.7046  2.7498  0.9177
 4481TIP3    H234935   2.711   6.514   6.476  1.1997 -1.2602  1.6883
 4482TIP3   OH234936   0.366   5.973   4.315 -0.0047  0.3407  0.6428
 4482TIP3    H134937   0.271   5.968   4.325 -0.3110 -0.0619 -1.8316
 4482TIP3    H234938   0.400   5.898   4.364 -1.2396 -1.2649 -0.8217
 4483TIP3   OH234939   1.546   2.355   1.972 -0.1151 -0.1592  0.2075
 4483TIP3    H134940   1.598   2.277   1.987 -2.1771 -1.2506  2.3738
 4483TIP3    H234941   1.586   2.397   1.895  0.9770 -3.3750 -1.1328
 4484TIP3   OH234942   4.365   6.563   2.841  0.6005  0.5810 -0.2740
 4484TIP3    H134943   4.338   6.475   2.817 -0.8522  0.5446  1.2742
 4484TIP3    H234944   4.336   6.618   2.769 -0.1263  0.0089 -0.4282
 4485TIP3   OH234945   1.682   3.264   4.182  0.5920  0.1115 -0.0724
 4485TIP3    H134946   1.636   3.348   4.179  1.5416  0.7239  1.3187
 4485TIP3    H234947   1.615   3.199   4.201 -0.2293  0.4724 -1.6171
 4486TIP3   OH234948   4.781   6.693   4.332 -0.3916  0.7305  0.8253
 4486TIP3    H134949   4.788   6.749   4.410  1.7971  0.7204  0.7090
 4486TIP3    H234950   4.797   6.605   4.365 -0.1592  0.6399  0.4731
 4487TIP3   OH234951   5.992   3.446  10.491 -0.0717 -0.1275 -0.1012
 4487TIP3    H134952   5.989   3.356  10.459 -0.2200 -0.1722  0.0407
 4487TIP3    H234953   6.085   3.470  10.487 -0.1899  0.2130 -1.5457
 4488TIP3   OH234954   3.842   0.312  17.094 -0.1902  0.6917 -0.3613
 4488TIP3    H134955   3.875   0.272  17.174  1.8084  0.1672 -1.3988
 4488TIP3    H234956   3.827   0.239  17.035 -2.8793  0.9503 -0.1239
 4489TIP3   OH234957   2.088   6.687   2.208  0.1977 -0.7678  0.1758
 4489TIP3    H134958   2.131   6.604   2.231  0.0576 -0.9979 -0.3802
 4489TIP3    H234959   2.030   6.704   2.283  0.9056 -0.6885  0.7158
 4490TIP3   OH234960   2.091   5.156   6.111  0.0212 -0.4859 -0.0277
 4490TIP3    H134961   2.113   5.214   6.039 -2.6530  0.0278 -0.5436
 4490TIP3    H234962   2.053   5.214   6.178  2.7159 -0.8943  2.0361
 4491TIP3   OH234963   2.397   4.430   2.948  0.2929 -0.1833  0.3476
 4491TIP3    H134964   2.439   4.428   3.034 -0.7571 -0.7574  0.8662
 4491TIP3    H234965   2.464   4.465   2.889  0.8345  0.8013  1.4999
 4492TIP3   OH234966   6.384   4.294   5.587 -0.1777 -0.2325 -0.0700
 4492TIP3    H134967   6.296   4.311   5.620  0.1100 -2.0195  1.7566
 4492TIP3    H234968   6.438   4.287   5.665  1.8145  1.5914 -1.1564
 4493TIP3   OH234969   0.533   4.934   0.148  0.2970  0.0821  0.3293
 4493TIP3    H134970   0.545   4.918   0.242 -0.1545 -1.9254  0.0940
 4493TIP3    H234971   0.455   4.882   0.125 -1.2074  2.6002 -0.6647
 4494TIP3   OH234972   1.407   6.285   1.071 -0.3497  0.0050 -0.1299
 4494TIP3    H134973   1.409   6.270   0.977  0.2732  3.9405 -0.9400
 4494TIP3    H234974   1.481   6.235   1.105 -1.0023 -2.0441 -1.5531
 4495TIP3   OH234975   5.437   0.010   2.255  0.4586  0.1564  0.2218
 4495TIP3    H134976   5.504  -0.051   2.288 -0.2526 -0.1792  1.0934
 4495TIP3    H234977   5.411   0.060   2.332 -0.4144  0.1682 -0.0725
 4496TIP3   OH234978   1.936   5.373   0.203 -0.2511 -0.6356 -0.7921
 4496TIP3    H134979   2.021   5.417   0.197 -0.4393 -0.1055  0.2412
 4496TIP3    H234980   1.934   5.315   0.127  0.4278  0.4087 -1.6453
 4497TIP3   OH234981   3.056   2.874  15.506 -0.1480 -0.0415 -0.0096
 4497TIP3    H134982   3.096   2.868  15.593  0.4847  0.7348 -0.2375
 4497TIP3    H234983   3.056   2.784  15.473  1.4105 -0.0581 -0.0028
 4498TIP3   OH234984   3.880   1.605  11.894  0.0580  0.7878  0.7465
 4498TIP3    H134985   3.875   1.579  11.802 -0.1184  0.2662  0.8951
 4498TIP3    H234986   3.799   1.651  11.911  0.2474  1.1957  0.5507
 4499TIP3   OH234987   3.689   4.347  14.963  0.4282  0.0293  0.3040
 4499TIP3    H134988   3.752   4.308  15.023 -0.0343 -0.9555  0.1635
 4499TIP3    H234989   3.636   4.404  15.018  0.9815  0.3166  0.5479
 4500TIP3   OH234990   3.366   5.247   3.616 -0.8045  0.4470 -0.6783
 4500TIP3    H134991   3.427   5.262   3.544  0.2738 -0.6631 -0.0420
 4500TIP3    H234992   3.404   5.294   3.690  0.9814 -2.5303  0.5155
 4501TIP3   OH234993   5.532   2.512  12.192 -0.0823 -0.3183  0.0015
 4501TIP3    H134994   5.442   2.514  12.224 -0.1670  2.5233 -0.1733
 4501TIP3    H234995   5.525   2.525  12.098  0.5062 -0.2714 -0.0415
 4502TIP3   OH234996   0.968   2.029   5.752 -0.1729  0.0311  0.5746
 4502TIP3    H134997   0.965   2.047   5.846  0.0031  1.4643  0.3301
 4502TIP3    H234998   0.878   2.004   5.729 -0.4359  0.6147  0.9530
 4503TIP3   OH234999   1.036   1.634   5.934  0.2581  0.6583 -0.6588
 4503TIP3    H135000   1.018   1.567   6.000  2.1693  0.9301  0.2067
 4503TIP3    H235001   0.990   1.604   5.856 -1.3417 -0.1294  0.5235
 4504TIP3   OH235002   2.125   0.575   4.866  0.1446 -0.3068  0.0929
 4504TIP3    H135003   2.175   0.554   4.946  0.6487  1.9022  0.4300
 4504TIP3    H235004   2.122   0.493   4.818  4.7651 -0.5576 -0.2826
 4505TIP3   OH235005   5.863   6.316  13.117 -0.3643  0.4149  0.1377
 4505TIP3    H135006   5.772   6.330  13.139 -1.1383 -0.2106 -2.2867
 4505TIP3    H235007   5.890   6.395  13.071  0.2430  0.5071  0.6430
 4506TIP3   OH235008   4.939   4.155   4.453  0.0819  0.8902 -0.0632
 4506TIP3    H135009   4.954   4.069   4.414  2.9623  1.4807 -0.4905
 4506TIP3    H235010   4.911   4.210   4.380  0.9231  0.9163 -0.3782
 4507TIP3   OH235011   4.710   4.007  16.629 -0.5740  0.0164  0.2624
 4507TIP3    H135012   4.788   3.982  16.679  0.6672 -1.1739 -2.0889
 4507TIP3    H235013   4.744   4.046  16.549 -2.4415  0.5420 -0.3255
 4508TIP3   OH235014   0.204   1.210   1.745 -0.0683 -0.8473 -0.2138
 4508TIP3    H135015   0.281   1.206   1.688 -0.5318  0.0710 -0.9271
 4508TIP3    H235016   0.187   1.303   1.757 -0.5725 -1.0345  0.6374
 4509TIP3   OH235017   3.323   4.397   1.137 -0.0592  0.4814 -0.4132
 4509TIP3    H135018   3.294   4.364   1.052  1.6017 -0.4629 -0.6578
 4509TIP3    H235019   3.402   4.448   1.117 -0.2044  1.0810  0.4632
 4510TIP3   OH235020   2.273   0.712   0.230 -0.1707 -0.5177 -0.6203
 4510TIP3    H135021   2.262   0.774   0.158  0.7572  1.8924  1.2057
 4510TIP3    H235022   2.292   0.766   0.306 -0.4565 -3.0078  1.3431
 4511TIP3   OH235023   4.821   3.639  12.024 -0.2934  0.0573  0.4095
 4511TIP3    H135024   4.733   3.654  11.990 -0.5581 -1.8732  0.1252
 4511TIP3    H235025   4.808   3.585  12.102  0.6245 -0.1249  0.4472
 4512TIP3   OH235026   4.099   5.590  14.325 -1.0507 -0.0434  0.3021
 4512TIP3    H135027   4.053   5.627  14.249 -2.0649  1.2129  1.4795
 4512TIP3    H235028   4.031   5.582  14.392  0.0158 -0.2370  1.3800
 4513TIP3   OH235029   4.964   3.583   1.397 -0.1648 -0.2112 -0.0849
 4513TIP3    H135030   5.032   3.640   1.360  0.9002 -1.8912 -0.8244
 4513TIP3    H235031   4.966   3.602   1.491  1.1744 -0.0338 -0.1307
 4514TIP3   OH235032   4.961   5.030  16.405 -0.1109 -0.0641  0.4618
 4514TIP3    H135033   5.049   5.035  16.367  0.4589 -0.4166  1.7059
 4514TIP3    H235034   4.903   5.023  16.329  1.1203 -2.8718 -0.3542
 4515TIP3   OH235035   1.370   1.579  14.455 -0.3488  1.0479 -0.6115
 4515TIP3    H135036   1.384   1.654  14.512  0.0386  1.3672 -1.1309
 4515TIP3    H235037   1.427   1.511  14.491 -0.8219  0.9416 -0.0428
 4516TIP3   OH235038   2.239   3.444  12.908 -0.5620  0.0826 -0.1802
 4516TIP3    H135039   2.198   3.417  12.990  0.0047  0.2685  0.1703
 4516TIP3    H235040   2.295   3.518  12.933 -1.2847  0.9114 -0.9361
 4517TIP3   OH235041   3.227   5.003  15.779  0.4629  0.3406  0.0675
 4517TIP3    H135042   3.208   5.092  15.810  0.2484  0.4160 -0.2765
 4517TIP3    H235043   3.152   4.980  15.725 -1.2175 -1.3808  2.8802
 4518TIP3   OH235044   3.033   0.083  15.875 -0.5195 -0.1978 -0.0130
 4518TIP3    H135045   3.058   0.173  15.897  1.6693 -0.4349 -1.2563
 4518TIP3    H235046   3.109   0.047  15.830 -2.2457 -1.8912 -1.7660
 4519TIP3   OH235047   0.121   5.641  14.997  0.4830  0.6995 -0.5840
 4519TIP3    H135048   0.136   5.734  14.980  1.4591  0.2811 -2.2608
 4519TIP3    H235049   0.029   5.627  14.972 -1.1234  1.9678  3.6503
 4520TIP3   OH235050   4.460   0.384  11.164 -0.4518  0.1894  0.2949
 4520TIP3    H135051   4.514   0.337  11.228  0.7971  0.5832 -0.4425
 4520TIP3    H235052   4.478   0.476  11.180 -1.8302  0.3925  0.8108
 4521TIP3   OH235053   4.706   3.577  16.445  0.0623  0.0476 -0.9121
 4521TIP3    H135054   4.662   3.625  16.375  1.7740  0.4303 -1.7898
 4521TIP3    H235055   4.785   3.541  16.403  1.4401  0.7631  0.9377
 4522TIP3   OH235056   6.168   5.492   0.515  0.7032 -0.1870  0.3069
 4522TIP3    H135057   6.252   5.524   0.548  0.6867  0.2460 -0.0628
 4522TIP3    H235058   6.103   5.527   0.576  0.5246  1.9158 -1.0173
 4523TIP3   OH235059   6.078   2.424   4.468 -0.0051 -0.2750 -0.5315
 4523TIP3    H135060   6.071   2.328   4.469  0.9339 -0.3601 -1.4072
 4523TIP3    H235061   5.987   2.454   4.459 -0.7083 -0.9651  2.8026
 4524TIP3   OH235062   0.033   5.420  10.665  0.1410 -0.7972  0.1333
 4524TIP3    H135063   0.035   5.512  10.692  1.6245 -0.0330 -2.2964
 4524TIP3    H235064   0.044   5.371  10.746 -0.3466  1.1486  1.4495
 4525TIP3   OH235065   2.625   1.921   2.159 -0.1796 -0.4900  0.1122
 4525TIP3    H135066   2.668   1.839   2.137 -0.9143 -0.7953 -0.2227
 4525TIP3    H235067   2.684   1.989   2.125  0.7855 -0.8409  1.0432
 4526TIP3   OH235068   0.905   1.004  10.877 -0.4204 -0.0259 -0.1111
 4526TIP3    H135069   0.917   0.975  10.786  0.0626  1.6228 -0.6105
 4526TIP3    H235070   0.833   1.068  10.872  0.0338  0.5473  0.5450
 4527TIP3   OH235071   1.062   1.883   4.316 -0.2858  0.1276  0.1065
 4527TIP3    H135072   1.098   1.852   4.400 -0.0327  1.5072  0.5226
 4527TIP3    H235073   1.103   1.827   4.251 -0.8196 -1.2760  0.9183
 4528TIP3   OH235074   1.264   0.016  14.057  0.0660  0.5143  0.3216
 4528TIP3    H135075   1.213   0.096  14.069 -1.5729 -0.5119  0.5737
 4528TIP3    H235076   1.341   0.028  14.113 -0.0704  1.9579  0.2454
 4529TIP3   OH235077   0.909   5.538  14.802 -0.2621  0.1594  0.2592
 4529TIP3    H135078   0.847   5.603  14.768  0.5823  0.2644 -1.1645
 4529TIP3    H235079   0.928   5.567  14.891 -0.2174  1.6358 -0.2002
 4530TIP3   OH235080   1.842   4.575   1.126 -0.1443 -0.3543  0.4560
 4530TIP3    H135081   1.847   4.667   1.100  0.3216 -0.5250 -0.0783
 4530TIP3    H235082   1.917   4.534   1.083 -1.4434 -1.3754 -0.9286
 4531TIP3   OH235083   2.122   4.141   4.715 -0.7325 -0.2078 -0.7230
 4531TIP3    H135084   2.052   4.204   4.734 -0.2948 -0.4643  2.0977
 4531TIP3    H235085   2.201   4.180   4.751 -0.4341 -2.2653  1.0508
 4532TIP3   OH235086   5.440   2.727   2.485  0.7273 -0.7167 -0.2166
 4532TIP3    H135087   5.399   2.650   2.526  2.0971 -0.8992  0.8723
 4532TIP3    H235088   5.366   2.782   2.460 -0.2589 -1.9718 -0.1894
 4533TIP3   OH235089   1.999   1.523   5.436  0.2315 -0.0423 -0.4728
 4533TIP3    H135090   1.976   1.434   5.465  0.3904 -0.4474 -1.5538
 4533TIP3    H235091   1.933   1.545   5.371 -0.7196  1.2624  0.8765
 4534TIP3   OH235092   1.558   2.092  15.700 -0.2010 -0.3770  0.0027
 4534TIP3    H135093   1.525   2.144  15.773  0.4851 -0.8973  0.6904
 4534TIP3    H235094   1.519   2.006  15.711 -1.6697  0.0560 -1.3746
 4535TIP3   OH235095   6.487   6.621  13.994  0.3478  0.0064 -0.2408
 4535TIP3    H135096   6.537   6.640  13.915 -0.8710  1.1258 -0.7805
 4535TIP3    H235097   6.532   6.671  14.063  1.0285 -0.4540 -0.3367
 4536TIP3   OH235098   4.456   0.255   5.169  0.1828 -0.0032 -0.5574
 4536TIP3    H135099   4.439   0.205   5.088 -0.0438  0.2917 -0.6944
 4536TIP3    H235100   4.484   0.189   5.232 -2.6789 -0.7515  0.0698
 4537TIP3   OH235101   0.628   6.179   2.561  0.2386 -0.0413 -0.3530
 4537TIP3    H135102   0.632   6.253   2.501 -0.4250  0.4297  0.1652
 4537TIP3    H235103   0.629   6.219   2.648  1.8093 -0.7408 -0.0250
 4538TIP3   OH235104   0.739   2.509  10.363 -0.4766 -1.0961  0.4296
 4538TIP3    H135105   0.805   2.533  10.299 -2.8804 -0.2853 -1.9129
 4538TIP3    H235106   0.732   2.414  10.356  1.1443 -1.3438  1.5410
 4539TIP3   OH235107   0.524   5.637  15.973 -0.3167 -0.4971  0.0261
 4539TIP3    H135108   0.615   5.655  15.948 -0.7331  5.3174  1.1430
 4539TIP3    H235109   0.530   5.591  16.056  1.5134 -1.3173 -0.5025
 4540TIP3   OH235110   0.431   2.041  13.117  0.2971  0.0264  0.7322
 4540TIP3    H135111   0.400   1.958  13.081  0.7812 -0.0111  0.3841
 4540TIP3    H235112   0.525   2.027  13.133  0.7097  0.9617 -0.6994
 4541TIP3   OH235113   3.669   6.749  13.674 -0.1279  0.1776  0.3130
 4541TIP3    H135114   3.748   6.711  13.712  0.8930  1.9847  0.0788
 4541TIP3    H235115   3.658   6.833  13.718 -1.4338  0.3438 -0.2673
 4542TIP3   OH235116   5.125   5.875   6.056 -0.2362  0.0647 -0.5067
 4542TIP3    H135117   5.130   5.787   6.094  0.6635  0.7728  1.1408
 4542TIP3    H235118   5.208   5.916   6.080 -1.1248  1.7633 -0.1682
 4543TIP3   OH235119   6.676   1.952  12.814  0.1734  0.4417 -0.4137
 4543TIP3    H135120   6.652   2.039  12.782 -1.0713  0.2009 -0.1822
 4543TIP3    H235121   6.672   1.896  12.737 -2.5040 -0.0734 -0.0002
 4544TIP3   OH235122   5.933   2.205  12.416  0.0443  0.0476 -0.0495
 4544TIP3    H135123   5.856   2.209  12.473 -0.7252 -4.3239 -0.3691
 4544TIP3    H235124   6.005   2.234  12.471 -1.4033  1.2055  1.3206
 4545TIP3   OH235125   1.530   1.784   3.078  0.2207  0.2346 -0.3061
 4545TIP3    H135126   1.584   1.785   3.157  0.0729  1.3581 -0.1941
 4545TIP3    H235127   1.463   1.719   3.095  0.1729  0.4909  0.5218
 4546TIP3   OH235128   1.367   4.952  13.592  0.0818  0.4325 -0.6960
 4546TIP3    H135129   1.282   4.915  13.616  0.6095 -0.3801  0.0126
 4546TIP3    H235130   1.349   5.008  13.517 -0.6167 -2.1425 -2.5921
 4547TIP3   OH235131   5.740   2.498  15.320  0.3702 -0.4563 -0.3757
 4547TIP3    H135132   5.802   2.556  15.365  0.8695 -1.2614 -0.0033
 4547TIP3    H235133   5.773   2.410  15.338 -0.4470 -0.8607 -0.8340
 4548TIP3   OH235134   3.889   4.608   3.634 -0.3551  0.1003 -0.0061
 4548TIP3    H135135   3.840   4.546   3.579  0.0815  0.1405 -0.4413
 4548TIP3    H235136   3.877   4.693   3.592  0.7447 -0.0121 -0.5679
 4549TIP3   OH235137   5.962   0.664   3.496  0.4404 -0.3086 -0.4256
 4549TIP3    H135138   5.876   0.626   3.515  0.7075  0.0573  1.8287
 4549TIP3    H235139   5.989   0.622   3.415 -1.2563 -1.4828 -0.4465
 4550TIP3   OH235140   2.186   3.330  15.294  0.3599  0.3110 -0.0243
 4550TIP3    H135141   2.162   3.245  15.257  0.3505  0.6648 -0.8549
 4550TIP3    H235142   2.243   3.309  15.369 -0.1952 -0.4374  0.1979
 4551TIP3   OH235143   4.099   1.845   0.340  0.2551 -0.0172  0.5161
 4551TIP3    H135144   4.183   1.806   0.317  0.5343  1.3337 -0.9771
 4551TIP3    H235145   4.094   1.838   0.435  1.3494 -1.4687  0.4946
 4552TIP3   OH235146   5.764   1.258   0.567 -0.0188 -0.1991  0.1751
 4552TIP3    H135147   5.762   1.296   0.479 -0.0849 -1.1725 -0.2658
 4552TIP3    H235148   5.796   1.328   0.623  1.5737 -0.0253 -0.8784
 4553TIP3   OH235149   4.136   3.073  17.060  0.0345  0.6217  0.1822
 4553TIP3    H135150   4.196   3.143  17.035  0.1722 -0.4547 -2.8564
 4553TIP3    H235151   4.172   3.040  17.143  4.5237 -0.7418 -1.9741
 4554TIP3   OH235152   1.671   4.845  13.005  0.1433  0.3490 -0.8090
 4554TIP3    H135153   1.689   4.838  12.911 -1.1498 -0.4858 -1.0167
 4554TIP3    H235154   1.756   4.834  13.046  0.3086 -3.1495 -1.7452
 4555TIP3   OH235155   3.464   6.455  15.762  0.3743 -0.1647  0.3881
 4555TIP3    H135156   3.558   6.465  15.776  0.6188 -2.4657  0.7947
 4555TIP3    H235157   3.439   6.383  15.819 -0.7747 -2.5595 -2.8329
 4556TIP3   OH235158   2.503   4.750  13.654  0.1690 -0.6637  0.7066
 4556TIP3    H135159   2.539   4.678  13.706  1.0923 -1.8209 -1.4153
 4556TIP3    H235160   2.536   4.734  13.565 -2.2518  0.5716 -0.4966
 4557TIP3   OH235161   3.465   4.952  14.271 -0.1829  0.5376 -0.0258
 4557TIP3    H135162   3.421   4.946  14.355 -0.9867 -1.5655 -0.5290
 4557TIP3    H235163   3.555   4.974  14.292 -0.1775 -0.7659  1.4739
 4558TIP3   OH235164   0.646   3.015  16.988 -0.3386  0.2435 -0.1394
 4558TIP3    H135165   0.709   2.957  16.946 -0.2042  0.0469  0.3260
 4558TIP3    H235166   0.698   3.066  17.050 -0.5619  0.3938 -0.0744
 4559TIP3   OH235167   3.753   2.141  16.260 -0.0803 -0.2048  0.4139
 4559TIP3    H135168   3.761   2.107  16.350  0.5026  3.8160  2.1321
 4559TIP3    H235169   3.844   2.150  16.230 -0.2200 -0.2077 -0.0148
 4560TIP3   OH235170   6.008   0.960   2.412  0.0347  0.2761 -0.5672
 4560TIP3    H135171   6.022   1.055   2.407 -1.0053  0.4214 -0.8110
 4560TIP3    H235172   5.960   0.947   2.494 -2.0372  0.2566 -1.7290
 4561TIP3   OH235173   0.451   6.598  10.264 -0.1443 -0.5482  0.1815
 4561TIP3    H135174   0.393   6.548  10.206 -1.3914  0.4657  0.5037
 4561TIP3    H235175   0.521   6.536  10.287 -0.7074 -1.5872 -0.7998
 4562TIP3   OH235176   5.581   2.092   1.366  0.6124  0.4978  0.2001
 4562TIP3    H135177   5.640   2.103   1.292  2.1444  1.6333  1.5114
 4562TIP3    H235178   5.559   2.181   1.394 -0.4400  0.0979  0.7391
 4563TIP3   OH235179   3.797   6.405   4.678  0.7620  0.7066 -0.1457
 4563TIP3    H135180   3.781   6.498   4.695 -0.9027  1.0781 -3.0200
 4563TIP3    H235181   3.811   6.400   4.583  2.1900 -1.8437  0.1089
 4564TIP3   OH235182   3.523   0.042  16.669  0.7340  0.5644  0.0284
 4564TIP3    H135183   3.578   0.120  16.665  0.6885  0.5597 -0.7775
 4564TIP3    H235184   3.585  -0.031  16.656  0.4798  0.5851 -1.4032
 4565TIP3   OH235185   3.318   6.245   0.512  0.0485 -0.4985 -0.0489
 4565TIP3    H135186   3.257   6.304   0.555 -0.5222  0.3001 -1.8541
 4565TIP3    H235187   3.347   6.293   0.434  0.9567 -1.8921 -0.6152
 4566TIP3   OH235188   3.424   4.502  12.996 -0.4543  0.3725 -0.1664
 4566TIP3    H135189   3.413   4.559  12.920  1.2960 -1.3480 -1.8077
 4566TIP3    H235190   3.461   4.558  13.064  0.0740  1.4511 -1.3186
 4567TIP3   OH235191   6.648   2.947  15.501  0.5888  0.1072 -0.2320
 4567TIP3    H135192   6.635   2.969  15.593 -0.4506  0.6771 -0.4985
 4567TIP3    H235193   6.596   2.868  15.487  0.7068  0.0488 -0.3501
 4568TIP3   OH235194   4.258   4.611   5.299  0.4185 -0.2622 -0.4800
 4568TIP3    H135195   4.255   4.616   5.395  2.0484 -1.2966 -0.3462
 4568TIP3    H235196   4.268   4.702   5.271 -0.3186  0.0747  0.3081
 4569TIP3   OH235197   4.531   4.645   5.545  0.0652  0.3853 -0.0788
 4569TIP3    H135198   4.552   4.678   5.457 -1.1201 -0.6742 -0.7833
 4569TIP3    H235199   4.520   4.551   5.533 -0.1093  0.2294  1.2247
 4570TIP3   OH235200   4.558   3.885   0.172 -0.1742 -0.5363 -0.0377
 4570TIP3    H135201   4.627   3.952   0.173  1.7600 -2.3936  1.2214
 4570TIP3    H235202   4.486   3.924   0.220  1.5425  0.1187  2.1830
 4571TIP3   OH235203   0.954   5.657  10.620 -0.3004  0.5014 -0.1174
 4571TIP3    H135204   0.955   5.713  10.698 -0.8759  0.8405 -0.3410
 4571TIP3    H235205   0.947   5.568  10.654 -0.4623  0.6426  0.2260
 4572TIP3   OH235206   3.817   6.749  16.651 -0.0115 -0.0796  0.5326
 4572TIP3    H135207   3.848   6.662  16.676  0.2350 -0.0476  0.3459
 4572TIP3    H235208   3.851   6.762  16.562 -2.0583 -0.7674 -0.3997
 4573TIP3   OH235209   2.599   3.015   4.166 -0.3224  0.9484  0.3617
 4573TIP3    H135210   2.571   2.953   4.232 -2.3930  0.8818 -0.5031
 4573TIP3    H235211   2.647   2.962   4.102  0.4025  0.7729  1.0286
 4574TIP3   OH235212   1.448   2.599  12.049 -0.7448  0.1297 -0.0045
 4574TIP3    H135213   1.495   2.541  12.110 -1.1991  0.6091  0.8240
 4574TIP3    H235214   1.434   2.545  11.971  1.7777  0.1763 -0.5815
 4575TIP3   OH235215   5.735   2.912   5.066 -0.0109 -0.9125  0.2095
 4575TIP3    H135216   5.775   2.880   4.985 -1.3720 -0.3575 -0.7272
 4575TIP3    H235217   5.654   2.955   5.037  0.9901  2.1286  1.5198
 4576TIP3   OH235218   6.309   6.468  14.674 -0.0509 -0.1817  0.1887
 4576TIP3    H135219   6.227   6.516  14.682  0.4493  0.6482  0.4916
 4576TIP3    H235220   6.353   6.507  14.599  1.0426  0.9139  1.3415
 4577TIP3   OH235221   1.323   3.896   3.673 -0.4663  0.0297  0.7176
 4577TIP3    H135222   1.317   3.836   3.598 -1.4984  1.3514 -0.3143
 4577TIP3    H235223   1.271   3.854   3.741  1.7639 -1.9749  1.3326
 4578TIP3   OH235224   5.770   0.567  15.129  0.3034  0.1852  0.2243
 4578TIP3    H135225   5.700   0.529  15.182  1.3182  0.6406  1.9577
 4578TIP3    H235226   5.732   0.646  15.092 -0.8748 -0.8844 -0.9747
 4579TIP3   OH235227   0.652   6.712  17.156  0.0383  0.3900 -0.2176
 4579TIP3    H135228   0.630   6.734  17.247  2.6454  0.8306  0.3932
 4579TIP3    H235229   0.590   6.763  17.103 -1.7537 -0.1419  1.2727
 4580TIP3   OH235230   0.881   6.176  11.067  0.3423  0.3208  0.4037
 4580TIP3    H135231   0.809   6.130  11.111  0.0377 -0.9716 -1.3029
 4580TIP3    H235232   0.950   6.181  11.132 -0.7813  0.2922  1.6371
 4581TIP3   OH235233   4.319   5.595   1.557  0.0450  0.2159 -0.0673
 4581TIP3    H135234   4.296   5.685   1.578 -2.0878 -0.3326  0.2275
 4581TIP3    H235235   4.392   5.575   1.616 -0.3298  1.3365  0.8213
 4582TIP3   OH235236   6.374   0.356   4.769 -0.1360 -0.3557 -0.1003
 4582TIP3    H135237   6.409   0.316   4.690 -0.3907  0.1237 -0.4609
 4582TIP3    H235238   6.442   0.341   4.835  0.2751 -0.3698 -0.5203
 4583TIP3   OH235239   3.394   3.900  11.036 -0.1689 -0.0521 -0.2134
 4583TIP3    H135240   3.381   3.919  11.129 -0.6024 -0.1358 -0.2546
 4583TIP3    H235241   3.452   3.970  11.005 -0.4297  0.2668  0.0064
 4584TIP3   OH235242   1.358   6.235  13.281 -0.0065 -0.8115 -0.6009
 4584TIP3    H135243   1.413   6.309  13.308  1.6188 -2.4424  0.9004
 4584TIP3    H235244   1.302   6.217  13.357 -1.1501 -0.4686 -1.3519
 4585TIP3   OH235245   3.027   6.133   1.732 -0.0923 -0.2822 -0.2036
 4585TIP3    H135246   3.056   6.057   1.781  0.5467  0.2163  0.1998
 4585TIP3    H235247   2.980   6.187   1.796 -0.6888 -0.4086 -0.5248
 4586TIP3   OH235248   1.723   5.173   5.174 -0.3490  0.1183 -0.8345
 4586TIP3    H135249   1.747   5.264   5.155  0.4505 -0.0313 -0.6015
 4586TIP3    H235250   1.736   5.128   5.091  1.3242 -0.1755 -0.4504
 4587TIP3   OH235251   1.749   1.104   1.662 -0.0199  0.4631  0.3829
 4587TIP3    H135252   1.773   1.021   1.622 -0.0047 -0.3141  1.9251
 4587TIP3    H235253   1.655   1.111   1.651  0.0256  0.4002 -0.0387
 4588TIP3   OH235254   5.260   0.682   2.878 -0.6711  0.8551  0.3126
 4588TIP3    H135255   5.230   0.612   2.936 -2.2867  1.9290  0.8317
 4588TIP3    H235256   5.346   0.652   2.847 -1.1491 -1.1692  0.7997
 4589TIP3   OH235257   5.114   3.874  12.132 -0.2870 -0.1200  0.0355
 4589TIP3    H135258   5.033   3.914  12.101  0.5003  1.2008 -0.4399
 4589TIP3    H235259   5.183   3.921  12.084  0.9460  1.1900  2.8383
 4590TIP3   OH235260   4.329   4.106   1.768 -0.3436  0.4073 -0.1400
 4590TIP3    H135261   4.410   4.142   1.732  0.4784  0.9502  2.0985
 4590TIP3    H235262   4.262   4.172   1.748 -0.3839 -0.2262 -2.3525
 4591TIP3   OH235263   6.826   0.013  13.934  0.3459  0.0456  0.3971
 4591TIP3    H135264   6.755   0.014  13.997  0.7342 -3.0687  1.0549
 4591TIP3    H235265   6.905  -0.001  13.986  1.0280  0.1108 -0.5734
 4592TIP3   OH235266   6.608   3.730  11.762  0.2606  0.6311  0.2672
 4592TIP3    H135267   6.556   3.779  11.825  0.1596 -1.7518  2.1791
 4592TIP3    H235268   6.543   3.688  11.705  0.2051  0.4071  0.4909
 4593TIP3   OH235269   3.289   3.446   3.692 -0.6901  1.1303 -0.4518
 4593TIP3    H135270   3.294   3.530   3.739  0.4246  1.0458 -0.3973
 4593TIP3    H235271   3.341   3.386   3.745 -2.2268  0.1471 -0.0113
 4594TIP3   OH235272   1.147   0.903   5.142  0.1304 -0.3076  0.7566
 4594TIP3    H135273   1.124   0.974   5.202  1.7179  0.5243  0.4543
 4594TIP3    H235274   1.237   0.881   5.165  1.4837  1.2559 -2.3433
 4595TIP3   OH235275   2.324   5.082  16.209  0.5878  0.2536 -0.1311
 4595TIP3    H135276   2.241   5.043  16.235  0.8120  0.1917  0.4887
 4595TIP3    H235277   2.299   5.166  16.171  0.0338 -0.7516 -2.1478
 4596TIP3   OH235278   3.860   0.534  16.155  0.2061 -0.2356  0.5854
 4596TIP3    H135279   3.785   0.476  16.142  0.0666  0.2444 -0.8437
 4596TIP3    H235280   3.936   0.475  16.155 -0.0932 -0.6488  1.4168
 4597TIP3   OH235281   4.731   2.046   3.897  0.0771  0.1189  0.2033
 4597TIP3    H135282   4.804   2.106   3.914 -0.4886  0.3006  2.1333
 4597TIP3    H235283   4.669   2.062   3.967 -0.1326 -2.7005  0.7802
 4598TIP3   OH235284   1.458   4.485   1.453  0.3188 -0.1752  0.0093
 4598TIP3    H135285   1.488   4.455   1.367  0.0841 -0.5062  0.0411
 4598TIP3    H235286   1.415   4.569   1.435 -0.1263 -0.4592 -0.2648
 4599TIP3   OH235287   4.692   6.019  11.365  0.3436 -0.2578  0.3832
 4599TIP3    H135288   4.754   6.088  11.388  1.2774 -0.8575 -0.2708
 4599TIP3    H235289   4.633   6.060  11.302  1.2596 -0.2136 -0.4573
 4600TIP3   OH235290   0.556   0.060  16.248 -0.3699 -0.1195  0.3520
 4600TIP3    H135291   0.563   0.054  16.153  1.2179 -1.4367  0.5159
 4600TIP3    H235292   0.517  -0.024  16.274 -1.1440  0.3811  0.8571
 4601TIP3   OH235293   1.181   6.490  16.559  0.3052 -0.1013  0.5728
 4601TIP3    H135294   1.089   6.470  16.579  0.1943  1.0354  1.2530
 4601TIP3    H235295   1.209   6.546  16.631  0.9797  1.1239 -0.6155
 4602TIP3   OH235296   2.609   0.681  15.405 -0.4022 -0.4009  0.2589
 4602TIP3    H135297   2.636   0.592  15.427 -1.2094 -1.1300 -1.5101
 4602TIP3    H235298   2.679   0.715  15.350  0.2133  0.3160  1.4645
 4603TIP3   OH235299   1.439   2.214   4.960 -0.3741  0.3777  1.3788
 4603TIP3    H135300   1.363   2.161   4.981  0.0740 -1.2926 -0.8411
 4603TIP3    H235301   1.406   2.304   4.960 -2.3463 -0.2872  0.5839
 4604TIP3   OH235302   2.061   6.630   6.519 -0.9284  0.3356 -0.3140
 4604TIP3    H135303   1.998   6.558   6.513 -1.1917  0.1057  3.1918
 4604TIP3    H235304   2.011   6.703   6.555  0.4935  0.5124  1.4344
 4605TIP3   OH235305   2.650   6.445  16.107  0.0291  0.3765 -0.5743
 4605TIP3    H135306   2.639   6.517  16.044  1.3705 -0.4413 -1.8019
 4605TIP3    H235307   2.628   6.366  16.057  0.4494 -0.2364  0.1925
 4606TIP3   OH235308   1.119   5.162  11.440 -0.0734  0.4615  0.3635
 4606TIP3    H135309   1.172   5.086  11.416  1.5189  1.2642  1.1316
 4606TIP3    H235310   1.161   5.235  11.394  0.0751  1.2588  1.7126
 4607TIP3   OH235311   5.823   4.052  17.269 -0.3062  0.3249 -0.3421
 4607TIP3    H135312   5.745   4.016  17.311 -0.4694  0.0208 -0.8901
 4607TIP3    H235313   5.789   4.119  17.209 -0.0525  0.9803  0.2359
 4608TIP3   OH235314   4.112   1.840  17.284  0.5598 -0.0569  0.4260
 4608TIP3    H135315   4.074   1.826  17.197  2.1167 -1.0764 -0.1390
 4608TIP3    H235316   4.132   1.933  17.287  1.1624 -0.1387 -0.6166
 4609TIP3   OH235317   2.248   4.448  14.061  0.1494 -0.1595  0.0590
 4609TIP3    H135318   2.234   4.452  14.155  0.1665 -0.2823  0.0672
 4609TIP3    H235319   2.344   4.449  14.051  0.1418  0.3068  0.0183
 4610TIP3   OH235320   4.164   5.238   4.779 -0.3461  0.1715  0.3421
 4610TIP3    H135321   4.223   5.313   4.773  1.5348 -0.9177  3.0261
 4610TIP3    H235322   4.204   5.171   4.723 -0.8218  0.4283 -0.3212
 4611TIP3   OH235323   2.734   5.584  13.554 -0.4954  0.2040  0.1605
 4611TIP3    H135324   2.781   5.603  13.636  0.5889 -1.8324  0.0831
 4611TIP3    H235325   2.755   5.657  13.497  1.1254  0.2564  0.7620
 4612TIP3   OH235326   6.681   4.039   0.808 -0.0898 -0.0936  0.2084
 4612TIP3    H135327   6.733   4.038   0.727  0.1656  0.2987  0.3653
 4612TIP3    H235328   6.609   4.100   0.790  0.4108  0.6096  0.5454
 4613TIP3   OH235329   1.354   6.292  11.358 -0.2020  0.3667 -0.6802
 4613TIP3    H135330   1.334   6.206  11.396  0.2237 -0.7465 -2.8282
 4613TIP3    H235331   1.395   6.341  11.429  1.4944 -1.9664  0.0386
 4614TIP3   OH235332   1.922   0.297  13.889  0.6163  0.6505 -0.0429
 4614TIP3    H135333   1.960   0.225  13.838  1.9648  0.0079  1.7681
 4614TIP3    H235334   1.961   0.376  13.850  0.5006  0.3004 -0.9032
 4615TIP3   OH235335   0.609   1.273  12.259  0.4298  0.1262 -0.0751
 4615TIP3    H135336   0.535   1.214  12.242  0.1956  0.1777  0.7449
 4615TIP3    H235337   0.615   1.327  12.180  0.2475 -0.5661 -0.5793
 4616TIP3   OH235338   4.758   6.793   5.054 -0.1304  0.3043 -0.4260
 4616TIP3    H135339   4.742   6.888   5.054  0.8080  0.4765 -0.4758
 4616TIP3    H235340   4.830   6.782   4.991  1.8378 -0.0589  1.7511
 4617TIP3   OH235341   5.372   4.471  11.575 -0.5516 -0.5727  0.5564
 4617TIP3    H135342   5.287   4.478  11.618 -0.1816  1.3855  1.0507
 4617TIP3    H235343   5.434   4.463  11.647 -0.2203 -0.9926  0.2280
 4618TIP3   OH235344   6.051   1.978  16.247  0.3773 -0.0067  0.4032
 4618TIP3    H135345   6.058   2.059  16.298  1.1163 -0.4225  0.9672
 4618TIP3    H235346   5.989   2.000  16.177  0.4909  1.0187  0.6067
 4619TIP3   OH235347   6.251   4.717  10.659  0.2090  0.0935  0.7748
 4619TIP3    H135348   6.178   4.662  10.631  1.1551 -1.4382  1.2030
 4619TIP3    H235349   6.281   4.760  10.579  0.4770 -1.2841  0.1120
 4620TIP3   OH235350   2.089   5.505   6.278 -0.0817 -0.4334 -0.2362
 4620TIP3    H135351   2.017   5.451   6.246 -1.7888  1.2972  0.4956
 4620TIP3    H235352   2.069   5.521   6.370  1.9599 -0.9747  0.3593
 4621TIP3   OH235353   1.536   6.593   0.624 -0.5133 -0.0551  0.4307
 4621TIP3    H135354   1.485   6.592   0.705  0.1952  0.3979  0.8925
 4621TIP3    H235355   1.616   6.641   0.646 -0.6856  0.8426 -0.7516
 4622TIP3   OH235356   0.758   1.565   0.697  0.1726  0.6944  0.1165
 4622TIP3    H135357   0.785   1.650   0.731  0.8250  0.5490 -0.0100
 4622TIP3    H235358   0.793   1.563   0.608 -0.7254  0.7014 -0.2506
 4623TIP3   OH235359   2.612   6.463   6.310 -0.4339  0.2480  0.2667
 4623TIP3    H135360   2.527   6.505   6.326  0.4547  2.1249  0.3280
 4623TIP3    H235361   2.664   6.530   6.266  1.6366 -0.1867  1.8936
 4624TIP3   OH235362   6.137   6.039  15.730 -0.4305 -0.3856  0.4330
 4624TIP3    H135363   6.193   6.087  15.669 -3.2986  1.7292 -0.8313
 4624TIP3    H235364   6.158   6.074  15.816 -2.1579  3.1617 -0.4119
 4625TIP3   OH235365   6.496   3.165  16.694 -0.3730  0.2026 -0.1192
 4625TIP3    H135366   6.468   3.183  16.604  1.6193 -0.1678 -0.8471
 4625TIP3    H235367   6.543   3.243  16.721 -0.7254  0.2012  0.5166
 4626TIP3   OH235368   0.583   4.977   2.242  0.1983 -0.3166 -0.0033
 4626TIP3    H135369   0.665   4.955   2.286 -0.7024 -0.6047  1.5888
 4626TIP3    H235370   0.601   4.960   2.149  2.8990  2.5256 -0.1741
 4627TIP3   OH235371   6.804   1.450  11.964  0.1656 -0.2814 -0.2728
 4627TIP3    H135372   6.862   1.501  12.020  1.4844 -1.4118 -0.5530
 4627TIP3    H235373   6.857   1.375  11.937 -1.2709 -1.0812 -0.9734
 4628TIP3   OH235374   2.827   4.118   2.492 -0.1440 -0.1975 -0.6332
 4628TIP3    H135375   2.781   4.039   2.464 -0.0253 -0.3738 -0.3380
 4628TIP3    H235376   2.868   4.151   2.413  0.0198 -0.5759 -0.7091
 4629TIP3   OH235377   3.889   5.158   3.434 -0.6189  0.4074 -0.0112
 4629TIP3    H135378   3.839   5.136   3.356  0.2676  0.5543 -0.6423
 4629TIP3    H235379   3.833   5.131   3.507 -0.5281 -1.9326 -0.6928
 4630TIP3   OH235380   6.521   5.435   0.788 -0.1683  0.3187 -0.6194
 4630TIP3    H135381   6.426   5.432   0.797 -0.6152  3.6031 -2.7281
 4630TIP3    H235382   6.548   5.509   0.843  1.3424 -1.0131  0.5348
 4631TIP3   OH235383   4.771   4.599   4.386 -0.0358 -0.0357  0.0992
 4631TIP3    H135384   4.720   4.649   4.450  1.0828 -0.2197  1.1632
 4631TIP3    H235385   4.762   4.508   4.413 -0.3014 -0.2181 -0.5664
 4632TIP3   OH235386   2.397   2.909  12.576 -0.8066  0.3832 -0.2184
 4632TIP3    H135387   2.342   2.912  12.655 -1.4312 -1.9026 -0.5103
 4632TIP3    H235388   2.484   2.888  12.609 -0.5317  1.7772  0.0300
 4633TIP3   OH235389   4.582   2.086  11.927 -0.2528 -0.4761 -0.3008
 4633TIP3    H135390   4.651   2.147  11.953 -0.4957  0.5993 -2.0083
 4633TIP3    H235391   4.508   2.109  11.983 -0.0895  0.2592 -0.3800
 4634TIP3   OH235392   1.749   6.317   0.606 -0.1110  0.1759 -0.6140
 4634TIP3    H135393   1.727   6.228   0.579 -1.5239  0.2051  0.3223
 4634TIP3    H235394   1.698   6.373   0.547 -0.2185  0.3314 -0.3729
 4635TIP3   OH235395   0.436   2.594  16.347 -0.1387  0.1957  0.8136
 4635TIP3    H135396   0.499   2.590  16.275  0.1856 -0.0295  1.1081
 4635TIP3    H235397   0.474   2.657  16.408  0.1132 -0.4161  1.2904
 4636TIP3   OH235398   2.494   4.225   5.850 -0.3134 -0.4364 -0.5484
 4636TIP3    H135399   2.586   4.216   5.876 -0.2114  1.5484 -0.0810
 4636TIP3    H235400   2.445   4.178   5.917  0.2529  0.4212  0.5014
 4637TIP3   OH235401   5.048   1.567  10.272 -0.3236 -0.0689  0.5773
 4637TIP3    H135402   5.117   1.502  10.257 -1.1579 -0.7191 -0.6743
 4637TIP3    H235403   4.987   1.524  10.332 -0.2020  0.0850  0.8131
 4638TIP3   OH235404   3.448   2.754   0.793  0.4302  0.6253 -0.8210
 4638TIP3    H135405   3.421   2.680   0.848  0.9746  0.4672 -0.7652
 4638TIP3    H235406   3.365   2.790   0.761  0.1699 -0.9386 -2.0661
 4639TIP3   OH235407   2.068   3.811   5.609 -0.1460  0.2562 -0.5756
 4639TIP3    H135408   2.022   3.837   5.530  0.3648 -0.9269 -1.2779
 4639TIP3    H235409   2.046   3.879   5.673 -2.0602  0.2340 -1.1660
 4640TIP3   OH235410   1.123   4.717  14.175  0.6836  0.0083  0.3765
 4640TIP3    H135411   1.090   4.803  14.199  0.7428  0.7744 -2.0239
 4640TIP3    H235412   1.047   4.659  14.184 -0.1830  0.9091 -0.8521
 4641TIP3   OH235413   6.672   2.632  15.602 -0.1517 -0.4498 -0.2364
 4641TIP3    H135414   6.673   2.602  15.511 -1.5440 -0.6354 -0.2080
 4641TIP3    H235415   6.763   2.625  15.630 -0.1727 -3.5097 -0.6199
 4642TIP3   OH235416   3.152   6.446  16.612  0.5405  0.2326 -0.3375
 4642TIP3    H135417   3.226   6.403  16.655 -0.6206 -0.2865  1.2268
 4642TIP3    H235418   3.183   6.463  16.523  1.5872 -2.4407 -0.5781
 4643TIP3   OH235419   4.522   3.505  11.431  0.1748 -0.3932  0.2350
 4643TIP3    H135420   4.444   3.536  11.477  1.6569  2.0707  1.2904
 4643TIP3    H235421   4.574   3.462  11.499  2.5868  3.6619  1.3678
 4644TIP3   OH235422   1.693   2.766   0.199  0.1293  0.2439 -0.1595
 4644TIP3    H135423   1.751   2.707   0.150  0.4666 -1.0713  1.7160
 4644TIP3    H235424   1.752   2.833   0.233  0.1866  0.1751 -0.1206
 4645TIP3   OH235425   2.838   4.590  13.537 -0.0557 -0.4132  0.1804
 4645TIP3    H135426   2.848   4.610  13.444  0.4350 -0.0868  0.2998
 4645TIP3    H235427   2.925   4.604  13.575 -0.2432 -0.5692  0.6824
 4646TIP3   OH235428   5.852   3.722  14.318  0.3550  0.2700 -0.1855
 4646TIP3    H135429   5.810   3.771  14.389  0.4431  0.9425 -0.5824
 4646TIP3    H235430   5.834   3.630  14.338 -0.7809  0.5083 -0.0165
 4647TIP3   OH235431   5.140   0.377   1.647 -0.0151  0.1197  0.2021
 4647TIP3    H135432   5.203   0.306   1.662  0.5421  0.6262  0.3029
 4647TIP3    H235433   5.122   0.412   1.735  0.3503  0.6360  0.0758
 4648TIP3   OH235434   3.984   4.952   5.083  0.3225 -0.3503  0.1818
 4648TIP3    H135435   3.947   4.869   5.113 -0.6764 -0.0435 -0.1670
 4648TIP3    H235436   3.925   4.981   5.014  1.3464  0.0553 -0.5500
 4649TIP3   OH235437   4.620   1.782   0.374 -0.5501 -0.0446  0.1912
 4649TIP3    H135438   4.657   1.716   0.432 -0.0154 -0.3075 -0.4277
 4649TIP3    H235439   4.624   1.742   0.287 -0.9308  0.5085 -0.0869
 4650TIP3   OH235440   3.481   2.488  11.267 -0.0841  0.4408 -0.4586
 4650TIP3    H135441   3.481   2.527  11.355  1.7691 -0.3026 -0.0959
 4650TIP3    H235442   3.538   2.412  11.274 -1.7719 -1.0355 -1.7450
 4651TIP3   OH235443   2.966   1.830  13.663  0.0898  0.3421 -0.3137
 4651TIP3    H135444   2.895   1.765  13.669  0.2071  0.2057 -0.3867
 4651TIP3    H235445   2.968   1.854  13.571 -0.7604  1.3621 -0.0849
 4652TIP3   OH235446   3.055   1.431   3.830  0.1192 -0.2998  0.3032
 4652TIP3    H135447   3.100   1.367   3.775  1.1979  1.9745 -1.6335
 4652TIP3    H235448   2.992   1.379   3.880  2.1334 -3.0873  0.1949
 4653TIP3   OH235449   5.321   3.763  17.207  0.2365 -0.2956  0.3202
 4653TIP3    H135450   5.380   3.828  17.168 -1.0624 -0.8147 -2.7768
 4653TIP3    H235451   5.234   3.787  17.175 -1.2152 -0.1870  3.8833
 4654TIP3   OH235452   2.599   0.154   0.476 -0.5492 -0.0944 -0.0434
 4654TIP3    H135453   2.558   0.124   0.557 -0.7362 -0.3356 -0.2277
 4654TIP3    H235454   2.660   0.223   0.504  0.3390 -1.0613  0.4418
 4655TIP3   OH235455   2.757   5.987  11.901 -0.2730 -0.2648 -0.0543
 4655TIP3    H135456   2.670   6.005  11.867 -0.3860  0.4505  0.5750
 4655TIP3    H235457   2.805   5.951  11.827 -0.3055  1.9055 -1.2186
 4656TIP3   OH235458   5.339   5.413  12.923  0.0127  0.3234  0.1699
 4656TIP3    H135459   5.297   5.483  12.873  0.7713  0.6926  0.0198
 4656TIP3    H235460   5.406   5.459  12.974  1.1864 -0.3942 -0.6658
 4657TIP3   OH235461   3.700   1.257   4.341 -0.3786 -0.1838 -0.2332
 4657TIP3    H135462   3.653   1.175   4.357 -0.1961 -0.6980 -2.0677
 4657TIP3    H235463   3.779   1.231   4.296  0.1951  0.9397  0.0815
 4658TIP3   OH235464   4.700   4.334   4.517 -0.0612  0.2253 -0.8158
 4658TIP3    H135465   4.633   4.282   4.560 -0.7311  2.2660  0.7851
 4658TIP3    H235466   4.778   4.278   4.517 -1.0896 -1.2628 -0.4698
 4659TIP3   OH235467   6.098   6.674  12.440 -0.2673  0.2382  0.3681
 4659TIP3    H135468   6.052   6.757  12.430 -0.0849  0.5337  1.8435
 4659TIP3    H235469   6.190   6.695  12.428 -0.4038 -0.2900 -2.1976
 4660TIP3   OH235470   1.649   1.688   0.408 -0.5484  0.2365 -0.3455
 4660TIP3    H135471   1.729   1.643   0.382 -0.7776 -0.1945 -0.3126
 4660TIP3    H235472   1.609   1.631   0.473  0.9511  2.1545  2.4454
 4661TIP3   OH235473   2.612   0.748  14.948 -0.3935  0.1208  0.0935
 4661TIP3    H135474   2.642   0.660  14.969 -1.7320 -0.3605  0.0582
 4661TIP3    H235475   2.622   0.755  14.853  3.1486  1.3607  0.3857
 4662TIP3   OH235476   4.533   4.490   2.112  0.1663 -0.7628 -0.2430
 4662TIP3    H135477   4.571   4.409   2.080  0.8443 -0.4415 -0.2636
 4662TIP3    H235478   4.583   4.560   2.069 -1.2388 -0.3117 -1.2205
 4663TIP3   OH235479   0.985   2.546   3.772 -0.1781 -0.4676 -0.1770
 4663TIP3    H135480   1.076   2.554   3.742 -1.0478  0.5390 -2.8313
 4663TIP3    H235481   0.992   2.513   3.861  2.7905 -0.3986 -0.2904
 4664TIP3   OH235482   5.162   1.779   3.143 -0.2236 -0.5485  0.1473
 4664TIP3    H135483   5.072   1.774   3.111 -0.5030  0.4970  0.7160
 4664TIP3    H235484   5.156   1.757   3.236 -0.0542  0.4596  0.4101
 4665TIP3   OH235485   1.303   3.272   4.131 -0.0040  0.3193 -0.9192
 4665TIP3    H135486   1.351   3.228   4.201  0.1806  1.1436 -0.5146
 4665TIP3    H235487   1.369   3.322   4.083  0.0595 -1.0615 -2.3728
 4666TIP3   OH235488   3.986   5.735  12.357 -0.3434 -0.1804  0.6070
 4666TIP3    H135489   3.973   5.689  12.274 -0.8823 -1.3018  1.3011
 4666TIP3    H235490   3.910   5.793  12.364  0.1246  0.5346 -0.0669
 4667TIP3   OH235491   4.736   6.367  12.745  0.4786 -0.5457  0.2756
 4667TIP3    H135492   4.727   6.453  12.703  0.5442 -0.7556 -0.1766
 4667TIP3    H235493   4.652   6.353  12.789  0.2280 -0.5300 -0.1896
 4668TIP3   OH235494   2.736   1.716  11.446 -0.1053 -0.3152 -0.1541
 4668TIP3    H135495   2.665   1.661  11.479 -0.5722 -0.8020 -1.8323
 4668TIP3    H235496   2.805   1.654  11.420 -0.3931 -0.0993 -1.5123
 4669TIP3   OH235497   5.786   6.092  14.178 -0.2111 -0.1352 -0.5881
 4669TIP3    H135498   5.795   6.003  14.144  3.3581  0.1023 -0.6833
 4669TIP3    H235499   5.741   6.140  14.109 -0.9905 -1.5543 -1.0995
 4670TIP3   OH235500   6.059   0.757  15.051 -0.5524 -0.3290  0.2042
 4670TIP3    H135501   6.078   0.838  15.099  0.9569 -0.0259 -0.8216
 4670TIP3    H235502   6.004   0.785  14.978 -0.3227 -0.2862  0.0479
 4671TIP3   OH235503   4.332   0.760   3.748 -0.2135  0.3542 -0.0413
 4671TIP3    H135504   4.307   0.671   3.771 -1.5634  0.2870 -1.6112
 4671TIP3    H235505   4.254   0.812   3.763  0.4192  1.1937  0.3924
 4672TIP3   OH235506   4.316   1.572  14.094  0.4987 -0.5528 -0.5194
 4672TIP3    H135507   4.304   1.656  14.138  2.0246 -0.7350  0.3242
 4672TIP3    H235508   4.273   1.583  14.009 -0.2058  0.7205 -0.0281
 4673TIP3   OH235509   3.982   4.160  17.242  0.6936 -0.0580  0.2448
 4673TIP3    H135510   4.068   4.180  17.279  0.5790  3.3788 -0.9763
 4673TIP3    H235511   3.994   4.169  17.147 -0.7113 -1.0641 -0.0624
 4674TIP3   OH235512   0.934   6.826  13.998 -0.7153  0.5422 -0.4056
 4674TIP3    H135513   0.902   6.901  13.947 -0.1019  2.5968  2.0112
 4674TIP3    H235514   0.901   6.842  14.087 -1.5573 -2.7483  0.0041
 4675TIP3   OH235515   3.825   0.325   5.321  0.1498  0.1199 -0.6964
 4675TIP3    H135516   3.821   0.339   5.416 -1.7446 -0.2289 -0.6705
 4675TIP3    H235517   3.867   0.239   5.311  0.4982  0.2295 -0.1681
 4676TIP3   OH235518   5.683   5.496  14.111  0.3625 -0.1603 -0.3488
 4676TIP3    H135519   5.632   5.563  14.064 -0.2872 -0.7814 -0.5349
 4676TIP3    H235520   5.751   5.546  14.157 -0.9528  0.7782  0.6489
 4677TIP3   OH235521   5.748   6.458   3.841  0.2429  0.8935 -0.2387
 4677TIP3    H135522   5.735   6.394   3.770  1.6311  0.2105  0.0847
 4677TIP3    H235523   5.754   6.542   3.797 -1.6586  0.8438 -0.6759
 4678TIP3   OH235524   6.769   2.885   1.260 -0.2965 -0.3379  0.4614
 4678TIP3    H135525   6.704   2.918   1.322 -1.2798  0.0762 -0.7365
 4678TIP3    H235526   6.744   2.793   1.246 -0.6274 -0.1822  0.0104
 4679TIP3   OH235527   4.342   4.733  14.215  0.6192 -0.7024  0.4663
 4679TIP3    H135528   4.332   4.828  14.219 -0.5289 -0.7777 -0.3051
 4679TIP3    H235529   4.433   4.720  14.189  0.1326  0.2561 -1.9565
 4680TIP3   OH235530   6.800   6.621  12.263 -0.4544  0.3473  0.3026
 4680TIP3    H135531   6.859   6.557  12.223  0.6277  1.4937  0.0156
 4680TIP3    H235532   6.781   6.584  12.350 -0.5395 -0.7615 -0.1663
 4681TIP3   OH235533   2.745   6.720   2.268 -0.9864 -0.2077 -0.1698
 4681TIP3    H135534   2.804   6.789   2.237 -1.9428  0.6662 -0.1188
 4681TIP3    H235535   2.802   6.656   2.310 -0.2119  1.5321  1.5579
 4682TIP3   OH235536   4.214   3.710   1.866  0.6650  0.2134  0.4799
 4682TIP3    H135537   4.177   3.623   1.884  0.7541  0.3504  1.3653
 4682TIP3    H235538   4.140   3.760   1.832  0.9388 -0.6088 -1.4415
 4683TIP3   OH235539   2.470   3.539   5.818  0.0288 -0.5873  0.0594
 4683TIP3    H135540   2.379   3.555   5.792  0.2181  0.1450 -0.1643
 4683TIP3    H235541   2.503   3.625   5.844  1.3483 -0.4052 -2.0116
 4684TIP3   OH235542   1.534   1.828  14.333 -0.1216  0.0703  0.1531
 4684TIP3    H135543   1.460   1.888  14.338  0.8668  1.4037 -0.7873
 4684TIP3    H235544   1.495   1.745  14.305 -1.2816  0.7091 -0.1962
 4685TIP3   OH235545   1.993   3.357   1.584 -0.0521  0.7922  0.2962
 4685TIP3    H135546   2.002   3.266   1.612  0.3063  1.0771  1.1366
 4685TIP3    H235547   1.898   3.369   1.572 -0.2075  0.6068  1.2326
 4686TIP3   OH235548   4.005   0.025  16.467 -0.1443  0.2884  0.0485
 4686TIP3    H135549   4.070  -0.044  16.449  1.1197  1.6047 -0.6620
 4686TIP3    H235550   4.056   0.094  16.509 -0.3708  2.5882 -3.1279
 4687TIP3   OH235551   6.249   3.128  12.628  0.2808 -0.4257 -0.3027
 4687TIP3    H135552   6.211   3.059  12.573  0.8257 -1.1141  0.1676
 4687TIP3    H235553   6.184   3.198  12.626 -0.0506 -0.7418 -1.2055
 4688TIP3   OH235554   0.397   0.247   3.015 -0.0879 -0.0930 -0.4676
 4688TIP3    H135555   0.330   0.241   2.947 -0.0407  1.6183 -0.7083
 4688TIP3    H235556   0.396   0.161   3.058 -1.4740 -0.5456 -1.3517
 4689TIP3   OH235557   0.209   3.151   0.141 -0.6679 -0.0870  0.8607
 4689TIP3    H135558   0.230   3.169   0.233 -2.6509  0.1875  1.3224
 4689TIP3    H235559   0.193   3.056   0.139  0.2870 -0.2490  0.5772
 4690TIP3   OH235560   5.541   6.696  17.190  0.5512 -0.7369  0.3643
 4690TIP3    H135561   5.521   6.607  17.220  1.6806 -0.5966  1.6363
 4690TIP3    H235562   5.614   6.686  17.130  1.2908 -0.5989  1.2251
 4691TIP3   OH235563   0.550   3.544   2.186  0.0151 -0.0239 -0.2861
 4691TIP3    H135564   0.506   3.472   2.141  1.7344 -0.1904 -1.7601
 4691TIP3    H235565   0.484   3.614   2.188 -0.4152 -0.3171 -2.2759
 4692TIP3   OH235566   2.529   0.061  15.007 -0.4464  0.2141  0.1107
 4692TIP3    H135567   2.585  -0.016  14.999 -1.1118 -0.1841 -1.2109
 4692TIP3    H235568   2.479   0.062  14.925 -1.4000  1.3030  0.6700
 4693TIP3   OH235569   4.782   1.093   1.492 -0.2832 -0.2472  0.0736
 4693TIP3    H135570   4.791   1.004   1.457 -1.8602 -0.2641 -0.3470
 4693TIP3    H235571   4.822   1.088   1.579  0.9925 -0.9708 -0.5112
 4694TIP3   OH235572   2.568   3.003  17.258 -0.3033 -0.1703  0.0958
 4694TIP3    H135573   2.653   3.045  17.246 -1.0438  1.3300 -0.2362
 4694TIP3    H235574   2.551   2.958  17.175  1.3007 -2.7871  1.0707
 4695TIP3   OH235575   1.603   5.452  15.835 -0.0693  0.2949  0.2545
 4695TIP3    H135576   1.530   5.512  15.830 -0.1159  0.2255  0.0910
 4695TIP3    H235577   1.601   5.418  15.924  1.4103  2.3625  1.1576
 4696TIP3   OH235578   3.377   0.625   0.631 -0.1887  0.0480  0.0552
 4696TIP3    H135579   3.470   0.644   0.635 -0.5212  1.7843  0.5064
 4696TIP3    H235580   3.355   0.629   0.537 -0.0233  0.8761  0.0444
 4697TIP3   OH235581   6.226   0.087  15.134  0.2123  0.3284 -0.4647
 4697TIP3    H135582   6.186   0.012  15.091 -0.3311 -0.0265  0.6142
 4697TIP3    H235583   6.156   0.152  15.138  0.7350  0.9731 -1.5625
 4698TIP3   OH235584   2.665   4.098   3.616  0.4882  0.6293  0.3551
 4698TIP3    H135585   2.746   4.145   3.632  0.6858  0.1413  0.8570
 4698TIP3    H235586   2.598   4.166   3.613  0.7087  0.9234  1.4803
 4699TIP3   OH235587   0.176   4.250  14.292  0.5507  0.1798  0.4715
 4699TIP3    H135588   0.189   4.197  14.370 -0.4223  0.3189  0.7475
 4699TIP3    H235589   0.124   4.195  14.234  0.6426  0.3538  0.2234
 4700TIP3   OH235590   3.999   1.187   3.638 -0.2498 -0.1814 -0.0576
 4700TIP3    H135591   3.938   1.174   3.710  1.2710 -1.9055  1.0095
 4700TIP3    H235592   3.949   1.166   3.559 -1.6721  0.8143  0.5395
 4701TIP3   OH235593   4.317   3.237   4.595  0.0167  0.0235 -0.1295
 4701TIP3    H135594   4.346   3.252   4.505 -1.5722  1.5157 -0.4425
 4701TIP3    H235595   4.389   3.189   4.635  1.1394  0.0750 -1.9534
 4702TIP3   OH235596   4.173   4.081  15.383 -0.5646 -0.0887 -0.6069
 4702TIP3    H135597   4.194   4.069  15.476 -1.5381  0.3373 -0.3138
 4702TIP3    H235598   4.247   4.129  15.347  0.4425 -1.4026 -0.3636
 4703TIP3   OH235599   2.464   0.008  12.740  0.0944  0.1516 -0.1940
 4703TIP3    H135600   2.529   0.069  12.706 -0.5445  1.8182  1.3838
 4703TIP3    H235601   2.503  -0.026  12.821  0.5116 -1.7412 -1.1276
 4704TIP3   OH235602   4.026   4.247   0.814 -0.2549 -0.4075 -0.0487
 4704TIP3    H135603   3.988   4.334   0.804 -1.0575 -0.8292 -0.7896
 4704TIP3    H235604   3.962   4.188   0.775 -0.7602 -1.5699  2.3555
 4705TIP3   OH235605   5.972   5.785  13.043 -0.2093 -0.6215  0.3756
 4705TIP3    H135606   5.905   5.717  13.053 -0.7190 -0.1104  0.5551
 4705TIP3    H235607   5.938   5.859  13.094  0.3348 -0.2365  0.1884
 4706TIP3   OH235608   4.290   6.102  13.158 -0.2018 -0.4389 -0.5383
 4706TIP3    H135609   4.385   6.087  13.157  0.0953  1.1333  0.2741
 4706TIP3    H235610   4.275   6.163  13.086 -0.4999 -0.1992 -0.2742
 4707TIP3   OH235611   3.085   6.160  13.010  0.5050  0.0124  0.2031
 4707TIP3    H135612   3.103   6.192  12.922 -1.1281  2.0048  0.5132
 4707TIP3    H235613   3.113   6.069  13.009 -2.0896 -0.9373 -3.2750
 4708TIP3   OH235614   3.877   1.447   3.256 -0.3547  0.0638 -0.0917
 4708TIP3    H135615   3.798   1.489   3.222 -0.2128 -1.5360 -2.6769
 4708TIP3    H235616   3.858   1.431   3.348 -2.0065  1.9634 -0.0354
 4709TIP3   OH235617   3.680   2.254  14.629 -0.9800  0.0805  0.5129
 4709TIP3    H135618   3.690   2.160  14.646 -2.4673 -0.6962 -2.3738
 4709TIP3    H235619   3.657   2.291  14.714  0.7756 -1.9147  1.9879
 4710TIP3   OH235620   5.038   0.168  12.887 -0.2661  0.0530  0.2527
 4710TIP3    H135621   5.038   0.200  12.977  1.6111 -0.0570  0.3319
 4710TIP3    H235622   5.002   0.079  12.894 -0.3094  0.1113  0.8699
 4711TIP3   OH235623   4.125   0.327  15.269  0.0516 -0.0016  0.2176
 4711TIP3    H135624   4.193   0.262  15.285 -0.4646 -1.0252 -1.4690
 4711TIP3    H235625   4.051   0.300  15.323  0.6190  0.5616  1.3096
 4712TIP3   OH235626   2.399   0.689   2.849 -0.1556  0.2208  0.3989
 4712TIP3    H135627   2.483   0.647   2.870  0.4869  1.2654 -0.0402
 4712TIP3    H235628   2.347   0.619   2.809  0.4576 -0.4676  0.7809
 4713TIP3   OH235629   6.199   3.924   0.790  0.3724 -0.0651  0.2626
 4713TIP3    H135630   6.202   3.828   0.782 -3.0446 -0.3073  0.0332
 4713TIP3    H235631   6.255   3.944   0.865  0.2424 -2.3936  1.0675
 4714TIP3   OH235632   5.314   2.743   5.042  0.0126  0.6085 -0.3143
 4714TIP3    H135633   5.391   2.691   5.017  0.4746  0.4005  1.3684
 4714TIP3    H235634   5.242   2.681   5.041 -0.1314  0.7715 -1.7692
 4715TIP3   OH235635   5.120   6.565  10.698 -0.4290 -0.5837  0.2784
 4715TIP3    H135636   5.155   6.648  10.732  0.7192 -1.3434  0.9959
 4715TIP3    H235637   5.194   6.522  10.656 -0.4900 -2.1328  1.6595
 4716TIP3   OH235638   6.244   2.022   6.257  0.2521 -0.3164 -0.1674
 4716TIP3    H135639   6.294   1.944   6.233 -0.1373 -0.7306  0.3247
 4716TIP3    H235640   6.172   2.024   6.193 -0.2381 -0.8713  0.3510
 4717TIP3   OH235641   2.273   3.016  16.725 -0.5675 -0.3563  0.2837
 4717TIP3    H135642   2.301   3.084  16.787 -0.7744  0.9228 -0.9757
 4717TIP3    H235643   2.354   2.975  16.696 -0.4094 -0.3602  0.7172
 4718TIP3   OH235644   0.017   0.678   3.362  0.3911 -0.6309  0.5900
 4718TIP3    H135645   0.009   0.759   3.311  1.0610 -2.3136 -2.3689
 4718TIP3    H235646   0.095   0.692   3.416  0.6469  0.6036 -0.0533
 4719TIP3   OH235647   5.281   5.573  12.417 -0.7921  0.2461 -0.4520
 4719TIP3    H135648   5.371   5.603  12.405 -0.6534  1.3264  2.4555
 4719TIP3    H235649   5.268   5.508  12.347  1.2320  2.0736 -2.7088
 4720TIP3   OH235650   5.637   3.473   5.379 -0.4719 -0.2095  0.1777
 4720TIP3    H135651   5.676   3.548   5.423 -0.2750 -0.2165  0.0166
 4720TIP3    H235652   5.685   3.397   5.413 -1.2515 -0.3485  0.9935
 4721TIP3   OH235653   4.064   0.452  13.619 -0.1441  0.6590 -0.6101
 4721TIP3    H135654   4.086   0.359  13.623 -1.7062  0.2914  1.9351
 4721TIP3    H235655   4.137   0.496  13.664 -0.2575  0.4495 -0.2171
 4722TIP3   OH235656   3.695   4.422   4.293 -0.0962  0.4209 -0.0560
 4722TIP3    H135657   3.675   4.434   4.200 -0.1142  0.8785  0.0049
 4722TIP3    H235658   3.635   4.482   4.338  0.6055  0.9539  0.1946
 4723TIP3   OH235659   6.410   1.796   4.447 -0.0434 -0.4279  0.2283
 4723TIP3    H135660   6.479   1.857   4.421 -0.2801 -0.9923 -1.9420
 4723TIP3    H235661   6.329   1.841   4.424 -0.2054 -1.8793 -2.4969
 4724TIP3   OH235662   1.377   3.786  10.521  0.0858 -0.0105 -0.1064
 4724TIP3    H135663   1.358   3.845  10.594  1.2082  0.0823  0.1338
 4724TIP3    H235664   1.452   3.827  10.477  1.2015 -1.4795  0.3444
 4725TIP3   OH235665   3.650   4.023  14.451 -0.0345  0.2527  0.0468
 4725TIP3    H135666   3.731   4.072  14.440  1.4262 -1.5790  1.7442
 4725TIP3    H235667   3.582   4.089  14.462  1.0008  1.8628 -2.3453
 4726TIP3   OH235668   0.513   0.415   4.381 -0.2196 -0.5812 -0.8572
 4726TIP3    H135669   0.568   0.430   4.457  0.0066  2.0206 -1.4405
 4726TIP3    H235670   0.423   0.423   4.414 -0.1739 -1.1024 -0.5934
 4727TIP3   OH235671   4.085   5.338   3.443 -0.1808 -0.1428 -0.2694
 4727TIP3    H135672   4.141   5.305   3.513 -0.8258 -0.6152  0.0387
 4727TIP3    H235673   4.003   5.289   3.453 -0.4260  0.0791 -1.1004
 4728TIP3   OH235674   3.995   3.180   5.834 -0.0173  0.0992  0.0236
 4728TIP3    H135675   4.075   3.232   5.828  2.6620 -3.6606 -0.1514
 4728TIP3    H235676   3.946   3.202   5.755  1.0418  2.1310 -0.1325
 4729TIP3   OH235677   4.301   6.634  12.689 -0.3291  0.0827  0.5288
 4729TIP3    H135678   4.371   6.698  12.677 -0.6022  0.1296 -1.0244
 4729TIP3    H235679   4.345   6.553  12.713  0.2690  0.1170 -0.4260
 4730TIP3   OH235680   4.976   1.177  12.007 -0.0688  0.2848  0.2650
 4730TIP3    H135681   4.887   1.153  11.985 -0.0324  0.2177  0.1916
 4730TIP3    H235682   5.015   1.096  12.041 -0.6010  0.7417  2.1060
 4731TIP3   OH235683   3.811   5.782  14.384  0.1893  0.0042  0.6063
 4731TIP3    H135684   3.774   5.814  14.466 -0.3849 -0.5693  0.5782
 4731TIP3    H235685   3.742   5.729  14.345 -0.1435  1.5000 -1.0086
 4732TIP3   OH235686   6.695   4.208   3.494  0.2811  0.7233  0.1917
 4732TIP3    H135687   6.719   4.188   3.404 -1.3370 -0.8584  0.0531
 4732TIP3    H235688   6.778   4.226   3.538  1.3126 -0.5870 -1.1234
 4733TIP3   OH235689   5.553   4.905   5.487 -0.7877  0.0681  0.5828
 4733TIP3    H135690   5.546   4.967   5.415  0.5071 -0.9500 -0.4610
 4733TIP3    H235691   5.588   4.956   5.560 -1.4347  0.9476  0.2940
 4734TIP3   OH235692   4.909   3.157   3.889 -0.0654 -0.3498 -0.8577
 4734TIP3    H135693   5.000   3.158   3.858 -0.7118  2.9710 -3.0823
 4734TIP3    H235694   4.906   3.228   3.954 -1.1363 -0.2029 -1.0618
 4735TIP3   OH235695   3.709   0.363   1.963  0.2400 -0.1612 -0.1899
 4735TIP3    H135696   3.637   0.307   1.991 -0.1876  1.2401  1.8146
 4735TIP3    H235697   3.667   0.444   1.934  0.9466  0.7965  1.3035
 4736TIP3   OH235698   5.615   6.749   1.237 -0.0248  0.3470  0.6622
 4736TIP3    H135699   5.633   6.669   1.286 -0.2388  0.7385  1.3849
 4736TIP3    H235700   5.686   6.754   1.173  0.4973  0.0568  1.2043
 4737TIP3   OH235701   3.106   4.369   5.408 -0.1340 -0.3316  0.0665
 4737TIP3    H135702   3.052   4.424   5.352 -2.8306 -2.1923  0.6036
 4737TIP3    H235703   3.135   4.298   5.351 -2.6349 -2.0661  0.7756
 4738TIP3   OH235704   2.078   5.095  12.916  0.5512  0.4016  0.2222
 4738TIP3    H135705   2.085   5.168  12.978 -1.6869  2.4278 -1.6957
 4738TIP3    H235706   2.034   5.026  12.966  2.8021  0.2332  2.1115
 4739TIP3   OH235707   3.084   5.699   2.459 -0.0551 -0.1817 -0.0160
 4739TIP3    H135708   3.059   5.688   2.367  0.0149 -1.4236  0.1019
 4739TIP3    H235709   3.041   5.627   2.505 -0.3722  0.6207  0.9926
 4740TIP3   OH235710   3.248   4.097   4.379  0.3993  0.2708 -0.5551
 4740TIP3    H135711   3.338   4.079   4.403 -0.0870  0.0691  1.2903
 4740TIP3    H235712   3.198   4.026   4.420 -0.5669  0.1754 -1.8515
 4741TIP3   OH235713   2.462   5.155  11.082 -0.1925  0.2068  0.3130
 4741TIP3    H135714   2.463   5.153  11.178  0.1816 -2.3059  0.3113
 4741TIP3    H235715   2.552   5.140  11.056 -0.3734  0.3788 -0.4564
 4742TIP3   OH235716   0.670   0.624  11.369 -0.1733  0.7216 -0.0343
 4742TIP3    H135717   0.757   0.613  11.407  0.6781  1.5862 -1.5854
 4742TIP3    H235718   0.687   0.669  11.286 -1.9367 -0.7240 -1.2417
 4743TIP3   OH235719   4.207   1.024  14.028 -0.8127  0.0215  0.8704
 4743TIP3    H135720   4.154   0.954  13.990 -2.5033  0.3524  2.4701
 4743TIP3    H235721   4.198   1.097  13.967 -0.8774 -0.4293  0.3314
 4744TIP3   OH235722   3.987   0.103  13.241  0.4555  0.6421 -0.3444
 4744TIP3    H135723   3.907   0.094  13.292  0.1477 -1.2254 -1.0984
 4744TIP3    H235724   4.036   0.023  13.259  0.3996 -0.0167 -2.8114
 4745TIP3   OH235725   6.584   6.682  12.096 -0.2026  0.3611 -0.5382
 4745TIP3    H135726   6.662   6.652  12.142 -0.4097 -0.3245 -0.6167
 4745TIP3    H235727   6.514   6.625  12.128 -0.0612 -1.2639 -2.8889
 4746TIP3   OH235728   2.437   4.339  16.474  0.9495  1.1591 -0.0951
 4746TIP3    H135729   2.356   4.380  16.444  1.3604  2.0279 -0.0334
 4746TIP3    H235730   2.411   4.288  16.551  0.7119  2.6493  0.8524
 4747TIP3   OH235731   1.773   4.142   5.915  0.0227 -0.4018  0.1691
 4747TIP3    H135732   1.771   4.236   5.900 -0.3171 -0.6409 -1.5154
 4747TIP3    H235733   1.753   4.131   6.008 -0.9368  1.1401  0.1694
 4748TIP3   OH235734   5.211   3.179   2.949 -1.0997  0.2168  0.2330
 4748TIP3    H135735   5.285   3.119   2.946  0.1132  1.6824 -1.2974
 4748TIP3    H235736   5.158   3.155   2.873 -0.4619  1.2147 -0.5485
 4749TIP3   OH235737   3.900   4.270  13.680 -0.2331  0.1012 -0.1604
 4749TIP3    H135738   3.806   4.257  13.691 -0.5358  1.9575 -0.2953
 4749TIP3    H235739   3.939   4.229  13.757 -1.4209  2.1207  1.6156
 4750TIP3   OH235740   0.027   4.978   1.746  0.0585  0.9096  0.1308
 4750TIP3    H135741   0.048   4.885   1.739 -2.2898  0.1902  1.7198
 4750TIP3    H235742  -0.042   4.992   1.681 -2.5679  0.4782  2.6680
 4751TIP3   OH235743   2.064   1.932  16.337 -0.8734  0.1691 -0.6254
 4751TIP3    H135744   1.997   1.972  16.281 -0.3498  1.5119 -0.3246
 4751TIP3    H235745   2.099   2.005  16.388 -0.3894 -0.8117  0.4761
 4752TIP3   OH235746   4.250   2.158  15.498 -0.0947  0.0003  0.0362
 4752TIP3    H135747   4.273   2.078  15.545  0.7179  0.7029  0.8640
 4752TIP3    H235748   4.290   2.146  15.411  1.4682  0.1904  0.6890
 4753TIP3   OH235749   5.768   1.714   1.570 -0.0867 -0.1924  0.3004
 4753TIP3    H135750   5.809   1.642   1.618 -0.3595 -1.7524 -1.6754
 4753TIP3    H235751   5.837   1.745   1.511 -0.8182 -0.8687 -0.9591
 4754TIP3   OH235752   1.150   1.684   4.118 -0.8416 -0.7222  0.0274
 4754TIP3    H135753   1.215   1.718   4.056 -1.9103  0.4328 -0.4951
 4754TIP3    H235754   1.190   1.604   4.153  0.9578  0.0534 -0.1204
 4755TIP3   OH235755   1.466   1.865  11.718  0.4045  0.2702  0.3164
 4755TIP3    H135756   1.505   1.884  11.633  1.5083 -1.6634  0.3384
 4755TIP3    H235757   1.465   1.949  11.763  1.4839  0.9915 -0.9368
 4756TIP3   OH235758   0.334   2.765  13.845 -0.9419 -0.0662 -0.1179
 4756TIP3    H135759   0.334   2.859  13.825 -0.8164 -0.0387  0.0055
 4756TIP3    H235760   0.426   2.745  13.859 -1.2441  0.7137  4.1261
 4757TIP3   OH235761   0.959   4.360  16.901 -0.3555  0.0918  0.2331
 4757TIP3    H135762   0.907   4.296  16.853  0.6474 -0.2529 -0.4190
 4757TIP3    H235763   0.921   4.445  16.877  0.8223  0.0316 -2.1502
 4758TIP3   OH235764   5.094   6.704   2.295  0.1982  0.6533  0.1183
 4758TIP3    H135765   5.142   6.682   2.214 -0.5825 -0.8696  0.0283
 4758TIP3    H235766   5.058   6.791   2.279 -1.6915 -0.4204 -2.0844
 4759TIP3   OH235767   0.978   4.135  14.383 -0.7587  0.2848 -0.2745
 4759TIP3    H135768   0.956   4.229  14.385  0.7967  0.6777  0.0637
 4759TIP3    H235769   0.953   4.107  14.295 -1.6391  0.9162 -0.2408
 4760TIP3   OH235770   2.379   0.758   4.468  0.0096  0.2565  0.4324
 4760TIP3    H135771   2.375   0.808   4.550  1.7999  0.8241  0.2152
 4760TIP3    H235772   2.473   0.746   4.453 -0.3401 -1.4494 -0.5783
 4761TIP3   OH235773   4.304   4.836  12.213  0.2475  0.3670 -0.1884
 4761TIP3    H135774   4.318   4.920  12.256  0.4871  0.0188  0.4225
 4761TIP3    H235775   4.390   4.813  12.177  0.0972  0.5558 -0.6784
 4762TIP3   OH235776   2.807   2.841  16.451  0.5325 -0.8768  0.2233
 4762TIP3    H135777   2.861   2.895  16.393 -1.8231 -0.7276 -2.0409
 4762TIP3    H235778   2.813   2.753  16.413  0.1436 -1.0882  0.6482
 4763TIP3   OH235779   2.046   0.827  15.920  0.8704 -0.3460  0.1695
 4763TIP3    H135780   1.955   0.797  15.927  1.0336 -0.7112  0.7778
 4763TIP3    H235781   2.095   0.750  15.893  0.9627 -0.0678 -0.4957
 4764TIP3   OH235782   0.351   3.796  15.044  0.5289 -0.0043  0.0322
 4764TIP3    H135783   0.392   3.763  15.124  1.9580  1.0693 -0.2160
 4764TIP3    H235784   0.319   3.883  15.067 -0.5704 -0.3526 -0.1237
 4765TIP3   OH235785   0.735   1.619  13.932 -0.7757  0.3919  0.8653
 4765TIP3    H135786   0.675   1.632  14.006 -0.9543 -3.0118  1.4360
 4765TIP3    H235787   0.677   1.608  13.856 -0.7514  0.1688  0.8788
 4766TIP3   OH235788   1.317   0.307  11.695 -0.6094  0.1151 -0.1435
 4766TIP3    H135789   1.375   0.303  11.771  0.3820 -0.0511 -0.8872
 4766TIP3    H235790   1.329   0.223  11.651 -2.0801 -0.2750  0.1419
 4767TIP3   OH235791   4.552   6.711   4.178 -0.4384  0.5643 -0.1406
 4767TIP3    H135792   4.573   6.774   4.109 -1.6376 -0.4707 -1.5172
 4767TIP3    H235793   4.631   6.708   4.233  0.3659  1.7847 -1.1779
 4768TIP3   OH235794   5.502   5.413   4.480  0.5739  0.1907  0.1234
 4768TIP3    H135795   5.549   5.447   4.556  1.9147  2.0190 -1.4231
 4768TIP3    H235796   5.426   5.470   4.472  0.8468  0.4976 -0.3318
 4769TIP3   OH235797   0.731   6.608  10.631 -0.0818 -0.2516 -0.5276
 4769TIP3    H135798   0.776   6.535  10.587 -0.9752  0.3268 -2.5325
 4769TIP3    H235799   0.734   6.586  10.724  1.8361 -1.6025 -0.8576
 4770TIP3   OH235800   3.663   5.804  11.374  0.8003  0.1088  0.2582
 4770TIP3    H135801   3.726   5.853  11.427  0.7631 -1.0342  1.4289
 4770TIP3    H235802   3.713   5.730  11.341 -0.0392 -1.2509  1.8437
 4771TIP3   OH235803   1.774   1.574   4.645 -0.6050 -0.2742 -0.4666
 4771TIP3    H135804   1.717   1.508   4.683 -0.8324  0.2321  0.0903
 4771TIP3    H235805   1.839   1.525   4.595 -1.2516 -0.8753 -0.7187
 4772TIP3   OH235806   5.040   2.963  15.712 -0.0944  0.9397 -0.4166
 4772TIP3    H135807   5.038   2.908  15.634  0.9264  0.3707 -0.0665
 4772TIP3    H235808   5.133   2.970  15.734 -0.4758 -1.4612  2.5109
 4773TIP3   OH235809   4.234   3.821  13.334  0.4769 -0.5841  0.0350
 4773TIP3    H135810   4.236   3.877  13.412  2.8712  1.1725 -1.1376
 4773TIP3    H235811   4.243   3.732  13.368  0.5091  0.0517  1.8066
 4774TIP3   OH235812   4.625   4.879  12.885  0.1633 -0.1135 -0.0223
 4774TIP3    H135813   4.686   4.938  12.928  0.1479 -1.4062  1.8990
 4774TIP3    H235814   4.539   4.901  12.921 -0.4576  1.1021 -2.0551
 4775TIP3   OH235815   2.160   3.872   4.661 -0.0946 -0.4204  0.1572
 4775TIP3    H135816   2.237   3.892   4.607  0.5261 -1.6047  0.5815
 4775TIP3    H235817   2.129   3.958   4.690  0.3497  0.1504 -0.9871
 4776TIP3   OH235818   0.023   5.369  11.725 -0.1216  0.0057 -0.0082
 4776TIP3    H135819   0.110   5.354  11.688 -0.6690  0.0237 -1.3645
 4776TIP3    H235820  -0.034   5.382  11.649 -1.2691  0.2536  0.8570
 4777TIP3   OH235821   4.606   4.330  14.121 -0.2529 -0.3685 -0.2062
 4777TIP3    H135822   4.639   4.307  14.034  1.5262  0.9158  0.0641
 4777TIP3    H235823   4.541   4.398  14.105  2.0076  1.8974 -0.5021
 4778TIP3   OH235824   3.457   5.003   2.730 -0.2688 -0.1254  0.0648
 4778TIP3    H135825   3.387   4.943   2.756 -0.8348  0.8478  0.8439
 4778TIP3    H235826   3.412   5.074   2.683  0.2283  0.3463  0.2952
 4779TIP3   OH235827   0.102   0.202   3.495  0.3501 -0.0501  0.2981
 4779TIP3    H135828   0.160   0.271   3.462  0.4471 -0.1798  0.1971
 4779TIP3    H235829   0.150   0.164   3.568  1.9769 -2.4689 -1.8563
 4780TIP3   OH235830   0.938   4.343  13.461 -0.1595 -0.5938 -0.0942
 4780TIP3    H135831   0.984   4.321  13.542 -0.4327 -0.0111  0.2249
 4780TIP3    H235832   0.944   4.438  13.455 -1.6149 -0.4691  0.1342
 4781TIP3   OH235833   0.243   4.909   0.669 -0.4239  0.4538 -0.2842
 4781TIP3    H135834   0.160   4.957   0.672 -0.6527  0.0109  0.9125
 4781TIP3    H235835   0.218   4.820   0.645 -0.1506  0.5999 -1.1389
 4782TIP3   OH235836   0.800   5.291   3.436  0.0640 -0.1895 -0.4120
 4782TIP3    H135837   0.739   5.222   3.410  0.5710 -0.6692 -0.3693
 4782TIP3    H235838   0.790   5.359   3.370  0.8599 -1.1008 -1.5269
 4783TIP3   OH235839   6.474   1.116  16.517 -0.0248  0.1320 -0.0656
 4783TIP3    H135840   6.558   1.158  16.536 -0.6906  0.4368  2.5620
 4783TIP3    H235841   6.409   1.171  16.562 -1.6244 -0.2581 -1.7839
 4784TIP3   OH235842   5.603   6.653   2.338 -0.1663  0.3781 -0.0346
 4784TIP3    H135843   5.576   6.571   2.380  0.1894 -1.2871 -2.8459
 4784TIP3    H235844   5.697   6.643   2.324 -0.4027  0.4808 -1.9395
 4785TIP3   OH235845   3.154   2.680   5.845  0.0386  0.6196 -0.0397
 4785TIP3    H135846   3.134   2.772   5.861 -1.2807  0.3758 -0.2217
 4785TIP3    H235847   3.112   2.660   5.761  1.7256  0.2649 -0.8631
 4786TIP3   OH235848   5.125   6.346   5.773  0.5603  0.1418  0.8062
 4786TIP3    H135849   5.117   6.274   5.710  0.0305  1.7296 -1.0339
 4786TIP3    H235850   5.055   6.330   5.836 -0.2689 -0.3561 -0.2068
 4787TIP3   OH235851   0.368   5.821   5.576  0.0092  0.0122  0.2710
 4787TIP3    H135852   0.283   5.827   5.619 -0.1338 -0.8261  0.1161
 4787TIP3    H235853   0.359   5.876   5.498 -0.5837 -0.5026 -0.0381
 4788TIP3   OH235854   4.905   0.395  12.494 -0.2256 -0.0179 -0.2793
 4788TIP3    H135855   4.946   0.407  12.408  0.6869  1.6026  0.3415
 4788TIP3    H235856   4.821   0.440  12.487 -1.9755 -3.1854 -1.4925
 4789TIP3   OH235857   5.384   5.716   2.506  0.0495  0.1903  0.0612
 4789TIP3    H135858   5.441   5.670   2.568  1.1592 -1.0703 -1.7936
 4789TIP3    H235859   5.299   5.720   2.550  0.8925 -0.2757  1.8120
 4790TIP3   OH235860   5.777   5.154   1.593 -0.0679  0.3965 -0.0125
 4790TIP3    H135861   5.833   5.181   1.665  1.6584 -0.3810 -0.9946
 4790TIP3    H235862   5.811   5.201   1.517 -2.8013  2.3800 -0.1258
 4791TIP3   OH235863   0.249   2.635  16.921  0.1852 -0.0502 -0.2133
 4791TIP3    H135864   0.315   2.702  16.902  1.8803 -1.4698  0.3867
 4791TIP3    H235865   0.258   2.572  16.850 -1.7234  0.5500 -1.0252
 4792TIP3   OH235866   3.158   3.599   3.495  0.0023 -0.1144  0.2172
 4792TIP3    H135867   3.132   3.691   3.492  1.5199  0.3353 -0.4520
 4792TIP3    H235868   3.183   3.584   3.586 -0.0591  0.1928  0.2870
 4793TIP3   OH235869   5.664   2.268  11.205  0.5536  0.1053 -0.1352
 4793TIP3    H135870   5.718   2.201  11.248  0.1106 -0.0030  0.2698
 4793TIP3    H235871   5.706   2.283  11.121  0.6294 -0.7248 -0.2514
 4794TIP3   OH235872   6.682   4.829   5.821  0.1686  0.3505 -0.1156
 4794TIP3    H135873   6.705   4.893   5.753  0.8054  0.4629  0.1946
 4794TIP3    H235874   6.757   4.830   5.880  0.5291 -1.2263 -0.5060
 4795TIP3   OH235875   4.252   5.458   1.308  0.4528  0.0979 -0.8204
 4795TIP3    H135876   4.164   5.487   1.333 -0.1838 -1.3090 -1.3118
 4795TIP3    H235877   4.310   5.503   1.368 -0.7948 -0.7773  1.1361
 4796TIP3   OH235878   5.166   3.661  13.519 -0.5313  0.0733  0.6404
 4796TIP3    H135879   5.202   3.713  13.447 -1.2652 -0.0583  0.1710
 4796TIP3    H235880   5.228   3.589  13.530  0.1561  0.6917  0.8683
 4797TIP3   OH235881   6.763   0.902  11.828  0.2086 -0.1214  0.3803
 4797TIP3    H135882   6.831   0.835  11.829 -0.4125 -0.7519  1.5928
 4797TIP3    H235883   6.693   0.864  11.776  0.0807 -0.1729  0.5934
 4798TIP3   OH235884   3.097   0.697  13.339 -0.7858  0.3580  0.3957
 4798TIP3    H135885   3.078   0.624  13.280 -0.4715 -0.8205  1.6999
 4798TIP3    H235886   3.182   0.676  13.378 -0.5863  1.5344  0.6406
 4799TIP3   OH235887   4.640   2.197  11.666  0.4547  0.2728  0.2378
 4799TIP3    H135888   4.607   2.286  11.661  0.4889  0.2750  0.0120
 4799TIP3    H235889   4.630   2.172  11.758 -1.0685 -0.0646  0.0116
 4800TIP3   OH235890   2.224   0.508   1.744 -0.4963  0.1948  0.6312
 4800TIP3    H135891   2.265   0.541   1.825 -1.1142 -0.8121  1.3815
 4800TIP3    H235892   2.196   0.420   1.766 -0.1186 -0.3348 -0.9032
 4801TIP3   OH235893   5.825   2.050  16.089 -0.1571 -0.0525 -0.4204
 4801TIP3    H135894   5.791   2.124  16.139 -0.6119 -0.9026  0.5603
 4801TIP3    H235895   5.754   1.986  16.090  0.3439 -0.6308 -0.9873
 4802TIP3   OH235896   5.792   1.146   1.138  0.2144 -0.2898  0.1438
 4802TIP3    H135897   5.864   1.086   1.115 -1.5184 -1.9496 -1.2882
 4802TIP3    H235898   5.734   1.144   1.062 -0.9505  1.6533  0.9243
 4803TIP3   OH235899   2.886   3.824   4.698  1.0131  0.2872  0.9110
 4803TIP3    H135900   2.794   3.819   4.674  0.8491  1.2112  1.3094
 4803TIP3    H235901   2.916   3.733   4.696 -0.5713 -0.3701  3.4072
 4804TIP3   OH235902   1.709   1.402   1.884 -0.1224 -0.3942 -0.1489
 4804TIP3    H135903   1.626   1.415   1.931  1.3895  2.6925  2.0102
 4804TIP3    H235904   1.768   1.364   1.949  1.2308  1.2806 -0.3109
 4805TIP3   OH235905   1.293   2.563  11.175  0.8882 -0.0748  0.0546
 4805TIP3    H135906   1.227   2.583  11.108  1.8287 -0.5854 -1.0723
 4805TIP3    H235907   1.255   2.594  11.257 -0.8446 -0.5821 -0.5192
 4806TIP3   OH235908   1.670   2.380   2.926  1.1942  0.0948 -0.1326
 4806TIP3    H135909   1.737   2.404   2.863  1.4997 -0.3091  0.0263
 4806TIP3    H235910   1.716   2.378   3.010  1.2497 -1.2166 -0.1629
 4807TIP3   OH235911   3.141   4.710  12.033 -0.5513 -0.4599  0.0827
 4807TIP3    H135912   3.098   4.625  12.041 -0.2943 -0.5748  0.2775
 4807TIP3    H235913   3.198   4.701  11.957 -0.7494 -0.3608 -0.0779
 4808TIP3   OH235914   6.614   2.441   4.555  0.2850 -0.3895  0.3154
 4808TIP3    H135915   6.609   2.449   4.459 -1.9802  0.0824  0.4171
 4808TIP3    H235916   6.613   2.532   4.586  1.7207 -0.5172  0.8041
 4809TIP3   OH235917   2.286   2.200  15.928 -0.3917 -0.1319  0.4306
 4809TIP3    H135918   2.313   2.109  15.912 -0.4725 -0.5368  2.2802
 4809TIP3    H235919   2.362   2.240  15.971 -0.3910  0.6681 -0.2926
 4810TIP3   OH235920   3.566   3.023  11.345 -0.0447  0.6088 -0.2752
 4810TIP3    H135921   3.604   3.110  11.357 -0.7187  1.0687 -1.3552
 4810TIP3    H235922   3.615   2.985  11.272 -0.1628  0.3211 -0.2064
 4811TIP3   OH235923   2.835   2.588  12.130  0.4451  0.4661 -0.1027
 4811TIP3    H135924   2.755   2.598  12.078 -1.0296 -2.4545  1.3931
 4811TIP3    H235925   2.807   2.610  12.219  1.8075  1.0862  0.1908
 4812TIP3   OH235926   3.976   6.372  13.897 -0.1458 -0.8813 -0.2493
 4812TIP3    H135927   3.906   6.429  13.866  0.0180 -0.1528  0.6877
 4812TIP3    H235928   4.056   6.408  13.858  0.2250  0.7656  1.8655
 4813TIP3   OH235929   1.016   3.723   2.969  0.0514  0.6637 -0.5242
 4813TIP3    H135930   0.989   3.698   2.880 -0.8459  1.6186 -0.5420
 4813TIP3    H235931   1.076   3.796   2.956 -0.2735  0.9655 -0.3443
 4814TIP3   OH235932   3.775   2.455  13.531 -0.4359  0.5743  0.0981
 4814TIP3    H135933   3.698   2.511  13.543 -0.7822  0.8421 -2.7585
 4814TIP3    H235934   3.849   2.511  13.553 -0.9184  1.2433  0.0610
 4815TIP3   OH235935   0.160   2.122  16.505  0.4445  0.0922  0.4996
 4815TIP3    H135936   0.253   2.114  16.528  0.6219 -3.9877 -0.7831
 4815TIP3    H235937   0.161   2.154  16.415  0.2252  4.2312  1.7446
 4816TIP3   OH235938   1.172   3.875   1.369  0.0654 -0.3552  0.3879
 4816TIP3    H135939   1.149   3.892   1.461 -0.1356  0.8005  0.1452
 4816TIP3    H235940   1.261   3.840   1.372 -0.9056 -2.9796  1.2054
 4817TIP3   OH235941   3.825   2.491   5.201 -0.3600  0.1914 -1.3356
 4817TIP3    H135942   3.914   2.499   5.166 -0.7498 -0.3193 -2.4752
 4817TIP3    H235943   3.838   2.483   5.295  1.0615 -3.3012 -1.6777
 4818TIP3   OH235944   0.295   1.001   2.506 -0.4029 -0.0468  0.2869
 4818TIP3    H135945   0.226   0.980   2.444 -0.4596  1.3096 -0.1465
 4818TIP3    H235946   0.377   0.980   2.460 -0.4517  0.7774 -0.1990
 4819TIP3   OH235947   5.015   4.867   1.318 -0.4141 -0.5938 -0.1018
 4819TIP3    H135948   4.969   4.912   1.389  0.0787  0.7672 -0.6203
 4819TIP3    H235949   5.038   4.782   1.355 -0.8857 -0.2188  1.0973
 4820TIP3   OH235950   3.210   3.911  15.564  0.2141 -0.0628 -0.2422
 4820TIP3    H135951   3.257   3.885  15.484  0.3186 -0.8956  0.0856
 4820TIP3    H235952   3.194   4.005  15.552  1.5312  0.1358 -0.5765
 4821TIP3   OH235953   5.593   4.167  13.686  0.7576 -0.0153 -0.2469
 4821TIP3    H135954   5.681   4.159  13.650  0.3942 -2.8394 -0.7147
 4821TIP3    H235955   5.605   4.162  13.780  1.0854 -0.8709 -0.3256
 4822TIP3   OH235956   2.358   5.888   1.417  0.0753  0.3867 -0.3395
 4822TIP3    H135957   2.331   5.967   1.464 -2.3589  0.7628 -2.1539
 4822TIP3    H235958   2.315   5.896   1.332  2.4254 -1.3461 -1.7950
 4823TIP3   OH235959   2.401   6.658   6.052 -0.4210 -0.3219  0.2717
 4823TIP3    H135960   2.430   6.749   6.053 -0.3130 -0.2713 -1.9212
 4823TIP3    H235961   2.306   6.663   6.061 -0.2696 -0.1469  2.0658
 4824TIP3   OH235962   0.387   4.300  13.394 -0.1875  0.0621  0.0377
 4824TIP3    H135963   0.328   4.354  13.447  0.4668  1.0680 -0.2236
 4824TIP3    H235964   0.472   4.308  13.436  0.4244  1.1858 -1.3341
 4825TIP3   OH235965   2.295   4.295   1.388  0.1231 -0.3317 -0.2287
 4825TIP3    H135966   2.267   4.203   1.383  0.2038 -0.2873 -2.2215
 4825TIP3    H235967   2.301   4.323   1.297  2.4184  0.9742  0.2599
 4826TIP3   OH235968   0.565   2.272   5.228  0.0186  0.3438 -0.5260
 4826TIP3    H135969   0.543   2.283   5.136 -1.3908  3.4396  0.0723
 4826TIP3    H235970   0.499   2.322   5.275  1.4966  0.0008  2.1048
 4827TIP3   OH235971   3.781   5.737   6.869 -0.3599  0.2241 -0.4491
 4827TIP3    H135972   3.689   5.744   6.847 -0.5510 -0.4174  0.1247
 4827TIP3    H235973   3.820   5.818   6.835 -1.3075  0.9781  0.2227
 4828TIP3   OH235974   1.068   2.144  14.210  0.5031  0.4110  0.1903
 4828TIP3    H135975   1.004   2.116  14.276 -0.2003  0.5916 -0.4105
 4828TIP3    H235976   1.100   2.062  14.173  0.5636  0.3213  0.4361
 4829TIP3   OH235977   1.943   2.011   4.126  0.1328  0.0938  0.5552
 4829TIP3    H135978   1.873   2.025   4.062  2.2841 -2.1859 -2.5660
 4829TIP3    H235979   1.994   2.092   4.124 -0.8808  0.7704  0.9290
 4830TIP3   OH235980   3.377   5.126  16.646  0.4409  0.1846  0.4646
 4830TIP3    H135981   3.410   5.148  16.733 -1.7547  1.2589  1.0996
 4830TIP3    H235982   3.410   5.195  16.589  3.6792 -1.6522 -0.1089
 4831TIP3   OH235983   0.729   4.354  15.114  0.4037 -0.0120 -0.1981
 4831TIP3    H135984   0.752   4.302  15.036  0.3497 -2.8686  1.5411
 4831TIP3    H235985   0.648   4.398  15.089  1.0441  0.1813 -2.1648
 4832TIP3   OH235986   0.810   2.051  14.017 -0.4457 -0.1137 -0.0530
 4832TIP3    H135987   0.899   2.020  14.036 -0.7175 -1.6879 -1.1638
 4832TIP3    H235988   0.757   2.018  14.089 -0.3353 -0.2267 -0.0238
 4833TIP3   OH235989   2.338   5.028  12.906  0.4520 -0.0577 -0.0880
 4833TIP3    H135990   2.321   4.939  12.937  1.6399 -0.5071 -0.6835
 4833TIP3    H235991   2.251   5.069  12.902  0.1415  0.2339  4.2235
 4834TIP3   OH235992   4.022   0.720   1.784  0.4627  0.5322  0.7458
 4834TIP3    H135993   4.018   0.626   1.764  1.8761  0.5268  0.4140
 4834TIP3    H235994   3.958   0.732   1.854 -2.2305 -0.0431 -1.4447
 4835TIP3   OH235995   5.477   1.048  11.807 -0.3706  0.4494  0.0399
 4835TIP3    H135996   5.478   1.046  11.903  0.5969  0.3343  0.0445
 4835TIP3    H235997   5.491   0.957  11.782  0.7804  0.6753 -0.1894
 4836TIP3   OH235998   4.790   3.503  15.705 -0.0892 -0.9352  0.0708
 4836TIP3    H135999   4.771   3.410  15.702  0.3034 -1.0123 -0.2375
 4836TIP3    H236000   4.868   3.513  15.650  0.0948 -0.4835  0.4052
 4837TIP3   OH236001   3.608   1.560  15.209  0.1494 -1.2367 -0.0889
 4837TIP3    H136002   3.606   1.466  15.229  1.3281 -1.3748 -0.5805
 4837TIP3    H236003   3.694   1.575  15.170  0.7464  0.4152  1.7196
 4838TIP3   OH236004   6.670   0.530   0.056  0.1395 -0.2003 -0.1093
 4838TIP3    H136005   6.626   0.615   0.059 -1.7893 -1.1462 -0.1893
 4838TIP3    H236006   6.759   0.548   0.085 -0.7160  1.5563  1.6645
 4839TIP3   OH236007   3.806   6.437   0.010  0.4283 -0.1038  0.0002
 4839TIP3    H136008   3.891   6.436  -0.034  0.2295 -2.7379 -0.5067
 4839TIP3    H236009   3.745   6.401  -0.055 -0.8374  0.5548  0.7864
 4840TIP3   OH236010   6.177   3.855  16.136  0.6013  0.6651 -0.2202
 4840TIP3    H136011   6.166   3.928  16.198 -3.4502 -0.1772  0.2717
 4840TIP3    H236012   6.111   3.870  16.069  1.0825 -1.4642 -1.2484
 4841TIP3   OH236013   1.840   3.327   2.319  0.0817 -0.7051 -0.0059
 4841TIP3    H136014   1.863   3.399   2.260 -0.4671 -1.0876 -0.7030
 4841TIP3    H236015   1.811   3.370   2.399 -1.4678 -0.1041 -0.8562
 4842TIP3   OH236016   4.595   0.767  15.061 -0.8296  0.0919  0.2901
 4842TIP3    H136017   4.632   0.849  15.094  0.1662  0.4181 -1.4810
 4842TIP3    H236018   4.582   0.713  15.138 -0.0345  1.3504  1.3368
 4843TIP3   OH236019   5.480   0.406  13.056  0.2370 -0.0805 -0.4984
 4843TIP3    H136020   5.505   0.346  13.126 -0.6329  1.1539  0.9054
 4843TIP3    H236021   5.423   0.470  13.097  0.9198  1.5905 -1.9878
 4844TIP3   OH236022   4.581   3.867  12.966 -0.3155  0.2647 -0.0251
 4844TIP3    H136023   4.557   3.860  13.059 -1.0622  1.2590 -0.1285
 4844TIP3    H236024   4.545   3.787  12.927 -0.2257 -0.0377  0.4968
 4845TIP3   OH236025   0.494   1.805   4.073  0.2169 -0.0069 -0.1906
 4845TIP3    H136026   0.519   1.733   4.130  0.0927 -1.3442 -1.7453
 4845TIP3    H236027   0.553   1.876   4.096  1.7923 -1.3022 -0.0639
 4846TIP3   OH236028   5.124   0.529   1.000 -0.3756  0.1313 -0.2866
 4846TIP3    H136029   5.105   0.438   1.020  0.6364  0.0500  0.3476
 4846TIP3    H236030   5.094   0.541   0.909 -2.7770 -0.1501  0.3870
 4847TIP3   OH236031   1.345   2.350  14.938 -0.0623  0.1008 -0.5383
 4847TIP3    H136032   1.366   2.406  15.013  0.1509 -0.4786 -0.1552
 4847TIP3    H236033   1.294   2.406  14.879  0.9184  0.9650 -0.5868
 4848TIP3   OH236034   2.021   0.413   1.225 -0.6193  0.0493  0.0978
 4848TIP3    H136035   2.075   0.379   1.297  0.2900 -0.7033 -0.9053
 4848TIP3    H236036   2.079   0.472   1.177 -1.8657  2.2786  1.1882
 4849TIP3   OH236037   4.607   1.580  13.362 -0.6922 -0.6502  0.1527
 4849TIP3    H136038   4.519   1.565  13.397  0.0279  0.4594  2.6731
 4849TIP3    H236039   4.659   1.507  13.396  0.0160  0.4225  1.4655
 4850TIP3   OH236040   0.237   0.234  16.056  0.1265  0.2419  0.3331
 4850TIP3    H136041   0.164   0.294  16.045 -0.5478 -0.0223  2.7427
 4850TIP3    H236042   0.197   0.147  16.059  0.8598 -0.1672 -1.0195
 4851TIP3   OH236043   3.670   4.382   4.026  0.1363  0.0962 -0.1386
 4851TIP3    H136044   3.745   4.406   3.971  0.7115 -0.1973  0.5004
 4851TIP3    H236045   3.606   4.452   4.011  0.6436  0.4951 -0.4875
 4852TIP3   OH236046   5.461   3.368  10.609 -0.0120 -0.4705 -0.0210
 4852TIP3    H136047   5.551   3.369  10.577  0.9061  0.0614  2.4124
 4852TIP3    H236048   5.434   3.276  10.600  0.8560 -0.6921 -0.5050
 4853TIP3   OH236049   3.642   4.583  15.993  0.1469 -0.3500 -0.2786
 4853TIP3    H136050   3.724   4.595  15.945 -1.6980  0.8600 -3.4927
 4853TIP3    H236051   3.600   4.507  15.951 -0.9398 -0.1602  0.4029
 4854TIP3   OH236052   0.509   4.717  15.898  0.2718  0.3386  0.5757
 4854TIP3    H136053   0.432   4.661  15.889  1.4040 -1.5301  1.7920
 4854TIP3    H236054   0.474   4.803  15.922 -1.4452 -0.2650  0.3756
 4855TIP3   OH236055   0.277   0.195  16.906 -0.2887 -0.1325 -0.1487
 4855TIP3    H136056   0.243   0.283  16.889 -2.6423 -1.2372 -1.6546
 4855TIP3    H236057   0.199   0.142  16.920  1.1096 -1.7911  2.0429
 4856TIP3   OH236058   3.803   0.755  12.902 -0.3490  0.0050  0.0815
 4856TIP3    H136059   3.842   0.840  12.924  1.9070  0.0053 -3.1352
 4856TIP3    H236060   3.720   0.777  12.860 -0.1616  0.5644 -0.0056
 4857TIP3   OH236061   6.021   4.167  13.785 -0.3408  0.4945 -0.1594
 4857TIP3    H136062   6.007   4.096  13.723  0.0722 -0.1895  0.5032
 4857TIP3    H236063   5.935   4.180  13.826 -0.4028  0.3260 -0.2320
 4858TIP3   OH236064   3.925   4.005   4.719  0.2066 -0.0944 -0.1876
 4858TIP3    H136065   3.990   3.966   4.661  0.2862 -0.0345 -0.1394
 4858TIP3    H236066   3.853   4.030   4.662  0.9280  1.4050 -0.5088
 4859TIP3   OH236067   0.149   0.184   1.297 -0.0168  0.3940  0.1466
 4859TIP3    H136068   0.234   0.192   1.342  0.7662  0.3402 -1.2677
 4859TIP3    H236069   0.109   0.106   1.336 -0.0602  1.2001  1.8132
 4860TIP3   OH236070   5.551   6.520  13.394  0.3230  0.0452 -0.4646
 4860TIP3    H136071   5.484   6.572  13.350 -0.7122 -0.7062  0.1876
 4860TIP3    H236072   5.584   6.461  13.327  1.2921  1.2862 -1.1336
 4861TIP3   OH236073   4.895   2.855  12.920  0.0280 -0.1383  0.9915
 4861TIP3    H136074   4.889   2.879  13.012  0.1937  1.0732  0.7039
 4861TIP3    H236075   4.820   2.899  12.879 -0.5979 -1.4326  0.6853
 4862TIP3   OH236076   5.120   4.961   4.149  0.7330  0.7487  0.2711
 4862TIP3    H136077   5.130   4.905   4.072  0.3595 -0.2654  0.9402
 4862TIP3    H236078   5.160   4.911   4.221 -1.8645  0.1242  1.4159
 4863TIP3   OH236079   3.630   6.676  16.979 -0.3727  0.0207  0.1355
 4863TIP3    H136080   3.535   6.665  16.972 -0.4533  1.2792 -1.2579
 4863TIP3    H236081   3.662   6.665  16.889  0.6487  0.7952  0.3880
 4864TIP3   OH236082   1.385   1.802   1.558  0.0843 -0.0150 -0.4034
 4864TIP3    H136083   1.443   1.811   1.633 -0.6238  1.4284  0.0064
 4864TIP3    H236084   1.299   1.782   1.595 -0.0485 -0.3888 -0.8948
 4865TIP3   OH236085   5.970   2.131   0.011 -0.0801  0.1157  0.6183
 4865TIP3    H136086   5.906   2.189  -0.030  1.0966  1.3176  0.4377
 4865TIP3    H236087   6.027   2.102  -0.061 -0.9605 -1.7500  0.5978
 4866TIP3   OH236088   1.970   0.109   4.076  0.2597  0.1469  0.1923
 4866TIP3    H136089   2.019   0.030   4.053  1.1836  0.7134  0.1563
 4866TIP3    H236090   1.881   0.079   4.093  0.4883 -0.8287 -0.3075
 4867TIP3   OH236091   6.815   3.064   2.526 -0.1663 -0.0596 -0.2528
 4867TIP3    H136092   6.825   3.142   2.472 -1.2319  0.7599  0.6801
 4867TIP3    H236093   6.901   3.051   2.566  0.0038  0.6592 -0.3827
 4868TIP3   OH236094   5.573   6.791  12.902  0.0894  0.1141  0.2377
 4868TIP3    H136095   5.532   6.772  12.986 -1.4116 -2.7432 -1.0115
 4868TIP3    H236096   5.500   6.800  12.841  1.0912 -2.9919 -1.6565
 4869TIP3   OH236097   0.646   1.577   4.170  0.5252 -0.4094 -0.4434
 4869TIP3    H136098   0.727   1.629   4.174  0.1559  0.0916  0.8655
 4869TIP3    H236099   0.676   1.486   4.171  1.0523 -0.2482  1.3213
 4870TIP3   OH236100   3.800   1.503  13.958 -1.0843 -0.3574 -0.1477
 4870TIP3    H136101   3.874   1.454  13.993 -0.6621  0.4752  0.1710
 4870TIP3    H236102   3.725   1.473  14.008 -0.6727 -0.0076  0.7057
 4871TIP3   OH236103   1.780   6.594  12.672 -0.5967 -0.2877  0.7079
 4871TIP3    H136104   1.812   6.505  12.682  0.5498 -0.3274 -2.1935
 4871TIP3    H236105   1.848   6.648  12.712 -0.5629 -0.6564  1.1524
 4872TIP3   OH236106   2.023   0.887  14.557  0.1396  0.2240 -0.0391
 4872TIP3    H136107   2.055   0.833  14.630  0.2939  0.4934  0.0953
 4872TIP3    H236108   1.980   0.961  14.600  0.1118  0.3140 -0.2234
 4873TIP3   OH236109   6.697   3.647  16.311 -0.0163 -0.4210 -0.1184
 4873TIP3    H136110   6.714   3.573  16.369 -2.0861 -0.0806  1.0193
 4873TIP3    H236111   6.708   3.611  16.223  1.9254 -1.2766  0.4168
 4874TIP3   OH236112   0.017   4.124   3.265 -0.7948  0.2891 -0.1881
 4874TIP3    H136113   0.090   4.092   3.319 -0.4327 -0.0942 -0.8952
 4874TIP3    H236114   0.056   4.144   3.180 -1.8819 -2.3457 -1.4257
 4875TIP3   OH236115   3.385   6.405   2.552 -0.5036 -0.1257 -0.1662
 4875TIP3    H136116   3.435   6.373   2.627 -0.9740 -0.6698 -0.0768
 4875TIP3    H236117   3.393   6.500   2.556 -0.0629 -0.1791  0.2495
 4876TIP3   OH236118   4.209   3.367  14.870 -0.1034 -0.0456  0.4865
 4876TIP3    H136119   4.232   3.305  14.801 -1.2186 -0.4931  0.4968
 4876TIP3    H236120   4.272   3.350  14.940 -0.8682 -1.7562  0.8144
 4877TIP3   OH236121   6.017   1.133   4.000 -0.3062  0.6949 -0.3734
 4877TIP3    H136122   6.051   1.044   4.002  1.0687  1.2028  1.3669
 4877TIP3    H236123   5.937   1.127   3.948  0.7693 -1.1592 -1.9646
 4878TIP3   OH236124   4.391   6.467   5.226  0.6629 -0.4304  0.2565
 4878TIP3    H136125   4.404   6.551   5.180  0.1630 -0.0710  0.7561
 4878TIP3    H236126   4.443   6.475   5.305 -0.5886  0.0419  1.0672
 4879TIP3   OH236127   5.065   1.142   5.733  0.0836  0.1124 -0.0958
 4879TIP3    H136128   4.980   1.178   5.758 -0.8561 -0.5402 -2.1009
 4879TIP3    H236129   5.044   1.063   5.683  1.7735  0.7267 -1.9162
 4880TIP3   OH236130   4.758   3.070  11.812  0.0764 -0.0056  0.4463
 4880TIP3    H136131   4.843   3.104  11.783 -0.7187  1.2582 -0.5183
 4880TIP3    H236132   4.765   2.976  11.801  1.8276 -0.0832  1.7057
 4881TIP3   OH236133   4.931   2.733  11.112  0.0521 -0.1387 -0.3135
 4881TIP3    H136134   4.855   2.759  11.164  0.5490 -0.1357  0.4361
 4881TIP3    H236135   4.894   2.689  11.035 -0.7010 -0.1765  0.0579
 4882TIP3   OH236136   6.517   2.364   4.789  0.1137  0.2876 -0.3696
 4882TIP3    H136137   6.596   2.338   4.742 -0.8258 -0.0372 -1.8754
 4882TIP3    H236138   6.445   2.340   4.729 -1.1760 -0.2911  1.3256
 4883TIP3   OH236139   5.811   2.518  17.091 -0.8036 -0.0014 -0.0788
 4883TIP3    H136140   5.740   2.546  17.033 -0.3143  0.0635 -0.6542
 4883TIP3    H236141   5.883   2.578  17.073  0.4548 -1.8713 -1.7224
 4884TIP3   OH236142   3.355   2.366  15.477  0.0594 -0.3236 -0.0338
 4884TIP3    H136143   3.405   2.293  15.513  0.1828 -0.5482 -0.6516
 4884TIP3    H236144   3.268   2.328  15.459 -0.1818 -0.0659  0.5537
 4885TIP3   OH236145   0.878   1.155   3.728  0.1517 -0.0017 -0.1620
 4885TIP3    H136146   0.963   1.121   3.755 -0.1017 -0.8206 -0.3417
 4885TIP3    H236147   0.858   1.108   3.647 -1.0835 -0.8829  0.6106
 4886TIP3   OH236148   1.044   3.065   2.387 -0.2674  0.0674  0.5309
 4886TIP3    H136149   1.137   3.045   2.378  0.2923  2.1144  1.0787
 4886TIP3    H236150   1.036   3.104   2.474 -1.6975 -0.2874  0.5847
 4887TIP3   OH236151   2.003   6.788  12.234 -0.3869  0.2292 -0.1524
 4887TIP3    H136152   2.062   6.838  12.291  0.2689  0.2368 -0.8249
 4887TIP3    H236153   2.041   6.700  12.231 -0.6018  0.1404 -0.3152
 4888TIP3   OH236154   3.229   0.621  14.598 -0.3065 -0.4705 -0.0302
 4888TIP3    H136155   3.241   0.527  14.593  0.6811 -0.3001 -1.5497
 4888TIP3    H236156   3.307   0.658  14.556 -0.1574  1.0570  1.4599
 4889TIP3   OH236157   4.248   6.655  10.765 -0.6454  0.2511 -0.1891
 4889TIP3    H136158   4.186   6.723  10.741  0.1433  0.7852 -0.7423
 4889TIP3    H236159   4.200   6.600  10.828 -1.5850  0.7871 -0.4202
 4890TIP3   OH236160   3.412   6.012  11.299  0.6548 -0.5007 -0.9588
 4890TIP3    H136161   3.439   6.036  11.210 -0.5501  0.3178 -1.1288
 4890TIP3    H236162   3.325   6.050  11.309  0.5000 -1.1355  0.3543
 4891TIP3   OH236163   0.413   1.665   2.556  0.2013 -0.2359 -0.2932
 4891TIP3    H136164   0.424   1.756   2.584  1.0539 -0.5977  0.6248
 4891TIP3    H236165   0.482   1.652   2.491 -1.4391  0.4454 -2.2730
 4892TIP3   OH236166   1.472   0.251   3.665 -0.5786  0.6883  0.3763
 4892TIP3    H136167   1.493   0.264   3.758 -1.1807  1.6076  0.3926
 4892TIP3    H236168   1.403   0.185   3.665  2.1740 -2.4676  0.3193
 4893TIP3   OH236169   3.497   2.004   3.011  0.3537  0.6309  0.1130
 4893TIP3    H136170   3.458   1.931   2.963  1.6301  0.0727 -0.1225
 4893TIP3    H236171   3.575   1.967   3.052 -0.8070  0.9830  2.9364
 4894TIP3   OH236172   1.502   5.506   1.599 -0.2452 -0.5142 -0.2971
 4894TIP3    H136173   1.515   5.550   1.515 -0.1503  0.0169 -0.0111
 4894TIP3    H236174   1.540   5.565   1.663  1.7492 -1.9519 -0.0678
 4895TIP3   OH236175   4.806   6.061  13.129 -0.4969 -0.0387  0.0147
 4895TIP3    H136176   4.869   5.990  13.125 -0.2788  0.2065 -1.0300
 4895TIP3    H236177   4.726   6.021  13.163  0.4354 -0.1784  2.2047
 4896TIP3   OH236178   1.062   1.604  12.348  0.0993  0.1823  0.2990
 4896TIP3    H136179   1.073   1.554  12.267 -0.9855  0.9755 -0.3635
 4896TIP3    H236180   1.051   1.694  12.319 -0.1779  0.4948  1.3481
 4897TIP3   OH236181   4.667   5.835  11.889  0.4145 -0.0345 -1.3027
 4897TIP3    H136182   4.682   5.930  11.887  1.8139 -0.2387 -3.0922
 4897TIP3    H236183   4.699   5.808  11.975 -1.4971  1.2760 -0.0956
 4898TIP3   OH236184   4.198   1.472  14.674  0.0211  0.0036  0.6092
 4898TIP3    H136185   4.207   1.383  14.707  0.6443  0.2178  1.0286
 4898TIP3    H236186   4.129   1.466  14.607  1.2764 -1.1477 -0.6639
 4899TIP3   OH236187   3.907   1.059  13.297  0.2284  0.4474 -0.2789
 4899TIP3    H136188   3.833   1.112  13.328 -0.1584  0.5431 -1.2985
 4899TIP3    H236189   3.941   1.108  13.221  0.9729  0.1100 -0.1695
 4900TIP3   OH236190   1.363   4.677  16.050 -0.1036 -0.0224  0.7729
 4900TIP3    H136191   1.358   4.757  16.102 -2.8827 -0.1738  0.8564
 4900TIP3    H236192   1.454   4.674  16.020  0.1099  3.1374  0.7580
 4901TIP3   OH236193   0.833   6.012  12.584 -0.8633 -0.0605  0.0872
 4901TIP3    H136194   0.883   6.068  12.524  0.4753 -1.2431  0.0271
 4901TIP3    H236195   0.788   6.073  12.642  0.6349  1.0888  0.1107
 4902TIP3   OH236196   3.205   4.008   3.976  0.8019 -0.1290 -0.2612
 4902TIP3    H136197   3.276   4.021   3.913  1.5541  1.7588  0.9020
 4902TIP3    H236198   3.238   3.940   4.035  1.0434 -0.2638 -0.5469
 4903TIP3   OH236199   4.635   0.972  12.108  0.5056  0.3421 -0.3321
 4903TIP3    H136200   4.699   0.915  12.151 -1.5337 -1.3541  0.6289
 4903TIP3    H236201   4.573   0.995  12.177 -0.5264  1.0315 -1.4603
 4904TIP3   OH236202   2.495   3.313   2.085 -0.4732  0.0449 -0.0765
 4904TIP3    H136203   2.571   3.291   2.031 -1.7754 -0.5647 -1.7443
 4904TIP3    H236204   2.492   3.408   2.084 -1.1482  0.0473 -2.1474
 4905TIP3   OH236205   5.774   0.736   5.297 -0.1252 -0.0536 -0.2363
 4905TIP3    H136206   5.761   0.683   5.218  2.1071 -0.7659 -0.2237
 4905TIP3    H236207   5.689   0.736   5.341 -0.6741 -2.1458 -1.1624
 4906TIP3   OH236208   6.037   1.019   5.162 -0.0008  0.2641 -0.0036
 4906TIP3    H136209   6.073   1.040   5.248 -1.4199 -0.9808  0.9294
 4906TIP3    H236210   6.080   0.937   5.138 -2.2511 -1.3666  1.2288
 4907TIP3   OH236211   0.815   1.908   5.104 -0.0298  0.2866 -0.0408
 4907TIP3    H136212   0.873   1.957   5.163 -0.8274  0.1965  0.8506
 4907TIP3    H236213   0.793   1.969   5.035  0.3532  0.6306  0.1352
 4908TIP3   OH236214   2.336   0.929  15.927 -0.0076 -0.3815  0.1104
 4908TIP3    H136215   2.255   0.878  15.924 -0.4418  0.2687  0.5182
 4908TIP3    H236216   2.382   0.896  16.004 -1.4229  1.4791  1.8347
 4909TIP3   OH236217   2.328   6.574   6.386 -0.1933  0.3815  0.3919
 4909TIP3    H136218   2.311   6.494   6.336  1.1140  0.0193  0.4852
 4909TIP3    H236219   2.249   6.586   6.438 -0.3855 -0.9098  0.4456
 4910TIP3   OH236220   6.568   4.498  10.956 -1.5005 -0.1331 -0.0847
 4910TIP3    H136221   6.518   4.558  11.012 -1.4999 -0.1479 -0.0685
 4910TIP3    H236222   6.529   4.412  10.973 -1.7250 -0.0888 -0.3580
 4911TIP3   OH236223   0.913   0.515   0.796  0.0591  0.3875  0.4271
 4911TIP3    H136224   0.903   0.516   0.701  0.8351  0.5664  0.3431
 4911TIP3    H236225   0.947   0.428   0.815  0.2569  0.4821  0.5042
 4912TIP3   OH236226   3.668   6.668   1.233 -0.2412  0.3460  0.1733
 4912TIP3    H136227   3.717   6.679   1.151  1.8100 -1.2563  1.0757
 4912TIP3    H236228   3.670   6.573   1.249 -0.1659  0.6651  2.3030
 4913TIP3   OH236229   5.106   3.049   2.726 -0.0141 -0.8399 -0.5109
 4913TIP3    H136230   5.126   3.085   2.640  1.9742  0.9070  0.5835
 4913TIP3    H236231   5.163   2.972   2.733 -0.3278 -1.1030 -0.8225
 4914TIP3   OH236232   1.030   4.545  13.167 -0.3762  0.1028 -0.5323
 4914TIP3    H136233   0.965   4.582  13.108  0.6667  1.9338 -0.6078
 4914TIP3    H236234   1.098   4.510  13.109 -0.5113 -0.3269 -0.4348
 4915TIP3   OH236235   2.248   3.841  15.617 -0.9968  0.3918  0.4796
 4915TIP3    H136236   2.339   3.854  15.593 -0.8244 -2.3023 -0.7149
 4915TIP3    H236237   2.222   3.760  15.572 -3.7778  0.6834  1.3193
 4916TIP3   OH236238   3.138   5.360   4.468  0.0242 -0.0589 -0.2126
 4916TIP3    H136239   3.135   5.395   4.557  1.8215  1.0616 -0.5474
 4916TIP3    H236240   3.180   5.274   4.478  0.1230  0.0153  0.0185
 4917TIP3   OH236241   4.653   6.720   4.683  0.4918  0.3150 -0.3053
 4917TIP3    H136242   4.657   6.628   4.659  0.8313  0.7190 -1.8589
 4917TIP3    H236243   4.737   6.756   4.656  1.4323  0.6025  2.5809
 4918TIP3   OH236244   3.351   6.425  17.141  0.1280 -0.2008  0.1658
 4918TIP3    H136245   3.345   6.442  17.047  1.0384 -0.4105  0.0607
 4918TIP3    H236246   3.323   6.507  17.182  1.9052  0.6967 -0.3081
 4919TIP3   OH236247   0.638   6.153   2.168 -0.0215 -0.3680  0.1463
 4919TIP3    H136248   0.662   6.089   2.235  0.6407 -0.7224 -0.4182
 4919TIP3    H236249   0.554   6.188   2.197 -0.3443 -1.4231  0.5004
 4920TIP3   OH236250   4.785   4.175   2.188  0.0481 -0.3728 -0.2752
 4920TIP3    H136251   4.741   4.090   2.197 -0.5203 -0.0533 -0.0602
 4920TIP3    H236252   4.842   4.179   2.266  1.2057 -1.2049 -1.0326
 4921TIP3   OH236253   4.480   3.640  12.109  0.2045 -0.5626  0.2735
 4921TIP3    H136254   4.449   3.551  12.098  1.5675 -0.8899 -1.5659
 4921TIP3    H236255   4.498   3.670  12.019  1.7440  0.7872  0.9773
 4922TIP3   OH236256   3.285   0.181   3.835 -0.0473 -0.3977  0.0861
 4922TIP3    H136257   3.289   0.115   3.766 -0.4593  0.5957 -0.9234
 4922TIP3    H236258   3.364   0.235   3.821 -0.5251  0.2652 -0.0995
 4923TIP3   OH236259   5.188   4.751   2.480 -0.8279  0.3052  0.5969
 4923TIP3    H136260   5.137   4.741   2.560 -0.7515 -0.0390  0.6032
 4923TIP3    H236261   5.130   4.719   2.411 -0.5467 -0.2817  0.6279
 4924TIP3   OH236262   6.484   2.678   5.642  0.4099 -0.4059 -0.1940
 4924TIP3    H136263   6.570   2.718   5.656 -0.2320  0.6075  1.0711
 4924TIP3    H236264   6.471   2.683   5.547  1.6926 -0.4909 -0.3925
 4925TIP3   OH236265   3.849   4.471  11.891 -0.3866 -0.0840  0.5840
 4925TIP3    H136266   3.804   4.393  11.859  1.9972 -0.9580 -0.8939
 4925TIP3    H236267   3.809   4.544  11.844 -0.2690 -0.8405 -0.7195
 4926TIP3   OH236268   0.460   2.254  11.765 -0.3849  0.1508 -0.0738
 4926TIP3    H136269   0.415   2.170  11.772 -0.7213  0.2252 -1.0860
 4926TIP3    H236270   0.499   2.268  11.851 -1.1303 -0.5836  0.4054
 4927TIP3   OH236271   0.698   5.976   1.122 -0.0216 -0.1262  0.1901
 4927TIP3    H136272   0.740   5.891   1.106 -0.2206 -0.2652  0.3998
 4927TIP3    H236273   0.683   6.012   1.034  4.2986  1.8355 -0.0133
 4928TIP3   OH236274   6.307   1.138  13.232  0.1513  0.5356 -0.9616
 4928TIP3    H136275   6.215   1.163  13.218 -0.0421 -0.3642 -1.4359
 4928TIP3    H236276   6.317   1.057  13.181  1.0517  0.3079 -0.4430
 4929TIP3   OH236277   1.261   4.404   0.397  0.7983  0.2060 -0.1506
 4929TIP3    H136278   1.252   4.462   0.321  1.1508 -0.7150 -0.9126
 4929TIP3    H236279   1.286   4.463   0.469  0.1853  1.1314 -0.6708
 4930TIP3   OH236280   0.300   0.898   2.081  0.0555 -0.6486 -0.5586
 4930TIP3    H136281   0.369   0.932   2.138 -0.2931 -0.1089 -0.4541
 4930TIP3    H236282   0.334   0.909   1.992  0.1817 -0.5605 -0.4999
 4931TIP3   OH236283   3.271   4.915   3.964 -0.0001  0.3002  0.1329
 4931TIP3    H136284   3.278   5.006   3.994  2.4493  0.1990  0.1330
 4931TIP3    H236285   3.311   4.916   3.877 -0.2599 -0.7257 -0.0060
 4932TIP3   OH236286   2.865   4.459   4.612  0.4567  0.1246  0.5252
 4932TIP3    H136287   2.906   4.373   4.615 -0.5530 -0.3757  0.1675
 4932TIP3    H236288   2.902   4.500   4.534  0.0120 -0.4604  0.0028
 4933TIP3   OH236289   5.650   2.541  11.203 -0.1016 -0.5527  0.0242
 4933TIP3    H136290   5.574   2.575  11.157  0.5228 -0.0080 -0.6269
 4933TIP3    H236291   5.641   2.446  11.198 -1.3459 -0.4991  0.9932
 4934TIP3   OH236292   2.521   4.553   4.718 -0.3966 -0.1371  0.7501
 4934TIP3    H136293   2.601   4.593   4.752 -0.6337  1.9962 -1.0100
 4934TIP3    H236294   2.543   4.528   4.628 -2.1617  2.3387 -0.4990
 4935TIP3   OH236295   2.463   2.047   1.339  0.4896 -0.1396 -0.0577
 4935TIP3    H136296   2.457   2.067   1.246  1.5969  2.2037  0.3212
 4935TIP3    H236297   2.371   2.039   1.367  0.1247 -2.7343 -1.6093
 4936TIP3   OH236298   1.457   5.766   3.809 -0.3143 -0.4541  0.4469
 4936TIP3    H136299   1.486   5.812   3.889 -1.9911  0.3652  0.6349
 4936TIP3    H236300   1.507   5.807   3.739 -0.3858  0.3546  0.8483
 4937TIP3   OH236301   3.344   1.503  16.336 -0.2274  0.0035  0.0230
 4937TIP3    H136302   3.437   1.488  16.317 -0.1276 -2.9728  2.1213
 4937TIP3    H236303   3.342   1.587  16.382  1.5882 -0.2815  0.7250
 4938TIP3   OH236304   0.173   3.617   2.288 -0.4164  0.2448  0.4477
 4938TIP3    H136305   0.263   3.614   2.320 -0.3264  1.0605  0.2906
 4938TIP3    H236306   0.119   3.609   2.367 -0.2286 -0.7527  0.4965
 4939TIP3   OH236307   4.707   2.510   1.455  0.5137 -0.1440 -0.2297
 4939TIP3    H136308   4.796   2.532   1.483  0.2895  1.6862 -0.8173
 4939TIP3    H236309   4.710   2.415   1.439  2.0238 -0.3253  0.8846
 4940TIP3   OH236310   1.077   5.881   1.885 -0.3631  0.1228  0.2548
 4940TIP3    H136311   1.137   5.926   1.945  1.1363  1.4258 -2.0334
 4940TIP3    H236312   0.996   5.931   1.891 -0.2815  0.1620  1.2452
 4941TIP3   OH236313   3.518   5.035  15.628  0.1847 -0.3983 -0.1204
 4941TIP3    H136314   3.472   5.008  15.708 -1.0248 -0.4138 -0.7900
 4941TIP3    H236315   3.454   5.089  15.581  0.4941 -1.2214 -1.5475
 4942TIP3   OH236316   0.198   5.718   1.342  0.1423  0.4628 -0.1870
 4942TIP3    H136317   0.293   5.725   1.333  0.2338  0.8233  0.9023
 4942TIP3    H236318   0.170   5.671   1.263  0.9681  2.2267 -1.6069
 4943TIP3   OH236319   5.760   4.427  12.691  0.2534  0.1019 -0.2686
 4943TIP3    H136320   5.693   4.493  12.673 -1.3749 -0.6135  2.4811
 4943TIP3    H236321   5.820   4.470  12.752  1.6092  0.3026 -1.6850
 4944TIP3   OH236322   5.165   5.422   5.319 -0.3036 -0.0479 -0.2155
 4944TIP3    H136323   5.249   5.414   5.364 -1.0822  0.6200  1.4463
 4944TIP3    H236324   5.187   5.441   5.228  1.3440 -1.5742 -0.1896
 4945TIP3   OH236325   0.424   4.687  16.843  0.6386 -0.0698  0.7018
 4945TIP3    H136326   0.380   4.734  16.914  0.1673  0.5090  0.0408
 4945TIP3    H236327   0.420   4.747  16.768  1.0750 -0.6913  0.1702
 4946TIP3   OH236328   3.370   4.124  17.154 -0.2682 -0.1090  0.1399
 4946TIP3    H136329   3.277   4.139  17.167 -0.2884 -1.2343  1.5849
 4946TIP3    H236330   3.375   4.046  17.100 -0.2356 -1.6177  2.1859
 4947TIP3   OH236331   1.929   6.668  10.856  0.3062 -0.4621  0.3485
 4947TIP3    H136332   1.850   6.704  10.898  0.5558  0.7586 -0.1933
 4947TIP3    H236333   1.950   6.731  10.787  1.1667 -1.3178 -0.1874
 4948TIP3   OH236334   6.390   5.625   2.385 -0.3999  0.3574  0.4316
 4948TIP3    H136335   6.443   5.703   2.366  1.6522 -1.0508  0.1151
 4948TIP3    H236336   6.342   5.608   2.304  0.1917  0.5069  0.0482
 4949TIP3   OH236337   5.775   0.151  15.132  0.0892  0.2027  0.4982
 4949TIP3    H136338   5.716   0.170  15.059 -1.4948  1.6260  2.0755
 4949TIP3    H236339   5.853   0.204  15.114 -0.1359  0.2599 -0.3315
 4950TIP3   OH236340   5.049   1.052   3.897  0.3810 -0.0324 -0.6186
 4950TIP3    H136341   5.107   1.047   3.973 -0.8213  0.0632  0.3473
 4950TIP3    H236342   4.992   0.976   3.906 -0.5244  0.6083 -0.7643
 4951TIP3   OH236343   4.713   0.043  15.052 -0.0464  0.6593 -0.0565
 4951TIP3    H136344   4.770  -0.017  15.101 -2.2827 -1.0766  0.6050
 4951TIP3    H236345   4.706   0.003  14.965 -0.8507  0.4194  0.1126
 4952TIP3   OH236346   2.378   2.108  13.388  0.2078  0.2857 -0.3453
 4952TIP3    H136347   2.332   2.192  13.400  0.4956  0.4355 -0.2962
 4952TIP3    H236348   2.432   2.099  13.466  0.3846  0.1852 -0.4801
 4953TIP3   OH236349   3.256   6.660   1.517  0.2523 -0.1522 -0.0097
 4953TIP3    H136350   3.307   6.617   1.449  0.4216  0.3852 -0.2251
 4953TIP3    H236351   3.300   6.744   1.531 -2.0757  1.5649 -2.1151
 4954TIP3   OH236352   0.398   0.320   1.056 -0.3618 -0.1440  0.2530
 4954TIP3    H136353   0.378   0.267   1.133 -0.3804 -0.9720 -0.3010
 4954TIP3    H236354   0.491   0.303   1.038 -0.5444 -0.5752 -0.3474
 4955TIP3   OH236355   2.591   3.206  11.221 -0.4760 -0.2203  0.8187
 4955TIP3    H136356   2.635   3.259  11.287  0.4121 -1.9805  1.7164
 4955TIP3    H236357   2.658   3.144  11.192 -1.5965 -1.1763  0.2087
 4956TIP3   OH236358   5.993   1.624   5.392 -0.3583 -0.4932  0.3228
 4956TIP3    H136359   6.030   1.580   5.469  1.0133  1.4036  0.8270
 4956TIP3    H236360   5.948   1.555   5.344 -0.1324 -1.9889  2.1593
 4957TIP3   OH236361   1.451   0.599   5.287  0.2083 -0.0889 -0.1884
 4957TIP3    H136362   1.495   0.618   5.370 -2.3346  0.5193  1.1094
 4957TIP3    H236363   1.400   0.520   5.304 -1.2036  0.6526 -0.7710
 4958TIP3   OH236364   6.511   0.589  14.043 -0.2218  0.0630  0.0605
 4958TIP3    H136365   6.460   0.591  13.962 -3.2124 -3.7496  1.5675
 4958TIP3    H236366   6.461   0.643  14.104 -0.1234 -0.3047  0.4641
 4959TIP3   OH236367   4.945   4.887  14.058  0.2275 -0.2102  0.1109
 4959TIP3    H136368   5.012   4.942  14.019  0.9581 -0.0212  1.5548
 4959TIP3    H236369   4.994   4.823  14.110 -0.6835  1.1338  2.7947
 4960TIP3   OH236370   6.139   3.337   0.731  0.5577 -0.1917  0.5715
 4960TIP3    H136371   6.139   3.308   0.640  0.2840 -3.5527  1.5071
 4960TIP3    H236372   6.071   3.403   0.736 -1.8283 -2.3536 -1.0479
 4961TIP3   OH236373   2.899   4.556   3.062 -0.0565 -0.0048  0.1930
 4961TIP3    H136374   2.941   4.523   2.982 -0.0341 -0.6391  0.4591
 4961TIP3    H236375   2.812   4.516   3.060 -0.7412  1.4367 -0.4475
 4962TIP3   OH236376   5.081   5.306   1.816  0.4605 -0.4266 -0.1803
 4962TIP3    H136377   5.171   5.282   1.835  0.3343 -1.1664 -0.4718
 4962TIP3    H236378   5.037   5.302   1.901  0.5489 -0.7625 -0.1492
 4963TIP3   OH236379   3.558   4.900   4.299  0.3793 -0.2154 -0.4250
 4963TIP3    H136380   3.483   4.885   4.241  0.9381 -3.4574 -0.4731
 4963TIP3    H236381   3.632   4.914   4.241  0.3905 -0.3244 -0.4366
 4964TIP3   OH236382   1.897   2.990   2.627 -0.1346  0.0911  0.6887
 4964TIP3    H136383   1.902   2.894   2.629  0.3067 -0.0340 -2.0463
 4964TIP3    H236384   1.806   3.009   2.646 -0.6628 -1.0349 -0.5009
 4965TIP3   OH236385   0.681   1.982  14.270  0.3650 -0.5682  0.7653
 4965TIP3    H136386   0.636   1.933  14.339 -0.3653  0.8547  1.3287
 4965TIP3    H236387   0.723   2.054  14.316 -0.0564  0.3517 -0.2656
 4966TIP3   OH236388   6.056   3.213   4.768  0.1793  0.2756  0.2776
 4966TIP3    H136389   6.012   3.277   4.712 -1.7202 -1.0568  0.1271
 4966TIP3    H236390   6.061   3.255   4.854 -1.5026  0.5019  0.3099
 4967TIP3   OH236391   2.984   0.887  13.184  0.5726  0.7853 -0.5796
 4967TIP3    H136392   2.896   0.894  13.219  0.4586  0.0789 -0.6952
 4967TIP3    H236393   3.033   0.838  13.250  0.8855  1.2042 -0.4992
 4968TIP3   OH236394   5.182   5.171   2.590 -0.5247 -0.2533  0.3835
 4968TIP3    H136395   5.226   5.095   2.550  1.1121  0.9743 -0.2488
 4968TIP3    H236396   5.146   5.137   2.672  0.4015 -1.6626  0.2478
 4969TIP3   OH236397   5.013   2.763  16.447  0.3001 -0.2291 -0.0142
 4969TIP3    H136398   4.981   2.675  16.466 -1.4229  0.6565  1.5586
 4969TIP3    H236399   5.016   2.806  16.533  0.1846  1.5307 -0.8483
 4970TIP3   OH236400   5.664   6.489  16.529 -0.5361  0.4816  0.0465
 4970TIP3    H136401   5.751   6.498  16.569 -0.7401 -1.3394  1.0075
 4970TIP3    H236402   5.606   6.474  16.603 -1.3573 -0.2981 -0.7448
 4971TIP3   OH236403   4.849   4.050  11.565 -0.4694  0.1182 -0.0329
 4971TIP3    H136404   4.909   3.976  11.561 -0.4083  0.2050 -0.9740
 4971TIP3    H236405   4.904   4.126  11.548 -1.0029  0.0981 -2.1332
 4972TIP3   OH236406   4.158   3.510   5.027 -0.6003 -0.9159  0.5608
 4972TIP3    H136407   4.228   3.470   4.974 -0.4456 -0.1960  0.2101
 4972TIP3    H236408   4.077   3.477   4.987 -0.5135  0.5309 -0.8998
 4973TIP3   OH236409   3.118   6.111  16.277  0.2433  0.0007  0.0163
 4973TIP3    H136410   3.202   6.153  16.257  1.2826 -1.0462  1.8960
 4973TIP3    H236411   3.091   6.150  16.360  0.4185 -1.7886  0.9669
 4974TIP3   OH236412   2.766   2.637   4.265  0.7414  0.3726 -0.5170
 4974TIP3    H136413   2.793   2.697   4.335  0.7261 -0.2720  0.0582
 4974TIP3    H236414   2.754   2.693   4.189 -0.3234  1.2638  0.2644
 4975TIP3   OH236415   4.045   2.528   2.393 -0.3941 -0.1383 -0.1049
 4975TIP3    H136416   4.110   2.477   2.443  0.4310 -0.6593 -1.6539
 4975TIP3    H236417   4.059   2.618   2.422 -0.1283 -0.4577  0.7995
 4976TIP3   OH236418   2.483   5.683  17.008  0.2778  0.5602  0.1034
 4976TIP3    H136419   2.503   5.701  17.100  1.0295 -0.9791  0.2705
 4976TIP3    H236420   2.510   5.593  16.995 -1.8681  0.0203 -1.0675
 4977TIP3   OH236421   6.048   6.288   1.939 -0.3975  0.3340  0.1749
 4977TIP3    H136422   6.061   6.326   2.026  1.4772 -2.1819  1.1026
 4977TIP3    H236423   6.029   6.363   1.883 -0.6785  2.1563  2.5311
 4978TIP3   OH236424   5.598   5.362   0.667 -0.0746 -0.0178  0.4868
 4978TIP3    H136425   5.636   5.386   0.583 -0.3518  4.2227  1.3413
 4978TIP3    H236426   5.505   5.346   0.648 -0.0850  0.6765 -0.0855
 4979TIP3   OH236427   6.563   6.265   3.443  0.4374  0.2970  0.6395
 4979TIP3    H136428   6.482   6.305   3.412  0.9244  1.0121  0.2604
 4979TIP3    H236429   6.609   6.237   3.363 -0.2055 -1.6984  0.9084
 4980TIP3   OH236430   6.578   2.636  17.078  0.1534  0.4755 -0.1415
 4980TIP3    H136431   6.642   2.567  17.058 -1.3202 -1.1781  0.6092
 4980TIP3    H236432   6.593   2.656  17.171  0.1526  0.6931 -0.1885
 4981TIP3   OH236433   6.360   3.178  13.789 -0.6204  0.1236  0.0494
 4981TIP3    H136434   6.416   3.209  13.718 -1.2750  0.1494 -0.4621
 4981TIP3    H236435   6.376   3.084  13.793 -1.9845 -0.2070 -1.4171
 4982TIP3   OH236436   4.657   2.582   5.005  0.5654 -0.2541 -0.0245
 4982TIP3    H136437   4.671   2.504   5.058  1.3347  0.0078  0.1708
 4982TIP3    H236438   4.667   2.552   4.915 -0.5656 -0.6631 -0.0406
 4983TIP3   OH236439   0.447   5.584  14.928  0.1854 -0.0102  0.0645
 4983TIP3    H136440   0.361   5.604  14.965 -0.0317  2.1863 -1.4404
 4983TIP3    H236441   0.432   5.506  14.874 -1.0405  0.6505 -0.6014
 4984TIP3   OH236442   6.416   5.456  16.954 -0.1476  0.0770  0.2169
 4984TIP3    H136443   6.364   5.419  17.026 -1.9823  0.6401 -0.7581
 4984TIP3    H236444   6.434   5.381  16.897  0.2790 -0.1488  0.6348
 4985TIP3   OH236445   0.516   4.217  15.375  0.2514 -0.3241  0.1079
 4985TIP3    H136446   0.591   4.268  15.407 -1.5905  2.2886  0.5338
 4985TIP3    H236447   0.460   4.206  15.451 -1.5343  1.0823 -0.9165
 4986TIP3   OH236448   2.867   6.745  10.144 -0.7268  0.3909  0.7685
 4986TIP3    H136449   2.926   6.752  10.218  0.4617 -0.3906 -0.0748
 4986TIP3    H236450   2.847   6.651  10.138  0.3803  0.2156 -0.7687
 4987TIP3   OH236451   4.389   0.884   5.744  0.2539 -1.0875  0.0533
 4987TIP3    H136452   4.425   0.931   5.819  0.8827  2.5352 -2.2951
 4987TIP3    H236453   4.294   0.897   5.751  0.0207 -2.9638  1.4258
 4988TIP3   OH236454   5.552   3.845  14.131  0.2650 -0.1181  0.7770
 4988TIP3    H136455   5.477   3.841  14.072 -0.2204  0.2167  1.3646
 4988TIP3    H236456   5.606   3.770  14.107  0.0883  0.0331 -0.1092
 4989TIP3   OH236457   4.041   0.665   4.058  0.0701  0.4496  0.0638
 4989TIP3    H136458   4.090   0.632   4.134 -1.1152  0.5221  0.8880
 4989TIP3    H236459   4.040   0.760   4.069  0.1104  0.4805 -0.1861
 4990TIP3   OH236460   5.150   1.113   1.339  0.5888 -0.2831  0.0412
 4990TIP3    H136461   5.171   1.096   1.431  0.9221  0.4990  0.1130
 4990TIP3    H236462   5.057   1.136   1.340  0.2955 -1.3793  0.0253
 4991TIP3   OH236463   6.782   2.047  12.434 -0.1985 -0.0999 -0.3392
 4991TIP3    H136464   6.729   2.126  12.445  1.4675  0.9460  0.8357
 4991TIP3    H236465   6.869   2.080  12.409  0.5883 -1.5368  0.3477
 4992TIP3   OH236466   0.604   3.495  11.903  0.0581  0.5245 -0.6876
 4992TIP3    H136467   0.676   3.543  11.945  0.3630 -0.0281 -0.5744
 4992TIP3    H236468   0.647   3.425  11.854 -0.4858 -0.8592  0.7339
 4993TIP3   OH236469   3.005   5.604  14.830  0.2028 -0.1942  0.0275
 4993TIP3    H136470   3.065   5.542  14.788 -0.5369  0.6152 -2.4014
 4993TIP3    H236471   2.935   5.616  14.766  0.1424  2.8446  0.5313
 4994TIP3   OH236472   2.114   6.792  16.677  0.3921  0.2082 -0.2582
 4994TIP3    H136473   2.105   6.704  16.713  0.9630  0.2801  0.0753
 4994TIP3    H236474   2.178   6.835  16.734 -1.9837  1.7951  1.3979
 4995TIP3   OH236475   6.283   1.551  13.170 -0.1136  0.4697 -0.4771
 4995TIP3    H136476   6.210   1.497  13.200 -0.8828  1.4438 -0.5832
 4995TIP3    H236477   6.245   1.637  13.153  1.4554  1.7063  1.7511
 4996TIP3   OH236478   3.308   2.956   0.200  0.0621  0.2779  0.4103
 4996TIP3    H136479   3.323   2.995   0.114  0.3116  1.5688  1.0121
 4996TIP3    H236480   3.367   2.880   0.203 -1.4832 -1.0858 -1.3342
 4997TIP3   OH236481   3.603   4.931   3.055 -0.5923 -0.1283 -0.2359
 4997TIP3    H136482   3.645   4.904   2.973 -3.1166 -0.8939 -1.3894
 4997TIP3    H236483   3.565   4.850   3.090  0.6883  0.1165  1.9343
 4998TIP3   OH236484   4.023   6.131  14.921  0.1998 -0.8339 -0.1231
 4998TIP3    H136485   3.961   6.069  14.961  0.2864 -1.4023 -0.8402
 4998TIP3    H236486   4.092   6.141  14.987 -1.2831  0.8758  1.2732
 4999TIP3   OH236487   4.254   0.236  17.099 -0.1599  0.1800  0.8291
 4999TIP3    H136488   4.345   0.252  17.071 -0.3436  0.2850  0.2813
 4999TIP3    H236489   4.260   0.159  17.156 -0.1566 -2.0531 -1.9719
 5000TIP3   OH236490   0.973   4.144   5.253 -0.7560  0.1514  0.3720
 5000TIP3    H136491   0.892   4.115   5.296 -0.6323 -2.6417 -1.0701
 5000TIP3    H236492   1.042   4.096   5.298 -0.2055  0.3362 -0.2682
 5001TIP3   OH236493   2.325   4.940   0.813  0.0555  0.3426  0.3256
 5001TIP3    H136494   2.355   5.013   0.867 -0.8399  0.9271  0.0484
 5001TIP3    H236495   2.230   4.953   0.805 -0.2207 -1.1941  0.7941
 5002TIP3   OH236496   5.652   6.433  17.116 -0.2872 -0.1495 -0.2593
 5002TIP3    H136497   5.576   6.376  17.125  0.3303 -0.6680  2.9291
 5002TIP3    H236498   5.728   6.374  17.121  0.3408  0.6488 -0.0971
 5003TIP3   OH236499   3.159   1.914  14.461 -0.2288  0.6459  0.0513
 5003TIP3    H136500   3.152   1.826  14.498 -1.8792  0.6809 -0.1136
 5003TIP3    H236501   3.243   1.947  14.493  0.5658 -1.0853 -0.1298
 5004TIP3   OH236502   1.751   4.896  16.169  0.3325  0.5457 -0.2432
 5004TIP3    H136503   1.731   4.842  16.246  0.0203 -0.5714 -1.0726
 5004TIP3    H236504   1.814   4.844  16.119 -0.7131  0.4594 -1.5525
 5005TIP3   OH236505   4.696   2.834  12.611  0.2765  0.2865 -0.0887
 5005TIP3    H136506   4.723   2.917  12.650 -1.2554  0.8606 -0.1443
 5005TIP3    H236507   4.607   2.852  12.579  0.6528 -0.8130 -1.8548
 5006TIP3   OH236508   6.157   4.203  15.941 -1.1237 -0.1347  0.3541
 5006TIP3    H136509   6.217   4.251  15.884 -1.0004  0.1343  0.7056
 5006TIP3    H236510   6.087   4.266  15.961 -1.1759 -0.2317  0.4797
 5007TIP3   OH236511   1.241   0.233   3.089 -0.4055 -0.1031 -0.4221
 5007TIP3    H136512   1.303   0.224   3.017 -0.4013 -0.2408 -0.4008
 5007TIP3    H236513   1.162   0.188   3.060  0.2643 -1.9349  0.4547
 5008TIP3   OH236514   0.452   4.026   2.649 -0.0257 -0.0560  0.0608
 5008TIP3    H136515   0.459   4.010   2.744 -2.7518  1.4340  0.6428
 5008TIP3    H236516   0.379   4.088   2.641  0.6687  0.5242 -2.9944
 5009TIP3   OH236517   2.340   0.473   5.037  0.3818  0.0253 -0.6240
 5009TIP3    H136518   2.415   0.418   5.059 -0.0795 -0.8935 -1.2755
 5009TIP3    H236519   2.374   0.563   5.038  1.2664 -0.3067 -0.0349
 5010TIP3   OH236520   1.628   2.808  11.998 -0.0796 -0.6054  0.0661
 5010TIP3    H136521   1.579   2.726  11.991 -1.6679  0.2070  1.0700
 5010TIP3    H236522   1.570   2.874  11.959 -0.4549  0.6031  2.4604
 5011TIP3   OH236523   3.370   0.955  11.954  0.2071 -0.3978 -0.0880
 5011TIP3    H136524   3.317   1.034  11.943  0.7188 -0.2526 -1.8320
 5011TIP3    H236525   3.455   0.987  11.984  0.2439 -0.3291 -0.2624
 5012TIP3   OH236526   3.111   2.346  14.832  0.2916  0.4267 -0.1167
 5012TIP3    H136527   3.150   2.299  14.758 -0.3464 -1.3797  0.6531
 5012TIP3    H236528   3.017   2.335  14.820  0.1906 -0.1394  1.1190
 5013TIP3   OH236529   6.038   4.322   6.289  0.3164 -0.4071 -0.3804
 5013TIP3    H136530   5.969   4.354   6.231  0.9990  0.8049 -0.5443
 5013TIP3    H236531   6.070   4.400   6.334 -0.4601 -1.3456  1.9650
 5014TIP3   OH236532   5.114   4.261  12.567  0.4992  0.5055 -0.0746
 5014TIP3    H136533   5.083   4.170  12.563 -0.7868  0.9600 -1.0608
 5014TIP3    H236534   5.100   4.287  12.658  1.1168 -0.3528  0.2800
 5015TIP3   OH236535   5.872   0.981  15.588  0.1353  0.1269 -0.0967
 5015TIP3    H136536   5.916   1.066  15.584 -0.2985  0.3502 -0.2206
 5015TIP3    H236537   5.780   1.003  15.605 -0.0226 -0.3056 -0.3868
 5016TIP3   OH236538   3.803   2.342  11.772 -0.3163  0.2208  0.4243
 5016TIP3    H136539   3.784   2.256  11.808 -1.9154  0.0407 -0.7093
 5016TIP3    H236540   3.802   2.401  11.847 -1.9733 -0.3603  0.8912
 5017TIP3   OH236541   4.175   5.139   5.088 -0.1014  0.2264  0.4905
 5017TIP3    H136542   4.134   5.221   5.060  0.2190  0.6265  1.1846
 5017TIP3    H236543   4.102   5.077   5.094 -0.5208  0.7724  1.1260
 5018TIP3   OH236544   2.128   0.572  16.249  0.5721  0.7916 -0.2597
 5018TIP3    H136545   2.141   0.642  16.184  0.1057  0.7463 -0.4010
 5018TIP3    H236546   2.217   0.540  16.267  0.6735  0.5193 -1.1870
 5019TIP3   OH236547   4.926   6.056   6.121  0.1913 -0.1079  0.4337
 5019TIP3    H136548   4.997   6.008   6.079  1.0036 -0.5679  2.2153
 5019TIP3    H236549   4.849   6.000   6.110  0.0886  0.3560 -1.4431
 5020TIP3   OH236550   5.505   4.072  11.599  0.9169  0.0467  0.2509
 5020TIP3    H136551   5.526   4.165  11.602 -0.0973  0.2567  2.1270
 5020TIP3    H236552   5.575   4.030  11.649  0.2203  0.0526  1.2378
 5021TIP3   OH236553   2.055   5.563  14.688 -0.1259  0.5154 -0.4259
 5021TIP3    H136554   1.971   5.546  14.731 -0.3905  0.4253 -0.9801
 5021TIP3    H236555   2.120   5.544  14.756 -0.4652 -1.2103 -0.5553
 5022TIP3   OH236556   2.042   6.292  13.179  0.8424  0.2536 -0.2849
 5022TIP3    H136557   2.066   6.336  13.260  0.9319 -3.1250  1.6749
 5022TIP3    H236558   1.948   6.278  13.186  1.2843 -2.8577  0.8891
 5023TIP3   OH236559   5.676   2.837  11.042 -0.0741 -0.1058  0.5841
 5023TIP3    H136560   5.590   2.871  11.062  0.3604  1.2757  0.1953
 5023TIP3    H236561   5.671   2.809  10.950  0.2226  1.1383  0.1714
 5024TIP3   OH236562   6.437   1.243  14.632  0.2627 -0.1152  0.3869
 5024TIP3    H136563   6.403   1.214  14.716  0.9371  0.4991  0.8903
 5024TIP3    H236564   6.416   1.336  14.628  1.1977  0.1085  0.3845
 5025TIP3   OH236565   3.270   4.372  14.325 -0.0756  0.3243  0.4880
 5025TIP3    H136566   3.335   4.356  14.257 -1.3524 -0.0962 -0.6768
 5025TIP3    H236567   3.308   4.442  14.378  0.5721  1.2847 -1.1760
 5026TIP3   OH236568   1.997   3.067   1.622 -0.1475 -0.1386 -0.0308
 5026TIP3    H136569   1.950   3.073   1.539  1.4377  1.7500 -0.8559
 5026TIP3    H236570   2.064   3.000   1.608  1.2021  1.3425 -0.8929
 5027TIP3   OH236571   4.298   4.801   0.297  0.6767 -0.1584 -0.7620
 5027TIP3    H136572   4.240   4.863   0.252 -0.2597 -0.1858  0.3523
 5027TIP3    H236573   4.323   4.738   0.230 -0.2793  0.0913 -1.3756
 5028TIP3   OH236574   5.636   0.420   4.371 -0.0433 -0.2906 -0.1701
 5028TIP3    H136575   5.554   0.389   4.333  0.1656  0.0937 -0.9805
 5028TIP3    H236576   5.699   0.413   4.299  0.4863  0.0170  0.2546
 5029TIP3   OH236577   0.628   1.824  16.798  0.1140 -0.3676  0.5020
 5029TIP3    H136578   0.561   1.796  16.735 -1.3838  0.5661  1.6051
 5029TIP3    H236579   0.607   1.774  16.877  1.3929 -0.8234  0.5767
 5030TIP3   OH236580   1.159   3.988  10.928 -0.3960 -0.7700  0.9478
 5030TIP3    H136581   1.209   4.069  10.920 -0.4367 -0.3674  3.8327
 5030TIP3    H236582   1.079   4.013  10.973 -2.0440 -1.8909 -1.1540
 5031TIP3   OH236583   5.400   4.129   6.086 -0.2023 -0.0063  0.1161
 5031TIP3    H136584   5.435   4.041   6.103  0.9441 -0.2527 -2.8612
 5031TIP3    H236585   5.478   4.183   6.074 -0.8568  0.6665 -1.2642
 5032TIP3   OH236586   5.892   1.702   2.899  0.8193  0.1229 -0.1158
 5032TIP3    H136587   5.977   1.663   2.921  0.6123 -0.0419  0.4155
 5032TIP3    H236588   5.836   1.679   2.973  0.4841  0.7834 -0.1577
 5033TIP3   OH236589   1.002   4.695  13.841 -0.3931  0.2891 -0.6094
 5033TIP3    H136590   0.975   4.604  13.841  0.6115 -0.0264 -0.8834
 5033TIP3    H236591   0.976   4.728  13.927  0.6971 -0.7248  0.1442
 5034TIP3   OH236592   2.253   6.694  13.151  0.3089 -0.5555 -0.0638
 5034TIP3    H136593   2.239   6.633  13.079  1.3261 -1.2967  0.3548
 5034TIP3    H236594   2.169   6.696  13.198 -0.1286 -0.6231 -0.8320
 5035TIP3   OH236595   5.030   4.293   0.620  0.4486 -0.2893 -0.3090
 5035TIP3    H136596   5.100   4.228   0.625 -0.9786 -1.9444 -0.7531
 5035TIP3    H236597   5.003   4.306   0.710  0.5722 -0.4966 -0.2414
 5036TIP3   OH236598   6.302   0.315   3.714 -0.5477  0.1093  0.3237
 5036TIP3    H136599   6.242   0.382   3.680  0.0010  0.1746 -0.5527
 5036TIP3    H236600   6.254   0.233   3.705 -0.1129 -0.0032 -1.5019
 5037TIP3   OH236601   5.711   2.597   0.801 -0.1410 -0.1591  0.2213
 5037TIP3    H136602   5.616   2.592   0.789 -0.0274 -0.5283 -0.5950
 5037TIP3    H236603   5.726   2.561   0.888 -0.8069  0.5000  0.6218
 5038TIP3   OH236604   3.299   6.127  11.657 -0.0274  0.0573  0.6001
 5038TIP3    H136605   3.387   6.141  11.692 -0.8142  0.9159  2.3447
 5038TIP3    H236606   3.264   6.215  11.646 -0.0122 -0.1715 -2.0322
 5039TIP3   OH236607   4.422   1.783  13.773 -0.4326  0.7680  0.1825
 5039TIP3    H136608   4.334   1.770  13.736  0.4209 -0.7968 -1.4746
 5039TIP3    H236609   4.474   1.818  13.700  0.6827  0.1096  0.6370
 5040TIP3   OH236610   1.804   1.015  16.915 -0.5628  0.3408  0.6187
 5040TIP3    H136611   1.882   1.069  16.927 -1.0080  1.4241 -0.9834
 5040TIP3    H236612   1.830   0.928  16.944  1.5519  0.4576 -0.7088
 5041TIP3   OH236613   0.325   2.567  13.423 -0.0391 -0.1713 -0.6592
 5041TIP3    H136614   0.385   2.551  13.496 -0.1739  0.6546 -0.3592
 5041TIP3    H236615   0.338   2.492  13.364 -1.8516 -2.3173  1.4564
 5042TIP3   OH236616   5.575   0.895   0.112  0.6566 -0.4770 -0.4768
 5042TIP3    H136617   5.618   0.969   0.070  0.6800 -1.6436 -2.6689
 5042TIP3    H236618   5.489   0.928   0.138 -0.0932 -0.0769 -3.1376
 5043TIP3   OH236619   2.287   0.072   1.589 -0.3425 -0.0512 -0.6750
 5043TIP3    H136620   2.313  -0.008   1.544 -0.4541 -0.2444 -0.4008
 5043TIP3    H236621   2.353   0.084   1.657  0.1391  0.5424 -1.2350
 5044TIP3   OH236622   2.350   5.936  16.378  0.4391 -0.2748 -0.4379
 5044TIP3    H136623   2.381   5.852  16.411 -0.4981 -0.5240 -0.1494
 5044TIP3    H236624   2.414   5.999  16.408  1.6501 -0.9887 -1.4235
 5045TIP3   OH236625   1.646   4.829   3.831  0.3764 -0.0814 -0.2792
 5045TIP3    H136626   1.710   4.792   3.892 -0.1230  1.8506  1.4967
 5045TIP3    H236627   1.593   4.754   3.804  0.0261 -0.8910  2.3884
 5046TIP3   OH236628   6.284   4.819  14.014  0.3363  0.2769 -0.4082
 5046TIP3    H136629   6.278   4.832  13.920  0.2925  1.0458 -0.3041
 5046TIP3    H236630   6.334   4.894  14.046  0.5470 -0.0889  0.1580
 5047TIP3   OH236631   1.654   0.545   1.541  0.6548  0.6085  0.2809
 5047TIP3    H136632   1.603   0.472   1.576 -0.1006  0.4849 -1.0185
 5047TIP3    H236633   1.745   0.514   1.543  0.3273 -0.4251 -0.3887
 5048TIP3   OH236634   2.454   2.932   5.248  0.2148 -0.6776 -0.4119
 5048TIP3    H136635   2.412   3.000   5.301 -2.5028 -2.4410 -0.1106
 5048TIP3    H236636   2.502   2.878   5.312 -0.9074 -1.2842 -0.0468
 5049TIP3   OH236637   0.079   3.580  15.968  0.0968 -0.3485  0.0755
 5049TIP3    H136638   0.082   3.626  15.884  0.5941  1.8089  1.2122
 5049TIP3    H236639   0.169   3.548  15.980 -0.0398 -0.9030 -0.3096
 5050TIP3   OH236640   6.157   2.281  14.739  0.0092 -0.4683 -0.3964
 5050TIP3    H136641   6.238   2.317  14.775  0.1324 -0.8076 -0.3281
 5050TIP3    H236642   6.110   2.357  14.705 -0.1207 -0.1379  0.4939
 5051TIP3   OH236643   5.009   0.101   1.242 -0.0432 -0.4994  0.2358
 5051TIP3    H136644   5.078   0.036   1.260  1.2945  1.3893  2.6857
 5051TIP3    H236645   4.993   0.142   1.327 -1.7464  1.5100 -0.9673
 5052TIP3   OH236646   3.361   0.911   1.582 -0.5924 -0.1716 -0.4323
 5052TIP3    H136647   3.397   0.865   1.507 -1.1964  2.5560 -2.5490
 5052TIP3    H236648   3.271   0.933   1.556 -0.4879  1.6985  0.6576
 5053TIP3   OH236649   0.696   4.563  16.065 -0.1772 -0.5163  0.1336
 5053TIP3    H136650   0.687   4.598  16.154  2.2363  0.7451 -0.0509
 5053TIP3    H236651   0.640   4.619  16.012 -1.8231 -1.4201  0.8148
 5054TIP3   OH236652   3.517   0.792   3.275  0.0600 -0.0298  0.3179
 5054TIP3    H136653   3.470   0.741   3.210 -1.3362 -0.2280  1.4176
 5054TIP3    H236654   3.502   0.745   3.357  0.8018  0.8291  0.9638
 5055TIP3   OH236655   3.830   1.885   4.842 -0.1620  0.3019 -0.6009
 5055TIP3    H136656   3.760   1.832   4.804 -0.5506 -0.4013  0.9821
 5055TIP3    H236657   3.905   1.825   4.848  0.3286  0.8040 -1.4951
 5056TIP3   OH236658   2.624   2.170   4.489  0.5692 -0.2747  0.1924
 5056TIP3    H136659   2.607   2.238   4.423 -0.5440 -0.7040  0.0117
 5056TIP3    H236660   2.696   2.204   4.540  0.7724  0.5408 -0.6067
 5057TIP3   OH236661   3.150   1.018   1.464  0.0390  0.2447  0.4989
 5057TIP3    H136662   3.199   1.067   1.398  0.7594 -1.1115 -0.0193
 5057TIP3    H236663   3.060   1.050   1.456  0.0944  0.0715 -1.1910
 5058TIP3   OH236664   4.596   5.616  15.089 -0.4539  0.5488 -0.2042
 5058TIP3    H136665   4.525   5.607  15.153 -0.6377  0.0003 -0.4730
 5058TIP3    H236666   4.676   5.612  15.142 -0.6151  2.4114  0.2453
 5059TIP3   OH236667   5.456   0.942  12.052  0.1274  0.2473  0.1472
 5059TIP3    H136668   5.481   0.879  11.984 -1.3558  0.5655 -0.7341
 5059TIP3    H236669   5.480   0.899  12.134 -0.3694 -1.2572 -0.4575
 5060TIP3   OH236670   3.456   3.046  14.245  0.1044 -0.3214 -0.2270
 5060TIP3    H136671   3.427   2.956  14.263 -0.6792  0.1655  1.1037
 5060TIP3    H236672   3.462   3.087  14.331 -1.5215  1.5026 -0.9144
 5061TIP3   OH236673   2.624   6.819  13.871 -0.4009  0.0605 -0.2334
 5061TIP3    H136674   2.571   6.892  13.837  1.3482  1.2345 -0.5623
 5061TIP3    H236675   2.636   6.761  13.796 -1.6468 -0.5183 -0.0170
 5062TIP3   OH236676   4.598   2.247  13.347  0.5619  0.0869  0.0158
 5062TIP3    H136677   4.554   2.302  13.412  1.7149  1.9147 -0.6477
 5062TIP3    H236678   4.581   2.290  13.264  0.7120 -1.1296 -0.6675
 5063TIP3   OH236679   6.436   6.323   4.135  0.0853 -0.1943  0.4769
 5063TIP3    H136680   6.486   6.244   4.153 -2.1051 -1.9379 -0.5343
 5063TIP3    H236681   6.376   6.298   4.065 -0.0954  2.6686 -0.5236
 5064TIP3   OH236682   2.857   0.468  13.663 -0.2121 -0.1569 -0.2630
 5064TIP3    H136683   2.837   0.518  13.742 -1.9589 -1.4547  0.1839
 5064TIP3    H236684   2.933   0.414  13.686  1.2719  1.6961 -0.5441
 5065TIP3   OH236685   5.952   2.020   3.667 -0.6627 -0.2057 -0.4518
 5065TIP3    H136686   5.927   1.969   3.744  0.5522  0.7415  0.6235
 5065TIP3    H236687   5.981   1.955   3.603  0.2914 -0.9275  0.6736
 5066TIP3   OH236688   1.606   0.579   4.238 -0.4495 -0.6448 -0.0693
 5066TIP3    H136689   1.560   0.663   4.231  0.3146 -0.1916  0.1579
 5066TIP3    H236690   1.660   0.575   4.159  0.5197 -0.2825  0.5536
 5067TIP3   OH236691   1.943   3.114   5.059  0.7346  0.5706  0.5233
 5067TIP3    H136692   2.024   3.125   5.009  0.9025  0.3724  0.7502
 5067TIP3    H236693   1.873   3.122   4.993  1.0109 -2.3217 -0.2696
 5068TIP3   OH236694   4.036   3.225  16.014  0.3035 -0.0306  0.3763
 5068TIP3    H136695   4.052   3.131  16.004  2.2406  0.2577  0.5117
 5068TIP3    H236696   4.044   3.240  16.108  0.1456  0.2968  0.3382
 5069TIP3   OH236697   6.417   4.624  14.135 -0.5814  0.6010  0.2400
 5069TIP3    H136698   6.372   4.702  14.101 -0.0370  1.3429  1.1657
 5069TIP3    H236699   6.465   4.656  14.212 -2.1598 -1.1005  2.0382
 5070TIP3   OH236700   2.740   3.739   5.822  0.0406 -0.1811  0.1886
 5070TIP3    H136701   2.751   3.650   5.856  0.6538 -0.5295 -0.8564
 5070TIP3    H236702   2.746   3.728   5.727 -0.1033  0.9521  0.0421
 5071TIP3   OH236703   6.535   1.140  16.991 -0.0570  0.6206  0.2146
 5071TIP3    H136704   6.544   1.160  17.084 -2.1633 -1.6487  0.9921
 5071TIP3    H236705   6.611   1.086  16.970 -0.1734  0.1811  0.9116
 5072TIP3   OH236706   2.568   2.599  14.610  0.0350 -0.2516  0.2957
 5072TIP3    H136707   2.567   2.656  14.687 -0.0688  0.0346  0.0873
 5072TIP3    H236708   2.616   2.650  14.544 -0.5779 -0.1517 -0.0787
 5073TIP3   OH236709   3.213   0.793   1.861 -0.4422  0.0952  0.6050
 5073TIP3    H136710   3.212   0.725   1.929 -1.5245 -0.1693  0.3503
 5073TIP3    H236711   3.296   0.839   1.873 -0.3948 -0.2794  1.7724
 5074TIP3   OH236712   5.639   2.217  13.682 -0.4347  0.3073  0.4470
 5074TIP3    H136713   5.547   2.226  13.708 -0.5232  2.9839 -0.4925
 5074TIP3    H236714   5.683   2.290  13.725  0.9310  0.0562 -0.4778
 5075TIP3   OH236715   3.069   1.601   3.399  0.2560 -0.2816  0.2034
 5075TIP3    H136716   3.044   1.511   3.421  2.5035 -0.8636  0.6533
 5075TIP3    H236717   3.138   1.592   3.333  0.5356  1.1108  0.2608
 5076TIP3   OH236718   5.272   1.422   0.054  0.1702  0.1654  0.3040
 5076TIP3    H136719   5.326   1.496   0.083 -0.0178  0.6707 -0.5960
 5076TIP3    H236720   5.195   1.425   0.110 -0.5300  1.5750 -0.6781
 5077TIP3   OH236721   4.684   3.690   3.577  0.0915  0.0670  0.0154
 5077TIP3    H136722   4.742   3.713   3.504  0.5771  1.7102  0.8552
 5077TIP3    H236723   4.596   3.698   3.542  0.3194 -1.1095 -0.9016
 5078TIP3   OH236724   5.185   2.945   4.874  0.0204 -0.4655  0.0440
 5078TIP3    H136725   5.194   2.897   4.792  0.5978 -0.5366  0.1495
 5078TIP3    H236726   5.266   2.928   4.921  0.5712  1.2283 -0.2347
 5079TIP3   OH236727   3.819   2.943  11.909 -0.2728 -0.2415 -0.3531
 5079TIP3    H136728   3.825   2.992  11.991  2.8426 -2.7711  1.1590
 5079TIP3    H236729   3.861   3.000  11.844  0.0693  0.5387  0.5316
 5080TIP3   OH236730   0.735   2.017   2.937  0.7554  0.0745 -0.5084
 5080TIP3    H136731   0.779   1.940   2.974 -0.9596 -0.4550  0.5614
 5080TIP3    H236732   0.790   2.091   2.962  1.7460 -0.6843 -0.3978
 5081TIP3   OH236733   0.201   0.717   1.486 -0.2514 -0.3879  0.0888
 5081TIP3    H136734   0.224   0.776   1.557  0.1284  0.9485 -1.0944
 5081TIP3    H236735   0.166   0.774   1.417 -1.1787 -1.6911 -0.5814
 5082TIP3   OH236736   1.563   2.484   2.227 -0.8961 -0.1660 -0.1560
 5082TIP3    H136737   1.556   2.579   2.220  0.1464 -0.0336  0.4143
 5082TIP3    H236738   1.580   2.455   2.137  1.4405  0.4728 -0.0083
 5083TIP3   OH236739   0.928   5.408  15.435  0.4731 -0.2859  0.2675
 5083TIP3    H136740   0.971   5.323  15.449  1.9099  0.5553  1.2051
 5083TIP3    H236741   0.910   5.409  15.341  4.0360 -0.0904 -0.5642
 5084TIP3   OH236742   6.362   6.382   1.251 -0.3381 -0.2418 -0.4424
 5084TIP3    H136743   6.398   6.466   1.223 -2.0705 -0.0276 -2.2550
 5084TIP3    H236744   6.438   6.324   1.257  0.9916  1.5458  1.5286
 5085TIP3   OH236745   6.076   2.131   4.547  0.2576  0.1077  0.5371
 5085TIP3    H136746   5.983   2.125   4.526 -0.3049 -0.5440  2.8780
 5085TIP3    H236747   6.078   2.150   4.641  2.5050  1.6751  0.2388
 5086TIP3   OH236748   2.639   2.908   6.030 -0.4585 -0.3060 -0.4397
 5086TIP3    H136749   2.584   2.920   6.108  0.0194  0.4052 -0.2121
 5086TIP3    H236750   2.713   2.966   6.043 -0.9330  0.6854 -1.9718
 5087TIP3   OH236751   6.644   3.711   1.028  0.7844 -0.0850  0.4155
 5087TIP3    H136752   6.585   3.641   1.000  0.1947  0.8578 -0.7485
 5087TIP3    H236753   6.731   3.682   1.001  0.5099 -0.2558 -0.2826
 5088TIP3   OH236754   4.668   1.569  12.205  0.4367 -0.4430 -0.0980
 5088TIP3    H136755   4.748   1.613  12.232  0.1427  0.0012  0.0599
 5088TIP3    H236756   4.625   1.631  12.145 -0.4236 -0.1063  0.8305
 5089TIP3   OH236757   0.116   3.235   2.024 -0.3824 -0.0560  0.3148
 5089TIP3    H136758   0.077   3.299   1.964 -1.5560 -1.6229 -0.7095
 5089TIP3    H236759   0.045   3.214   2.085  0.3275  0.3729  1.3193
 5090TIP3   OH236760   6.157   5.530   4.133 -0.0813  0.6763 -0.4662
 5090TIP3    H136761   6.127   5.615   4.164  1.4288  0.6251  1.3480
 5090TIP3    H236762   6.252   5.533   4.142  0.1947 -0.5036 -2.3313
 5091TIP3   OH236763   1.618   5.549   2.691 -0.1461 -0.2420 -0.4263
 5091TIP3    H136764   1.675   5.516   2.622  0.3665 -1.1351  0.4089
 5091TIP3    H236765   1.678   5.582   2.758 -0.6381  1.0657 -0.6015
 5092TIP3   OH236766   1.631   5.001  13.641 -0.1721 -0.2514  0.1259
 5092TIP3    H136767   1.537   4.985  13.648 -0.4714 -0.0948 -2.5840
 5092TIP3    H236768   1.657   4.956  13.560  1.4867  2.0735 -0.7330
 5093TIP3   OH236769   4.376   5.125   5.575 -0.1639 -0.4123 -0.7661
 5093TIP3    H136770   4.380   5.168   5.489  0.9829 -1.1812 -1.1078
 5093TIP3    H236771   4.282   5.112   5.590 -0.3775 -0.3393 -1.9311
 5094TIP3   OH236772   5.723   5.128  16.579 -0.3807  0.3132 -0.3610
 5094TIP3    H136773   5.767   5.105  16.497  0.9970 -1.2595  0.7497
 5094TIP3    H236774   5.684   5.046  16.610  0.2536  0.5595  1.1973
 5095TIP3   OH236775   5.790   5.477   1.646 -0.3307 -0.0056  0.2645
 5095TIP3    H136776   5.855   5.545   1.661 -0.6948  0.1208  1.3532
 5095TIP3    H236777   5.820   5.404   1.700 -0.7824 -0.1518  0.3188
 5096TIP3   OH236778   4.977   2.426   1.842  0.1177  0.4108 -0.0546
 5096TIP3    H136779   5.048   2.418   1.906  0.0289  0.2984  0.0298
 5096TIP3    H236780   4.897   2.419   1.894  0.0285  1.6571  0.0129
 5097TIP3   OH236781   1.046   0.576   1.317  0.0218 -0.3251  0.2512
 5097TIP3    H136782   1.045   0.502   1.377  2.4479 -1.0224 -0.4770
 5097TIP3    H236783   1.117   0.632   1.350 -0.1965  0.4760 -0.6039
 5098TIP3   OH236784   2.532   4.003  12.852 -0.4340 -0.3584 -0.0521
 5098TIP3    H136785   2.470   4.038  12.789  1.8889  1.0698 -1.7247
 5098TIP3    H236786   2.576   3.932  12.806 -1.2768 -1.8893  1.3865
 5099TIP3   OH236787   6.471   6.798   5.349 -0.0953 -0.0621 -0.5016
 5099TIP3    H136788   6.448   6.733   5.282  1.9289  0.1371 -1.4665
 5099TIP3    H236789   6.536   6.754   5.403 -1.7515 -0.2374  1.4467
 5100TIP3   OH236790   4.484   4.045   1.537  0.1707  0.3171 -0.1451
 5100TIP3    H136791   4.397   4.009   1.556  0.3568  0.1127  0.3442
 5100TIP3    H236792   4.474   4.089   1.453 -0.8101  1.6898  0.6572
 5101TIP3   OH236793   1.210   5.174   5.417  0.0727  0.0572  0.1448
 5101TIP3    H136794   1.297   5.205   5.392  0.7053 -2.4298 -1.0302
 5101TIP3    H236795   1.226   5.096   5.469 -1.4653 -0.0814  0.4642
 5102TIP3   OH236796   2.603   1.605  14.071  0.4506 -0.4702  0.1794
 5102TIP3    H136797   2.698   1.608  14.086  0.4297 -4.1759  2.2955
 5102TIP3    H236798   2.565   1.632  14.155 -0.2268 -2.1992  0.4603
 5103TIP3   OH236799   4.700   0.270   1.684 -0.1550  0.7980 -0.1971
 5103TIP3    H136800   4.746   0.217   1.750  1.4562  0.7804 -1.2719
 5103TIP3    H236801   4.688   0.210   1.610  0.6273  1.5727 -0.9791
 5104TIP3   OH236802   6.556   3.726   5.413  0.3701  0.0833 -0.9638
 5104TIP3    H136803   6.516   3.749   5.329 -1.8186 -0.2407 -0.0754
 5104TIP3    H236804   6.548   3.806   5.466 -2.2575 -0.8828  0.3039
 5105TIP3   OH236805   0.775   6.457  11.865  0.3331 -0.0959  0.0551
 5105TIP3    H136806   0.717   6.381  11.859  0.2279  0.0709 -1.2973
 5105TIP3    H236807   0.863   6.420  11.869  0.2746 -0.2883 -0.4446
 5106TIP3   OH236808   0.437   5.434  17.310 -0.3878  0.0750 -0.0795
 5106TIP3    H136809   0.359   5.413  17.362 -1.8823  1.3375 -1.7092
 5106TIP3    H236810   0.482   5.350  17.301 -1.1697 -0.5573  1.4841
 5107TIP3   OH236811   4.977   2.252  11.355 -0.1327 -0.1978 -0.3542
 5107TIP3    H136812   4.964   2.258  11.449  0.2610 -1.5631 -0.1869
 5107TIP3    H236813   4.900   2.295  11.317  0.5917  2.0468  0.5468
 5108TIP3   OH236814   6.102   5.918  11.273 -0.0688  0.1464  0.2181
 5108TIP3    H136815   6.021   5.901  11.224 -0.0423 -1.4812  0.6648
 5108TIP3    H236816   6.168   5.934  11.206 -0.9770  2.8902 -0.1400
 5109TIP3   OH236817   2.160   2.879   6.190 -0.9782 -0.1399  0.1834
 5109TIP3    H136818   2.150   2.877   6.095 -1.3029  1.0858  0.1803
 5109TIP3    H236819   2.188   2.968   6.209  0.8369 -0.8495  1.0867
 5110TIP3   OH236820   2.273   3.104   1.793 -0.7267 -0.2133 -0.8567
 5110TIP3    H136821   2.237   3.193   1.792 -1.2915 -0.4109  0.4950
 5110TIP3    H236822   2.214   3.055   1.850 -0.3697 -1.4514 -1.5195
 5111TIP3   OH236823   5.517   3.372  11.911 -0.6053 -0.2812 -0.2404
 5111TIP3    H136824   5.489   3.338  11.827 -1.1420  1.6812 -0.8960
 5111TIP3    H236825   5.500   3.466  11.907  0.9386  0.1374  1.4198
 5112TIP3   OH236826   3.914   5.054  12.059 -0.7231  0.0636  0.2676
 5112TIP3    H136827   3.942   5.145  12.058  2.1801 -0.7255  0.9214
 5112TIP3    H236828   3.935   5.023  12.147 -1.4120 -1.3067 -0.0163
 5113TIP3   OH236829   5.962   4.192  13.396  0.3058 -0.3715  0.7163
 5113TIP3    H136830   5.895   4.125  13.389  0.0197 -0.1030  0.8710
 5113TIP3    H236831   6.018   4.178  13.320  0.4884 -1.0450  0.9672
 5114TIP3   OH236832   4.977   4.621   1.848  0.3372 -0.7340 -1.0418
 5114TIP3    H136833   5.062   4.579   1.859  0.2544 -0.4564  0.9483
 5114TIP3    H236834   4.995   4.696   1.791  1.3837 -0.8340 -0.8686
 5115TIP3   OH236835   6.526   1.090   0.823  0.1634 -0.0427  0.5225
 5115TIP3    H136836   6.439   1.107   0.786  1.4926  0.9573 -2.4648
 5115TIP3    H236837   6.540   0.996   0.808  0.0633  0.0433 -0.1581
 5116TIP3   OH236838   4.988   5.599   1.318  0.3246 -0.2251  0.2332
 5116TIP3    H136839   5.035   5.615   1.236 -0.2635  0.7267  0.0576
 5116TIP3    H236840   4.916   5.541   1.294  0.1375  0.0737  0.0628
 5117TIP3   OH236841   5.939   5.318   3.621 -0.0316  0.8758  0.0482
 5117TIP3    H136842   5.923   5.243   3.564  1.7714 -0.5265  1.2887
 5117TIP3    H236843   6.026   5.303   3.657 -1.3291  1.2101  3.7807
 5118TIP3   OH236844   3.881   3.207  12.638 -0.3895 -0.4092  0.0483
 5118TIP3    H136845   3.803   3.262  12.651 -3.6292 -4.3978 -0.5198
 5118TIP3    H236846   3.913   3.189  12.726  0.1992  1.4724  0.2789
 5119TIP3   OH236847   2.299   1.873  14.122 -0.1189 -0.0018  0.4316
 5119TIP3    H136848   2.356   1.855  14.197  1.4408 -0.4940 -0.8159
 5119TIP3    H236849   2.257   1.956  14.144  1.5379  0.6916  1.1818
 5120TIP3   OH236850   3.906   1.469  15.499  0.4590  0.4391  0.1211
 5120TIP3    H136851   3.957   1.414  15.559 -1.2059 -1.5153 -0.1346
 5120TIP3    H236852   3.860   1.530  15.556 -2.7608 -2.7297  1.3135
 5121TIP3   OH236853   2.799   4.927  12.678 -0.3499 -0.0985 -0.7602
 5121TIP3    H136854   2.868   4.869  12.711  0.7078  1.9808  0.9644
 5121TIP3    H236855   2.846   4.995  12.631 -1.4819 -0.0985 -1.9177
 5122TIP3   OH236856   2.535   2.065   3.186 -0.6760  0.0798 -0.4498
 5122TIP3    H136857   2.532   2.075   3.281 -0.2575 -1.2420 -0.2759
 5122TIP3    H236858   2.612   2.010   3.171 -1.3785 -0.6477 -1.4712
 5123TIP3   OH236859   0.626   0.056   5.620  0.2633 -0.1244  0.0592
 5123TIP3    H136860   0.599   0.147   5.631 -1.0514 -0.3386 -1.0040
 5123TIP3    H236861   0.567   0.007   5.678  1.3290 -0.2742  1.0453
 5124TIP3   OH236862   2.019   4.720   0.718 -0.4677  0.6466 -0.4744
 5124TIP3    H136863   2.007   4.755   0.629  0.3549 -0.7054 -1.1526
 5124TIP3    H236864   1.939   4.745   0.764 -1.5058  0.2851 -1.9812
 5125TIP3   OH236865   2.647   0.733   5.529  0.8914  0.1709  0.1741
 5125TIP3    H136866   2.610   0.808   5.575  1.2404  1.0379 -0.8952
 5125TIP3    H236867   2.572   0.688   5.491  0.6817  0.0015  0.7891
 5126TIP3   OH236868   2.426   2.658   5.675  0.3066  0.1018  0.2189
 5126TIP3    H136869   2.367   2.584   5.664 -1.2334  1.4596 -1.1093
 5126TIP3    H236870   2.432   2.670   5.770  0.0251 -1.2583  0.4269
 5127TIP3   OH236871   4.612   5.661   0.077 -0.2697  0.3344  0.3885
 5127TIP3    H136872   4.633   5.707  -0.004 -1.5808 -0.6926 -0.5741
 5127TIP3    H236873   4.688   5.606   0.094  1.1134  2.4143  1.2958
 5128TIP3   OH236874   2.993   3.095  16.592  0.6156 -0.2097  0.3999
 5128TIP3    H136875   2.938   3.113  16.516  0.1598 -0.0301  0.7704
 5128TIP3    H236876   3.040   3.015  16.569 -0.1290 -0.6119  0.2528
 5129TIP3   OH236877   5.509   1.270  10.652 -0.1118  0.1957 -0.1365
 5129TIP3    H136878   5.463   1.198  10.608  0.5234 -1.0697  1.2185
 5129TIP3    H236879   5.492   1.346  10.595 -2.7733 -0.4645 -0.3869
 5130TIP3   OH236880   3.437   4.390   3.618  0.1657  0.2550 -0.4681
 5130TIP3    H136881   3.428   4.469   3.671  2.4299 -0.0852  0.5003
 5130TIP3    H236882   3.398   4.414   3.534 -0.7271  1.8126  0.3250
 5131TIP3   OH236883   0.051   3.572   1.019 -0.6245 -0.0547 -0.0344
 5131TIP3    H136884   0.072   3.514   0.945 -1.7604 -0.3817 -0.1206
 5131TIP3    H236885   0.016   3.513   1.086  1.8373  0.0141  1.4067
 5132TIP3   OH236886   2.410   0.838   1.020 -0.2519  0.5864 -0.2206
 5132TIP3    H136887   2.468   0.883   1.081 -1.3116 -0.7574  1.8787
 5132TIP3    H236888   2.323   0.872   1.039 -1.1944 -2.5350  1.8728
 5133TIP3   OH236889   3.943   6.695   4.466 -0.1807  0.0199  0.2318
 5133TIP3    H136890   3.939   6.783   4.502 -0.2449  0.3730 -0.6061
 5133TIP3    H236891   3.853   6.663   4.471 -0.1448 -0.0234  0.5986
 5134TIP3   OH236892   2.813   0.674  15.761  0.1301 -0.5476  0.0041
 5134TIP3    H136893   2.877   0.668  15.690  0.4915  0.8635  0.1950
 5134TIP3    H236894   2.783   0.764  15.758 -0.3616 -0.6673  1.2144
 5135TIP3   OH236895   0.877   5.355  16.161  0.3910 -0.4287  0.3013
 5135TIP3    H136896   0.920   5.432  16.198  0.8362 -0.4684 -0.1275
 5135TIP3    H236897   0.946   5.288  16.159  0.6348 -0.1516 -1.4828
 5136TIP3   OH236898   0.558   1.893  10.869  0.2680 -0.3661  0.5460
 5136TIP3    H136899   0.516   1.929  10.791 -0.5637 -0.1363  1.0894
 5136TIP3    H236900   0.641   1.940  10.875 -0.0862  0.3078  0.3362
 5137TIP3   OH236901   4.980   5.609  16.194 -0.4153 -0.5490  0.3809
 5137TIP3    H136902   4.969   5.641  16.283  0.1723  0.0400  0.2468
 5137TIP3    H236903   4.903   5.554  16.179 -0.3070 -1.0146  1.4011
 5138TIP3   OH236904   1.632   6.546  12.143  0.2041  0.8979  0.3256
 5138TIP3    H136905   1.626   6.477  12.077  0.2767 -0.5388  1.7768
 5138TIP3    H236906   1.541   6.570  12.161  0.0023 -0.6771  1.6537
 5139TIP3   OH236907   2.852   3.806   0.887  0.5420  0.3858 -0.3590
 5139TIP3    H136908   2.812   3.884   0.849 -2.2455 -0.4110  0.6810
 5139TIP3    H236909   2.941   3.833   0.911 -0.0319  2.9498 -0.8539
 5140TIP3   OH236910   0.472   0.355  16.112  0.1867 -0.4452  0.2622
 5140TIP3    H136911   0.474   0.349  16.208 -0.8323 -1.5886  0.2341
 5140TIP3    H236912   0.394   0.306  16.086  0.4027 -0.0914 -1.1641
 5141TIP3   OH236913   6.644   4.540   5.298 -0.7139 -0.2350 -0.1374
 5141TIP3    H136914   6.678   4.570   5.214  0.0698  3.1209  1.1985
 5141TIP3    H236915   6.719   4.504   5.344 -0.7813 -0.5320 -0.2598
 5142TIP3   OH236916   5.515   4.215   0.501 -0.0691 -0.0755  0.2188
 5142TIP3    H136917   5.586   4.150   0.503 -0.4004 -0.4287  0.6505
 5142TIP3    H236918   5.492   4.221   0.408 -0.8002 -1.4283  0.2919
 5143TIP3   OH236919   5.918   2.274  13.253 -0.7465 -0.5929 -0.0777
 5143TIP3    H136920   5.848   2.261  13.317  0.2717  0.8784  1.4476
 5143TIP3    H236921   5.878   2.325  13.183 -0.8269  2.0145  1.7335
 5144TIP3   OH236922   2.973   0.253  15.583 -0.3380 -0.0296  0.2367
 5144TIP3    H136923   2.993   0.168  15.544 -0.4990 -1.0292  2.1963
 5144TIP3    H236924   3.053   0.278  15.629 -0.6566  0.3333  0.6024
 5145TIP3   OH236925   5.595   2.998  13.442  0.0518  0.4845  0.0702
 5145TIP3    H136926   5.647   3.034  13.514  1.1784 -0.9721  0.0260
 5145TIP3    H236927   5.624   2.907  13.435 -1.9370 -0.1530 -0.4945
 5146TIP3   OH236928   4.963   4.922  10.901 -0.1885  0.3208  0.5187
 5146TIP3    H136929   5.029   4.907  10.834  0.3542  0.1912  1.0729
 5146TIP3    H236930   4.946   5.017  10.898  1.4775  0.7160  1.6766
 5147TIP3   OH236931   2.256   1.916   6.611  0.4436 -0.2971 -0.6854
 5147TIP3    H136932   2.321   1.985   6.598  0.9470 -1.0437 -2.4388
 5147TIP3    H236933   2.305   1.835   6.599 -0.0395 -1.0337  1.7539
 5148TIP3   OH236934   0.620   3.611   3.187 -0.0024  0.3550  0.5093
 5148TIP3    H136935   0.713   3.608   3.209 -0.0895  1.1475  1.0369
 5148TIP3    H236936   0.592   3.699   3.213 -1.0860 -0.1529  1.1325
 5149TIP3   OH236937   1.715   4.141  16.137  0.0535 -0.0190 -0.8583
 5149TIP3    H136938   1.635   4.100  16.169 -0.4821  0.2805 -1.7807
 5149TIP3    H236939   1.751   4.077  16.074  0.3041  0.0355 -0.7719
 5150TIP3   OH236940   6.163   1.147  17.102 -0.0768  0.0523  0.6726
 5150TIP3    H136941   6.092   1.158  17.165  0.3438  2.8339  0.7687
 5150TIP3    H236942   6.120   1.151  17.017 -0.3786 -1.5431  0.7186
 5151TIP3   OH236943   2.831   5.846  15.127  0.0176  0.2257  0.4029
 5151TIP3    H136944   2.862   5.775  15.183 -1.4742 -0.1720  0.7820
 5151TIP3    H236945   2.902   5.860  15.064  0.1686 -1.9336  0.0184
 5152TIP3   OH236946   4.988   1.497   3.169  0.1526  0.1186  0.9829
 5152TIP3    H136947   4.936   1.457   3.099  0.1838 -0.2907  1.1952
 5152TIP3    H236948   4.949   1.584   3.180  0.8514  0.6305 -0.3155
 5153TIP3   OH236949   6.616   0.791  11.571  0.0232 -0.3518 -0.1469
 5153TIP3    H136950   6.610   0.877  11.529  0.6096 -0.1481  0.1750
 5153TIP3    H236951   6.629   0.730  11.498 -1.4451 -0.3079 -0.4755
 5154TIP3   OH236952   2.638   4.925  16.393  0.5633  0.7285 -0.0555
 5154TIP3    H136953   2.553   4.949  16.429  0.0888  0.1101 -0.7264
 5154TIP3    H236954   2.694   5.001  16.411  0.6154  0.1293  2.7330
 5155TIP3   OH236955   4.858   6.671  15.198 -0.3779  0.4043  0.4373
 5155TIP3    H136956   4.941   6.696  15.156 -1.0978 -1.5180 -2.4110
 5155TIP3    H236957   4.879   6.590  15.244 -0.5243  0.3269  0.3651
 5156TIP3   OH236958   1.732   4.761  12.484 -0.3269  0.1089 -0.1916
 5156TIP3    H136959   1.735   4.802  12.398 -2.4230  2.7932  0.8757
 5156TIP3    H236960   1.659   4.699  12.478 -0.5746  0.4091 -0.2976
 5157TIP3   OH236961   4.786   3.927   1.195  0.1965 -0.6136 -0.1861
 5157TIP3    H136962   4.836   3.962   1.268 -2.1172  1.8962  0.3731
 5157TIP3    H236963   4.835   3.953   1.117  0.5438  0.4812  0.3784
 5158TIP3   OH236964   3.207   0.532   1.054  0.4474 -0.6693 -0.1996
 5158TIP3    H136965   3.296   0.557   1.032 -0.3873  1.8030 -1.0708
 5158TIP3    H236966   3.193   0.449   1.007  3.0220 -2.5614  2.0305
 5159TIP3   OH236967   5.882   4.851   1.331  0.0412  0.2060  0.0725
 5159TIP3    H136968   5.948   4.891   1.388 -0.7765  0.4614  0.8784
 5159TIP3    H236969   5.803   4.903   1.348 -1.1375 -1.8885  1.3478
 5160TIP3   OH236970   1.576   3.781  12.880 -0.2984 -0.3704  0.1793
 5160TIP3    H136971   1.598   3.707  12.824 -1.7599  0.2439 -1.2529
 5160TIP3    H236972   1.633   3.852  12.850  0.9590 -0.7984  1.4203
 5161TIP3   OH236973   5.189   3.581  14.632  0.0827 -0.3681 -0.7509
 5161TIP3    H136974   5.199   3.510  14.568  0.8272 -0.5744 -0.4159
 5161TIP3    H236975   5.267   3.636  14.619 -1.0903  1.1371 -1.8889
 5162TIP3   OH236976   0.958   6.178  16.929  0.1510  0.6587  0.1432
 5162TIP3    H136977   0.884   6.190  16.990 -0.0815  1.8162 -0.3409
 5162TIP3    H236978   0.974   6.265  16.894 -1.5133 -0.3079 -3.5389
 5163TIP3   OH236979   4.665   3.163   0.897 -0.0076 -0.4310  0.3165
 5163TIP3    H136980   4.587   3.119   0.864  0.5807 -1.9369  0.8618
 5163TIP3    H236981   4.631   3.230   0.956 -0.9279 -0.1505 -0.5060
 5164TIP3   OH236982   6.235   2.080  14.236 -0.7100 -0.1279 -0.0277
 5164TIP3    H136983   6.184   2.080  14.317  0.1589 -1.5168  0.5540
 5164TIP3    H236984   6.325   2.092  14.264 -0.3598 -0.9417 -0.7434
 5165TIP3   OH236985   4.616   1.605   3.604 -0.5015 -0.1649 -0.5441
 5165TIP3    H136986   4.618   1.676   3.539 -0.5734 -0.0837 -0.4583
 5165TIP3    H236987   4.688   1.625   3.663 -2.0695  1.2779  0.9854
 5166TIP3   OH236988   6.112   1.905  13.469  0.0002  0.1121 -0.0270
 5166TIP3    H136989   6.038   1.965  13.466 -1.3348 -1.4552  0.6081
 5166TIP3    H236990   6.074   1.819  13.484  1.8765 -0.9093 -0.7406
 5167TIP3   OH236991   1.183   5.648  10.421  0.6562 -0.2352 -0.3474
 5167TIP3    H136992   1.173   5.695  10.338 -0.3289  0.2707  0.0453
 5167TIP3    H236993   1.094   5.636  10.453  1.0503  0.0733  0.9179
 5168TIP3   OH236994   1.331   0.070   6.036  0.6126  0.0719  0.1049
 5168TIP3    H136995   1.374   0.088   6.120  0.5363 -0.4700  0.2658
 5168TIP3    H236996   1.249   0.027   6.061 -0.6141  2.1206 -0.1264
 5169TIP3   OH236997   1.265   6.022  13.168 -0.1009 -0.0962 -0.2782
 5169TIP3    H136998   1.169   6.022  13.161 -0.0278  0.5504 -1.6943
 5169TIP3    H236999   1.286   6.108  13.204  0.0438  1.0246 -2.8032
 5170TIP3   OH237000   4.237   3.445  17.178 -0.9530  0.3635 -0.0153
 5170TIP3    H137001   4.196   3.531  17.186 -0.3693  0.5858  0.7094
 5170TIP3    H237002   4.205   3.396  17.254 -0.2292  0.3922  0.3125
 5171TIP3   OH237003   2.064   1.144   1.363 -0.3456  0.4243 -0.2971
 5171TIP3    H137004   2.002   1.216   1.377 -0.3250  0.4690 -0.4375
 5171TIP3    H237005   2.072   1.102   1.449 -0.3950  0.5601 -0.2266
 5172TIP3   OH237006   4.006   6.523  12.583 -0.4680  0.3833 -0.0641
 5172TIP3    H137007   3.977   6.582  12.514 -0.3996  2.1089  1.3090
 5172TIP3    H237008   4.093   6.556  12.606 -0.3464 -0.3852  0.5973
 5173TIP3   OH237009   0.277   3.347   5.533  0.2843 -0.0516 -0.2583
 5173TIP3    H137010   0.282   3.332   5.439  1.6878 -1.4914 -0.0056
 5173TIP3    H237011   0.342   3.287   5.570 -1.7189 -1.1370  1.7935
 5174TIP3   OH237012   2.136   2.294   2.597  0.4579  0.0605  0.0949
 5174TIP3    H137013   2.167   2.351   2.526  0.7432  1.4588  1.2961
 5174TIP3    H237014   2.214   2.245   2.624  0.8622  1.0686  0.8183
 5175TIP3   OH237015   1.264   0.261   3.348  0.3329  0.4654 -0.8089
 5175TIP3    H137016   1.275   0.230   3.258 -0.2162  0.0873 -0.7492
 5175TIP3    H237017   1.191   0.210   3.383 -0.7145  1.9181 -0.7562
 5176TIP3   OH237018   4.212   4.248   4.595 -0.0088 -0.0527  0.2191
 5176TIP3    H137019   4.171   4.219   4.677 -0.9950  0.1172 -0.2077
 5176TIP3    H237020   4.167   4.330   4.573  2.8614  2.0606  1.5217
 5177TIP3   OH237021   6.807   3.667  12.208  0.3754 -0.2677 -0.5537
 5177TIP3    H137022   6.713   3.686  12.211 -0.0585 -2.1421 -1.2192
 5177TIP3    H237023   6.837   3.705  12.125  0.5643  1.6362  0.3283
 5178TIP3   OH237024   3.276   0.058  13.277 -0.3066 -0.8324 -0.6329
 5178TIP3    H137025   3.230  -0.024  13.259 -0.8448  0.0721 -3.9034
 5178TIP3    H237026   3.368   0.037  13.264 -0.0512 -1.6386  1.8845
 5179TIP3   OH237027   2.856   4.301  11.166  0.2354 -0.1121 -0.4625
 5179TIP3    H137028   2.896   4.268  11.086  2.0504  1.3805 -0.2356
 5179TIP3    H237029   2.902   4.383  11.184 -0.4123 -0.1957  1.8816
 5180TIP3   OH237030   0.583   5.320   5.759  0.0446 -0.0920  0.4916
 5180TIP3    H137031   0.610   5.291   5.672 -1.2850 -0.0963  0.0515
 5180TIP3    H237032   0.496   5.282   5.771  0.2026 -0.0849  1.8255
 5181TIP3   OH237033   2.482   4.103  16.282  0.5100 -0.2864 -0.1894
 5181TIP3    H137034   2.577   4.115  16.285  0.6482 -0.9710  3.8235
 5181TIP3    H237035   2.449   4.160  16.351 -1.5114 -2.8216  1.0942
 5182TIP3   OH237036   1.221   4.954   5.581  0.1930  0.3194 -0.5675
 5182TIP3    H137037   1.166   4.959   5.660  1.3719  1.0451  0.2562
 5182TIP3    H237038   1.194   4.873   5.538 -2.2674  1.1697 -0.8086
 5183TIP3   OH237039   6.640   4.488  13.997 -0.0911 -0.2523 -0.1683
 5183TIP3    H137040   6.585   4.537  14.059 -0.2969 -0.5803 -0.0871
 5183TIP3    H237041   6.693   4.431  14.053  0.1378 -0.1321 -0.2626
 5184TIP3   OH237042   4.397   5.832   3.337  0.2028  0.0813  0.1687
 5184TIP3    H137043   4.449   5.911   3.351 -0.1048  0.2233  0.5322
 5184TIP3    H237044   4.447   5.763   3.380  1.3995 -0.2862 -1.6975
 5185TIP3   OH237045   5.753   4.853  15.729  0.5769 -0.0504  0.3466
 5185TIP3    H137046   5.675   4.867  15.675 -1.3772 -2.8286  2.1958
 5185TIP3    H237047   5.773   4.940  15.765 -0.3656  1.1184 -1.7663
 5186TIP3   OH237048   4.291   1.833   4.241 -0.1839  0.2373  0.3342
 5186TIP3    H137049   4.276   1.792   4.156  2.2815 -0.2234  0.0583
 5186TIP3    H237050   4.264   1.924   4.230  0.2769  0.2224 -1.0087
 5187TIP3   OH237051   4.924   0.379  13.966  0.1322 -0.4189  0.1603
 5187TIP3    H137052   4.964   0.349  13.884  0.6883  0.2479  0.1759
 5187TIP3    H237053   4.956   0.469  13.976 -1.6014  0.2467  0.0318
 5188TIP3   OH237054   6.563   1.658  11.296 -0.4537  0.1405 -0.1830
 5188TIP3    H137055   6.537   1.732  11.241 -0.5370  0.2442 -0.0069
 5188TIP3    H237056   6.569   1.584  11.236  1.4539  0.6587 -0.7244
 5189TIP3   OH237057   0.225   4.578  11.003 -0.3504 -0.0586  0.1576
 5189TIP3    H137058   0.298   4.601  10.944  0.3786 -0.1187  1.0042
 5189TIP3    H237059   0.158   4.541  10.946  0.5639 -0.6442 -0.5717
 5190TIP3   OH237060   4.194   0.136   3.813  0.4891 -0.3753 -0.2266
 5190TIP3    H137061   4.231   0.062   3.862  1.1007  0.3265  0.4026
 5190TIP3    H237062   4.106   0.147   3.848  1.3146  0.8583  1.6076
 5191TIP3   OH237063   3.384   5.191   0.055  0.1643  0.2445 -0.0611
 5191TIP3    H137064   3.343   5.105   0.056 -2.1256  1.2654 -0.6525
 5191TIP3    H237065   3.445   5.190   0.129 -0.9818 -1.3302  0.9121
 5192TIP3   OH237066   4.279   1.465   1.838  0.7219  0.1736  0.4956
 5192TIP3    H137067   4.205   1.511   1.799  0.1561  0.0623  1.3990
 5192TIP3    H237068   4.283   1.498   1.928  0.3214 -1.4689  1.1676
 5193TIP3   OH237069   5.245   2.032  17.154 -0.5973 -0.0877  0.4497
 5193TIP3    H137070   5.184   2.048  17.083  0.3767  0.6533 -0.2449
 5193TIP3    H237071   5.332   2.039  17.114 -0.0322 -0.2064  1.5938
 5194TIP3   OH237072   0.084   2.870  12.327 -0.0495 -0.0359 -0.6272
 5194TIP3    H137073   0.172   2.879  12.364  0.2488 -0.7808 -1.1360
 5194TIP3    H237074   0.085   2.924  12.248  0.2741 -0.8076 -1.1653
 5195TIP3   OH237075   4.392   3.534  15.744  0.2723  0.2411  0.6512
 5195TIP3    H137076   4.309   3.506  15.705  1.0859  0.1608 -1.1038
 5195TIP3    H237077   4.394   3.491  15.830 -0.9320 -0.7542  0.2095
 5196TIP3   OH237078   3.495   2.512   5.766  0.3484 -0.2774  0.2795
 5196TIP3    H137079   3.578   2.555   5.786  0.1317  1.2144 -1.6467
 5196TIP3    H237080   3.429   2.579   5.782 -0.2886 -0.8113 -0.0515
 5197TIP3   OH237081   5.922   1.432  11.993 -0.1925  0.2774  0.3679
 5197TIP3    H137082   5.998   1.464  12.042  1.2610 -0.2254 -1.4303
 5197TIP3    H237083   5.937   1.338  11.985  0.3103  0.5065 -2.0669
 5198TIP3   OH237084   0.580   0.120   1.003  0.4822 -0.1095  0.1921
 5198TIP3    H137085   0.558   0.045   1.058 -1.5318  0.1583 -0.1806
 5198TIP3    H237086   0.579   0.087   0.914 -0.3119  0.3240  0.0319
 5199TIP3   OH237087   3.752   4.016  15.564 -0.0646  0.0034  0.1909
 5199TIP3    H137088   3.710   4.005  15.650  1.2982  0.1081  0.9097
 5199TIP3    H237089   3.680   4.014  15.501 -1.1129  0.0529  1.3484
 5200TIP3   OH237090   1.412   3.968   4.013 -0.3037  0.1490  0.2173
 5200TIP3    H137091   1.426   4.041   4.073 -0.1193  0.4832 -0.2231
 5200TIP3    H237092   1.464   3.991   3.935 -0.4713 -0.3136 -0.0349
 5201TIP3   OH237093   4.494   3.556   4.844 -0.6209  0.2314  0.3421
 5201TIP3    H137094   4.497   3.605   4.926  0.9437  1.7281 -0.5572
 5201TIP3    H237095   4.512   3.621   4.777 -1.0576 -1.1252 -1.1434
 5202TIP3   OH237096   2.095   5.222  16.890 -0.1353 -0.4977 -0.3330
 5202TIP3    H137097   2.076   5.303  16.843  1.0593 -0.6819 -1.1612
 5202TIP3    H237098   2.165   5.180  16.840  1.6483 -0.3947  1.9091
 5203TIP3   OH237099   1.568   2.886  14.346  0.0588  1.2173 -0.2188
 5203TIP3    H137100   1.623   2.951  14.302 -1.3826  1.8457 -1.1480
 5203TIP3    H237101   1.522   2.936  14.414 -0.3174  0.9604 -0.2831
 5204TIP3   OH237102   1.921   2.743   6.487 -0.5253  0.1822 -0.4432
 5204TIP3    H137103   1.867   2.818   6.462 -0.8919 -0.0484 -0.3580
 5204TIP3    H237104   1.873   2.667   6.455 -0.8716 -0.1017  0.7030
 5205TIP3   OH237105   0.575   3.696  10.408 -0.2558  0.2393 -0.2625
 5205TIP3    H137106   0.567   3.618  10.463 -0.0557  0.0906 -0.4400
 5205TIP3    H237107   0.527   3.673  10.328 -0.9145  0.6148  0.0160
 5206TIP3   OH237108   6.486   5.624  14.973 -0.1502 -0.4540 -0.0680
 5206TIP3    H137109   6.542   5.680  15.026  1.5935 -1.7112 -0.4876
 5206TIP3    H237110   6.528   5.623  14.887 -0.7163 -1.5653 -0.3536
 5207TIP3   OH237111   1.152   6.053  14.395  0.3261 -0.1471 -0.1688
 5207TIP3    H137112   1.057   6.058  14.404  0.1985 -0.5554 -1.1826
 5207TIP3    H237113   1.167   6.051  14.301  1.4545  1.6735 -0.0596
 5208TIP3   OH237114   5.705   5.100  14.409 -0.1506 -0.2744 -0.5749
 5208TIP3    H137115   5.645   5.110  14.483 -1.5867  0.2965 -1.7433
 5208TIP3    H237116   5.766   5.032  14.436 -0.1031  0.4994  1.4425
 5209TIP3   OH237117   1.855   4.504   2.339 -0.0402 -0.0181 -0.4388
 5209TIP3    H137118   1.827   4.515   2.429 -0.0174  0.8535 -0.5301
 5209TIP3    H237119   1.892   4.588   2.315  0.2589 -0.3451 -1.1584
 5210TIP3   OH237120   2.339   0.880  10.929  0.0008 -0.1324  0.0091
 5210TIP3    H137121   2.352   0.866  11.023 -0.2494  1.5194  0.3173
 5210TIP3    H237122   2.244   0.889  10.919  0.0979  0.7530 -0.2187
 5211TIP3   OH237123   2.509   1.089  14.523 -0.4447 -0.2165 -0.3532
 5211TIP3    H137124   2.489   1.165  14.468 -2.2647 -1.8573 -2.1345
 5211TIP3    H237125   2.424   1.048  14.539  0.5797 -2.5907 -0.5905
 5212TIP3   OH237126   1.083   0.116   4.823  0.5370  0.1213 -0.3897
 5212TIP3    H137127   0.994   0.085   4.837  0.5985 -0.6193 -1.5034
 5212TIP3    H237128   1.139   0.042   4.845  0.8295  0.3019 -0.5162
 5213TIP3   OH237129   2.403   3.323   0.523 -0.1675 -0.7433  0.1120
 5213TIP3    H137130   2.356   3.343   0.604  1.5932 -0.8100  1.1949
 5213TIP3    H237131   2.451   3.243   0.542 -0.8245 -1.5597 -1.4964
 5214TIP3   OH237132   2.331   2.383  13.917 -0.1680  1.0463  0.5170
 5214TIP3    H137133   2.356   2.417  13.831 -0.2234 -1.8840 -0.7924
 5214TIP3    H237134   2.239   2.407  13.927 -0.8570 -0.4900 -1.3938
 5215TIP3   OH237135   5.128   1.990   6.446  0.1182 -0.0819 -0.0303
 5215TIP3    H137136   5.088   1.905   6.467 -0.7962  0.3984  0.2565
 5215TIP3    H237137   5.054   2.047   6.425  0.5786  1.0476  1.2336
 5216TIP3   OH237138   0.307   2.567  15.780  0.0152 -0.2420  0.2091
 5216TIP3    H137139   0.263   2.551  15.864  0.1344 -0.2222  0.2759
 5216TIP3    H237140   0.382   2.621  15.802  0.2799 -0.5763  0.1473
 5217TIP3   OH237141   5.527   0.483  14.401  0.4294  0.2266  0.0142
 5217TIP3    H137142   5.503   0.547  14.334  0.1288  1.1686  0.9906
 5217TIP3    H237143   5.581   0.532  14.463  0.4843 -0.5540  0.5997
 5218TIP3   OH237144   0.396   1.583  14.009 -0.2177  0.9541  0.4557
 5218TIP3    H137145   0.426   1.659  14.058  1.2298  1.1710 -0.6943
 5218TIP3    H237146   0.319   1.552  14.058  0.3097  1.9801  2.0284
 5219TIP3   OH237147   5.450   1.624   0.177  0.3106 -0.1841 -0.6620
 5219TIP3    H137148   5.544   1.609   0.190  0.8961  2.0368 -1.7036
 5219TIP3    H237149   5.425   1.682   0.249  0.7030  2.2306 -2.3269
 5220TIP3   OH237150   4.114   4.353  11.709 -0.1547  0.0807  0.2874
 5220TIP3    H137151   4.022   4.377  11.718 -0.7283 -1.7148 -0.3638
 5220TIP3    H237152   4.113   4.270  11.660  1.7340 -0.6691  1.3920
 5221TIP3   OH237153   4.449   2.718  13.739  0.1678  0.1701  0.0351
 5221TIP3    H137154   4.489   2.631  13.741  1.0470  0.4656  4.1808
 5221TIP3    H237155   4.363   2.706  13.777  1.4426  1.3646  3.7428
 5222TIP3   OH237156   2.429   3.632  11.063  0.2454 -0.0578 -0.0244
 5222TIP3    H137157   2.494   3.576  11.020 -0.1656  0.1335 -0.8995
 5222TIP3    H237158   2.369   3.570  11.105 -0.8886 -0.3378 -1.9737
 5223TIP3   OH237159   3.432   3.036   5.757  0.7260 -0.7864 -0.1625
 5223TIP3    H137160   3.383   3.036   5.839 -0.3856  1.5695 -0.7265
 5223TIP3    H237161   3.509   3.090   5.775 -0.2788  1.0081 -1.0006
 5224TIP3   OH237162   1.770   5.718  16.487  0.4730 -0.0763  0.3770
 5224TIP3    H137163   1.704   5.759  16.432  0.6609  0.3301  0.4478
 5224TIP3    H237164   1.794   5.786  16.551  2.3662  0.5132 -0.8425
 5225TIP3   OH237165   6.428   0.065   3.303 -0.4383 -0.9480  0.2268
 5225TIP3    H137166   6.453  -0.012   3.354  1.1200 -0.8199 -0.2723
 5225TIP3    H237167   6.511   0.112   3.289 -1.0923 -0.0912 -0.9519
 5226TIP3   OH237168   6.437   6.664   2.827  0.3933  0.2408 -0.3188
 5226TIP3    H137169   6.517   6.697   2.868 -0.2600  0.9538  0.4262
 5226TIP3    H237170   6.377   6.647   2.900 -0.1405 -0.2798 -0.8593
 5227TIP3   OH237171   2.662   0.078  16.525 -0.0059  0.9363  0.3258
 5227TIP3    H137172   2.572   0.051  16.545 -0.4946  1.3419 -1.1862
 5227TIP3    H237173   2.661   0.097  16.432  2.0328 -0.5498 -0.0764
 5228TIP3   OH237174   3.912   6.254   2.305 -0.4312 -0.0105 -0.3520
 5228TIP3    H137175   3.898   6.159   2.307  1.7117 -0.3449  1.0545
 5228TIP3    H237176   3.959   6.269   2.223 -0.3000 -0.2478 -0.3230
 5229TIP3   OH237177   4.140   2.716  14.338  0.1456 -0.1456 -0.3871
 5229TIP3    H137178   4.047   2.699  14.356 -0.2596  2.2982  0.2007
 5229TIP3    H237179   4.157   2.800  14.380  2.4159 -0.1260 -1.2445
 5230TIP3   OH237180   6.811   0.033   2.424 -0.2103 -0.4207  0.2256
 5230TIP3    H137181   6.805   0.047   2.519  1.2473  0.0532  0.2763
 5230TIP3    H237182   6.859  -0.049   2.415 -1.7104 -1.2989 -0.1263
 5231TIP3   OH237183   1.115   6.495  14.280 -0.4086 -0.3227  0.3036
 5231TIP3    H137184   1.160   6.561  14.333 -0.0688 -1.8118  1.9706
 5231TIP3    H237185   1.143   6.514  14.190  2.4489 -0.2578  1.0869
 5232TIP3   OH237186   3.520   2.969  15.851 -0.4475 -0.1708  0.1145
 5232TIP3    H137187   3.517   3.039  15.786 -2.7798 -0.2843  0.0150
 5232TIP3    H237188   3.525   3.015  15.935  1.1573  0.0088 -0.0572
 5233TIP3   OH237189   4.528   3.390  12.723 -0.3768  0.8423 -0.4348
 5233TIP3    H137190   4.441   3.357  12.700  0.1272 -0.9086 -0.0318
 5233TIP3    H237191   4.511   3.457  12.789 -1.4462  1.0374 -0.8780
 5234TIP3   OH237192   1.996   1.815   4.331  0.1356 -0.7980 -0.1209
 5234TIP3    H137193   2.001   1.878   4.259 -0.8904 -1.1390 -0.5008
 5234TIP3    H237194   1.956   1.737   4.293  1.1826 -1.6291  0.3950
 5235TIP3   OH237195   3.303   0.759  14.241  0.8968  0.1687 -0.2248
 5235TIP3    H137196   3.299   0.815  14.319  1.1435 -0.7207  0.4400
 5235TIP3    H237197   3.311   0.820  14.168 -0.1064  1.0537  0.3750
 5236TIP3   OH237198   5.943   3.070  13.389  0.3172 -0.3309 -0.0426
 5236TIP3    H137199   6.013   3.124  13.425  1.3844 -1.7287  0.0641
 5236TIP3    H237200   5.931   3.000  13.452 -0.6537 -0.5506 -0.4443
 5237TIP3   OH237201   2.642   3.116  13.666 -0.5764  0.0856 -0.3483
 5237TIP3    H137202   2.710   3.156  13.720 -0.0077  0.5685 -1.4078
 5237TIP3    H237203   2.560   3.134  13.713 -0.2932  2.1131 -0.5490
 5238TIP3   OH237204   1.570   6.126  15.505  0.5794  0.1600  0.1908
 5238TIP3    H137205   1.577   6.221  15.511 -2.2194  0.5935 -1.5478
 5238TIP3    H237206   1.586   6.107  15.412  0.9404 -1.0476  0.4910
 5239TIP3   OH237207   3.448   3.207  15.173  0.2044 -0.7472  0.3261
 5239TIP3    H137208   3.367   3.196  15.223  0.8437 -0.8411  1.3660
 5239TIP3    H237209   3.502   3.265  15.227  0.1778  0.7275 -1.1570
 5240TIP3   OH237210   2.707   6.592  14.217  0.2037 -0.8513 -0.5853
 5240TIP3    H137211   2.651   6.665  14.191  0.7333 -0.7375 -1.4156
 5240TIP3    H237212   2.790   6.607  14.171  0.6154 -1.5062 -0.0768
 5241TIP3   OH237213   0.150   0.419  16.958  0.0869 -0.3760 -0.5864
 5241TIP3    H137214   0.114   0.375  17.034 -0.5353  0.1083 -0.5943
 5241TIP3    H237215   0.225   0.468  16.993  0.4674 -1.0138 -0.4913
 5242TIP3   OH237216   3.035   4.316  14.191  0.3670  0.2664 -0.2084
 5242TIP3    H137217   3.127   4.330  14.213 -0.3585  2.1550  2.0299
 5242TIP3    H237218   3.017   4.226  14.219  1.0899  0.5064  1.1093
 5243TIP3   OH237219   3.541   0.034   4.364  0.6431 -0.2838 -0.3189
 5243TIP3    H137220   3.493   0.097   4.310 -1.3885 -1.2627  0.2455
 5243TIP3    H237221   3.533   0.068   4.453 -0.3974 -1.2524 -0.0193
 5244TIP3   OH237222   0.236   0.507   3.767  0.2394  0.0208  0.5661
 5244TIP3    H137223   0.280   0.566   3.828  0.2588  0.2199  0.3604
 5244TIP3    H237224   0.153   0.485   3.810  0.4364 -0.1674  0.8467
 5245TIP3   OH237225   6.025   2.865   0.897  0.1437 -0.3356  0.5240
 5245TIP3    H137226   6.026   2.928   0.825  2.7922 -0.6126  0.2314
 5245TIP3    H237227   5.948   2.811   0.880  1.0791 -0.8865 -2.5591
 5246TIP3   OH237228   0.892   3.803  17.233  0.1583  0.0960 -0.2826
 5246TIP3    H137229   0.813   3.787  17.285  0.8451  2.8613  1.8483
 5246TIP3    H237230   0.860   3.811  17.143 -1.7068 -0.5677  0.2701
 5247TIP3   OH237231   4.221   6.519  13.346 -0.1300 -0.0907  0.5970
 5247TIP3    H137232   4.304   6.514  13.394 -0.5316  0.3933  1.3598
 5247TIP3    H237233   4.167   6.450  13.385 -0.3193  0.0328  0.5505
 5248TIP3   OH237234   2.988   0.070   0.207 -0.0617 -0.1807 -0.0425
 5248TIP3    H137235   3.069   0.051   0.159  0.2979 -0.7247  0.7564
 5248TIP3    H237236   2.925   0.007   0.173  0.2663 -0.7420  0.3743
 5249TIP3   OH237237   2.603   5.089  15.552 -0.1590 -0.3590  0.1539
 5249TIP3    H137238   2.512   5.080  15.582 -0.6332  0.9804 -0.7802
 5249TIP3    H237239   2.607   5.178  15.517  1.1191 -0.9055 -1.1602
 5250TIP3   OH237240   1.345   6.487  10.866  0.5092  0.1908 -0.3292
 5250TIP3    H137241   1.275   6.546  10.840  0.5036  1.1691  1.6698
 5250TIP3    H237242   1.343   6.416  10.801 -0.4005  1.6547 -1.9857
 5251TIP3   OH237243   6.691   3.816  13.195 -0.0635 -0.1590 -0.2374
 5251TIP3    H137244   6.705   3.881  13.264 -1.7745  0.5763 -0.5342
 5251TIP3    H237245   6.732   3.853  13.118  1.2735 -0.6776  0.1978
 5252TIP3   OH237246   6.527   5.842   5.885  0.3406  0.0668 -0.0636
 5252TIP3    H137247   6.436   5.851   5.912  0.4020 -0.3538  0.3092
 5252TIP3    H237248   6.567   5.926   5.904  0.1632  0.0673  0.3138
 5253TIP3   OH237249   0.170   1.536  15.216 -0.3742 -0.3174  0.0449
 5253TIP3    H137250   0.183   1.627  15.193  2.7897 -0.2732  1.5713
 5253TIP3    H237251   0.080   1.517  15.189 -0.9501  3.0536 -0.7800
 5254TIP3   OH237252   1.264   2.557   4.467 -0.1401 -0.7059  0.1747
 5254TIP3    H137253   1.169   2.566   4.457 -0.2287 -0.2659  1.2816
 5254TIP3    H237254   1.297   2.646   4.474 -0.1036 -0.8334  3.3318
 5255TIP3   OH237255   5.329   0.303   0.500  0.1422  0.4232 -0.1442
 5255TIP3    H137256   5.304   0.235   0.562  0.7708  0.0934 -0.2462
 5255TIP3    H237257   5.328   0.384   0.551  0.5217  0.1717  0.2595
 5256TIP3   OH237258   3.363   4.186  13.308 -0.6805 -0.6368 -0.2495
 5256TIP3    H137259   3.346   4.175  13.214  0.6168 -1.4195 -0.4098
 5256TIP3    H237260   3.379   4.279  13.319 -1.6509 -0.4065 -0.6493
 5257TIP3   OH237261   1.420   0.774   0.725  0.0529 -0.4172 -0.0600
 5257TIP3    H137262   1.339   0.754   0.772 -0.2576 -1.0642 -0.8466
 5257TIP3    H237263   1.391   0.803   0.638  0.6589 -0.6666 -0.3544
 5258TIP3   OH237264   6.007   0.026  14.411 -0.4435  0.3185  0.2697
 5258TIP3    H137265   6.063  -0.036  14.457  0.4666  0.7933 -0.1671
 5258TIP3    H237266   6.020   0.109  14.457  0.2945  0.7444 -0.6624
 5259TIP3   OH237267   4.045   6.641  14.494  0.3917 -0.1913 -0.0873
 5259TIP3    H137268   4.138   6.634  14.474  0.2062  0.3377 -1.1980
 5259TIP3    H237269   4.025   6.563  14.546  1.1389 -1.0939 -1.1099
 5260TIP3   OH237270   1.398   3.243  17.279 -0.2968 -0.0967 -0.1593
 5260TIP3    H137271   1.460   3.244  17.206 -1.9242  1.6107 -1.6433
 5260TIP3    H237272   1.405   3.330  17.318  0.2697 -0.8620  1.5221
 5261TIP3   OH237273   3.205   4.921  12.586 -0.3057  0.0319  0.9625
 5261TIP3    H137274   3.152   4.987  12.541 -1.0541  0.5770  2.5622
 5261TIP3    H237275   3.226   4.961  12.671  1.0838 -0.9415  1.1108
 5262TIP3   OH237276   2.270   2.404  16.587  0.3766  0.1647 -0.3518
 5262TIP3    H137277   2.329   2.456  16.641  0.1452 -1.0836  1.1832
 5262TIP3    H237278   2.248   2.461  16.513  3.4034  0.6871 -0.9624
 5263TIP3   OH237279   5.811   2.859  15.312 -0.3894  0.3526  0.3797
 5263TIP3    H137280   5.740   2.828  15.255 -0.3729  0.3384  0.3668
 5263TIP3    H237281   5.884   2.800  15.292 -0.6996 -0.3125  1.1684
 5264TIP3   OH237282   5.155   0.155   5.158  0.3945 -0.3742 -0.0640
 5264TIP3    H137283   5.122   0.188   5.074 -0.7555  1.3349  0.9874
 5264TIP3    H237284   5.188   0.232   5.203 -1.3668 -0.7447  2.0653
 5265TIP3   OH237285   0.954   0.714  17.230 -0.0577  0.2944  0.2569
 5265TIP3    H137286   0.881   0.739  17.173 -1.2093  0.6559  1.8305
 5265TIP3    H237287   0.956   0.619  17.225 -1.4472  0.1909  1.1131
 5266TIP3   OH237288   1.899   5.639  11.287  0.0363 -0.4011  0.5379
 5266TIP3    H137289   1.888   5.630  11.192 -0.2167 -0.6491  0.5904
 5266TIP3    H237290   1.871   5.728  11.306  1.8442  0.3205  0.1147
 5267TIP3   OH237291   5.661   1.593  17.204  0.0787 -0.7324  0.2786
 5267TIP3    H137292   5.587   1.563  17.151  0.1990 -1.1235  0.3284
 5267TIP3    H237293   5.638   1.682  17.230  0.7017  0.0478 -1.6897
 5268TIP3   OH237294   3.745   6.428   1.350 -0.3449 -0.7349  0.2130
 5268TIP3    H137295   3.735   6.357   1.287 -0.5205 -1.4286  0.9984
 5268TIP3    H237296   3.823   6.404   1.400 -1.0344 -0.9688  1.2109
 5269TIP3   OH237297   2.252   5.486  11.075 -0.2126 -0.7785  0.2086
 5269TIP3    H137298   2.195   5.458  11.004 -0.7990 -0.8498  0.6931
 5269TIP3    H237299   2.228   5.428  11.148  0.9697 -1.2782  0.2211
 5270TIP3   OH237300   1.757   1.274   5.974 -0.3238 -0.0325 -0.0577
 5270TIP3    H137301   1.763   1.360   5.934  0.1451  0.1268  0.3438
 5270TIP3    H237302   1.716   1.290   6.059  0.4093 -0.0901  0.3227
 5271TIP3   OH237303   6.597   5.192  11.341 -0.1012  0.0730  0.7141
 5271TIP3    H137304   6.530   5.128  11.364  0.2366  0.4603  3.0159
 5271TIP3    H237305   6.675   5.164  11.389 -0.1599  2.5877  2.4876
 5272TIP3   OH237306   5.190   3.804  16.073 -0.4480 -0.4791 -0.6039
 5272TIP3    H137307   5.107   3.759  16.058 -0.4300 -0.8752  0.4169
 5272TIP3    H237308   5.187   3.880  16.016 -2.4003  0.6207  0.8478
 5273TIP3   OH237309   4.466   5.512  14.311  0.1318  0.1857  0.0833
 5273TIP3    H137310   4.436   5.580  14.251  0.0147 -0.1404 -0.2373
 5273TIP3    H237311   4.479   5.556  14.395  1.0958  0.8180 -0.3830
 5274TIP3   OH237312   3.811   4.645   1.971  0.2848 -0.4325 -0.0406
 5274TIP3    H137313   3.891   4.671   1.924  1.2070 -1.2441  1.0218
 5274TIP3    H237314   3.782   4.726   2.014  0.9053 -0.2674  0.0856
 5275TIP3   OH237315   1.322   3.685  14.464 -0.9898  0.3820 -0.2685
 5275TIP3    H137316   1.303   3.660  14.555 -0.8881  1.6875  0.1365
 5275TIP3    H237317   1.267   3.627  14.411 -2.1870  0.5979  0.6950
 5276TIP3   OH237318   5.182   2.447  14.416 -0.5338  0.2355  0.4278
 5276TIP3    H137319   5.100   2.402  14.393  0.5782 -0.7798 -1.9205
 5276TIP3    H237320   5.154   2.532  14.451 -2.5866  0.1447 -0.8187
 5277TIP3   OH237321   5.812   4.807  12.947  0.0251 -0.4553 -0.4365
 5277TIP3    H137322   5.744   4.870  12.921 -0.4253  0.3768  2.3905
 5277TIP3    H237323   5.772   4.722  12.931 -0.7797  0.0001 -0.9670
 5278TIP3   OH237324   4.813   4.254  17.193  0.0427 -0.0681  0.1921
 5278TIP3    H137325   4.836   4.345  17.212 -0.3220  0.1287 -0.2863
 5278TIP3    H237326   4.896   4.214  17.166  0.0822  0.2972 -0.2477
 5279TIP3   OH237327   2.089   1.557   2.102 -0.0994  0.0357  0.2138
 5279TIP3    H137328   2.104   1.499   2.176  1.9489  0.6690  0.3449
 5279TIP3    H237329   2.173   1.563   2.057 -1.1218  0.1817 -1.8205
 5280TIP3   OH237330   1.621   0.765   0.921 -0.4489  0.1822  0.4346
 5280TIP3    H137331   1.556   0.735   0.984  0.6699 -2.1510  0.5909
 5280TIP3    H237332   1.570   0.791   0.844 -1.8511  3.1160  2.1493
 5281TIP3   OH237333   5.467   0.737  15.651 -0.5811  0.4010 -0.4451
 5281TIP3    H137334   5.426   0.691  15.724  2.0866 -2.0349 -0.2844
 5281TIP3    H237335   5.548   0.772  15.688 -0.6726  1.8708 -1.5449
 5282TIP3   OH237336   3.053   5.298   5.117 -0.5818 -0.0532 -0.1601
 5282TIP3    H137337   3.127   5.255   5.162 -0.7211  0.4683  0.5858
 5282TIP3    H237338   3.050   5.256   5.031  0.3941 -0.2999 -0.0890
 5283TIP3   OH237339   5.016   2.373  16.769  0.5476 -0.5776 -0.0865
 5283TIP3    H137340   5.063   2.313  16.713 -1.6882 -0.6594 -2.0415
 5283TIP3    H237341   4.991   2.321  16.846  1.6081 -1.1224 -0.0946
 5284TIP3   OH237342   1.392   6.323  15.721  0.2658 -0.4512 -0.5396
 5284TIP3    H137343   1.439   6.371  15.653 -0.7296 -0.6314 -1.3708
 5284TIP3    H237344   1.361   6.244  15.678  0.3016 -0.9529  0.3395
 5285TIP3   OH237345   5.159   2.120   3.194 -0.6288  0.0459 -0.6585
 5285TIP3    H137346   5.066   2.120   3.217 -0.9168 -0.8722 -1.7359
 5285TIP3    H237347   5.162   2.084   3.105  0.7404  0.2768 -0.7308
 5286TIP3   OH237348   5.223   0.664   3.318  0.1069 -0.1271  0.2963
 5286TIP3    H137349   5.287   0.721   3.276  0.1072 -0.4659 -0.1735
 5286TIP3    H237350   5.142   0.717   3.319 -0.1718 -0.4734 -1.0857
 5287TIP3   OH237351   1.396   2.435   3.827 -0.4526  0.0366  0.1580
 5287TIP3    H137352   1.341   2.377   3.880 -0.5749  0.8841  0.9729
 5287TIP3    H237353   1.457   2.376   3.782  0.1345 -0.6573  1.7939
 5288TIP3   OH237354   0.869   0.844  13.158 -0.1469 -0.1245  0.1606
 5288TIP3    H137355   0.910   0.887  13.083  0.9742 -1.5391 -0.0827
 5288TIP3    H237356   0.891   0.900  13.233  0.6902  0.1014 -0.2385
 5289TIP3   OH237357   1.115   1.771  13.200  0.0443 -0.0051 -0.1800
 5289TIP3    H137358   1.146   1.852  13.161  1.9992 -0.8444 -0.5025
 5289TIP3    H237359   1.142   1.703  13.139 -3.4549 -0.8372 -1.0280
 5290TIP3   OH237360   3.690   3.725  15.978  0.6466  0.4245  0.7562
 5290TIP3    H137361   3.742   3.806  15.981  1.9382 -0.3556  0.2366
 5290TIP3    H237362   3.722   3.674  16.053 -0.6584  0.6658  1.4978
 5291TIP3   OH237363   1.704   0.266  15.948 -0.4257  0.5328  0.2928
 5291TIP3    H137364   1.633   0.286  16.010  0.5038 -2.5319  2.5939
 5291TIP3    H237365   1.660   0.221  15.876 -1.0531  0.6638  0.5804
 5292TIP3   OH237366   3.008   2.777   4.088  0.3919 -0.3426  0.0937
 5292TIP3    H137367   3.036   2.869   4.087 -0.0014 -0.2224 -1.2741
 5292TIP3    H237368   3.049   2.741   4.167 -0.1763  1.2266  1.1775
 5293TIP3   OH237369   2.537   5.641   4.817  0.1770 -0.0299 -0.3732
 5293TIP3    H137370   2.606   5.696   4.780 -0.2814 -0.0528 -1.2942
 5293TIP3    H237371   2.485   5.613   4.741 -2.6306  2.3599  0.4531
 5294TIP3   OH237372   4.590   1.824  15.554 -0.0334 -0.1102  0.1627
 5294TIP3    H137373   4.567   1.763  15.485  1.3941  0.4293 -0.8436
 5294TIP3    H237374   4.666   1.784  15.597  0.6284  0.7052 -0.2096
 5295TIP3   OH237375   0.130   4.978   2.090 -0.1510  0.6464 -0.1535
 5295TIP3    H137376   0.106   5.049   2.030 -2.7644  0.0486  0.0581
 5295TIP3    H237377   0.193   4.925   2.041 -2.4102  0.0065 -2.5806
 5296TIP3   OH237378   6.499   6.300   0.220 -0.2081 -0.0767 -0.5494
 5296TIP3    H137379   6.526   6.241   0.149 -1.0512  0.9975 -1.8200
 5296TIP3    H237380   6.561   6.283   0.290  0.1352 -1.8006 -1.2243
 5297TIP3   OH237381   4.512   5.126  13.919  0.1556  0.2666  0.5494
 5297TIP3    H137382   4.491   5.198  13.859 -0.0413 -0.2186  0.0245
 5297TIP3    H237383   4.597   5.095  13.890 -0.6281 -1.0079 -0.5351
 5298TIP3   OH237384   1.340   5.076  10.862 -0.2254  0.2981 -0.2600
 5298TIP3    H137385   1.372   5.148  10.807  1.5951 -0.7072 -0.5712
 5298TIP3    H237386   1.275   5.032  10.807  1.1492 -0.3415 -1.4563
 5299TIP3   OH237387   4.873   6.289   1.768 -0.1224  0.6677 -0.0374
 5299TIP3    H137388   4.849   6.200   1.744  2.2984 -0.8811  2.5944
 5299TIP3    H237389   4.845   6.297   1.859  0.2850  2.3918 -0.0336
 5300TIP3   OH237390   5.919   5.707  13.832  0.3726  0.3904  0.2355
 5300TIP3    H137391   6.005   5.673  13.855  1.0217  0.5728 -1.7902
 5300TIP3    H237392   5.902   5.673  13.744 -1.0603  1.4171  0.0783
 5301TIP3   OH237393   4.777   5.029   4.538 -0.3483 -0.2034  0.1108
 5301TIP3    H137394   4.772   4.935   4.553 -1.6336 -0.2888 -0.6928
 5301TIP3    H237395   4.864   5.054   4.569 -0.2379 -1.5344  0.9521
 5302TIP3   OH237396   5.475   3.708   0.534  0.1837 -0.8355 -0.2189
 5302TIP3    H137397   5.446   3.741   0.449  1.4523 -0.4351 -0.5245
 5302TIP3    H237398   5.396   3.705   0.587 -0.2018  1.6132 -0.5463
 5303TIP3   OH237399   5.089   1.609  15.206 -0.0387 -0.1062 -0.3544
 5303TIP3    H137400   5.180   1.619  15.235  0.2234  2.3251 -1.7396
 5303TIP3    H237401   5.096   1.596  15.111 -1.0919 -2.1935 -0.1914
 5304TIP3   OH237402   0.393   1.743   0.788  0.1380  0.0524  0.0469
 5304TIP3    H137403   0.352   1.829   0.789  0.4765  0.2453  2.3355
 5304TIP3    H237404   0.482   1.758   0.820  0.2081 -1.1278  0.4825
 5305TIP3   OH237405   4.954   0.514   2.360 -0.8189 -0.1504 -0.0806
 5305TIP3    H137406   4.992   0.577   2.421  1.5686 -2.0473  0.5535
 5305TIP3    H237407   4.863   0.506   2.386 -0.4830  1.0149  1.5603
 5306TIP3   OH237408   2.999   6.261  16.504 -0.1815  0.3176 -0.2391
 5306TIP3    H137409   2.968   6.229  16.589  1.4431  0.4241  0.4392
 5306TIP3    H237410   3.045   6.342  16.524 -1.2277  1.2445 -1.4793
 5307TIP3   OH237411   1.583   6.620   4.893 -0.0484 -0.1932  0.3704
 5307TIP3    H137412   1.534   6.593   4.971 -1.8995 -0.2677 -0.7702
 5307TIP3    H237413   1.516   6.644   4.829  1.4141 -0.4721 -1.3475
 5308TIP3   OH237414   0.543   6.643   4.505 -0.3132 -0.0399  0.0371
 5308TIP3    H137415   0.474   6.659   4.440  0.6103 -1.6192 -1.4297
 5308TIP3    H237416   0.522   6.557   4.541  1.0683 -0.7128 -0.7058
 5309TIP3   OH237417   4.143   6.796   6.061 -0.0530 -0.3206 -0.0385
 5309TIP3    H137418   4.151   6.720   6.118 -0.1223 -1.4164 -1.4359
 5309TIP3    H237419   4.063   6.840   6.090 -1.7649 -2.5127 -1.1244
 5310TIP3   OH237420   5.838   2.328   6.304 -0.3846  0.0858 -0.1571
 5310TIP3    H137421   5.767   2.355   6.362 -0.3439  1.2306 -0.6337
 5310TIP3    H237422   5.899   2.282   6.361 -2.5727 -3.0951 -0.0930
 5311TIP3   OH237423   1.929   6.709   5.368 -0.2480 -0.0737  0.3598
 5311TIP3    H137424   2.015   6.740   5.339 -0.4159  0.7723  0.7176
 5311TIP3    H237425   1.888   6.787   5.406 -1.3467 -0.3675 -0.2075
 5312TIP3   OH237426   0.239   5.304   6.047 -0.1226  0.2159 -0.2696
 5312TIP3    H137427   0.280   5.301   6.133 -0.6527  5.2750  0.4379
 5312TIP3    H237428   0.154   5.262   6.059 -1.2167  2.8525  2.5401
 5313TIP3   OH237429   5.613   2.296   3.035  0.4589 -0.1589 -0.4244
 5313TIP3    H137430   5.526   2.327   3.012  0.0621  0.0797  1.2659
 5313TIP3    H237431   5.608   2.278   3.129  2.1972 -0.2316 -0.3123
 5314TIP3   OH237432   3.626   3.735  12.954 -0.3659 -0.2513 -0.2556
 5314TIP3    H137433   3.602   3.665  12.893  1.4400 -0.5124 -0.7492
 5314TIP3    H237434   3.713   3.709  12.986 -0.3997  0.9254  0.8555
 5315TIP3   OH237435   4.803   4.468  12.075  0.3198  0.5239  0.1718
 5315TIP3    H137436   4.824   4.424  12.157 -0.2194  0.0833  0.0786
 5315TIP3    H237437   4.715   4.504  12.088  0.3173  0.6380 -0.1367
 5316TIP3   OH237438   2.981   4.264  13.536 -0.3446  0.4783  0.4243
 5316TIP3    H137439   3.021   4.281  13.621 -0.0188  0.7432  0.2199
 5316TIP3    H237440   3.005   4.173  13.516 -1.0324  0.1810  0.9441
 5317TIP3   OH237441   6.135   4.850  11.234  0.1765 -0.1349  0.4032
 5317TIP3    H137442   6.121   4.865  11.328 -1.1315 -0.1114  0.2238
 5317TIP3    H237443   6.060   4.892  11.192  0.1157 -1.1839 -0.5766
 5318TIP3   OH237444   2.629   6.397   2.965  0.0127  0.4195  0.5836
 5318TIP3    H137445   2.641   6.478   2.914  1.4810 -1.1914 -1.8161
 5318TIP3    H237446   2.710   6.389   3.015  0.1821  0.0719  0.2552
 5319TIP3   OH237447   4.143   6.428  11.590  0.3210  0.2263 -0.3502
 5319TIP3    H137448   4.163   6.490  11.661 -0.4965 -0.7818  0.7849
 5319TIP3    H237449   4.083   6.476  11.534 -1.4636  0.0347  1.2895
 5320TIP3   OH237450   1.180   5.951  11.788  0.0253  0.0907  0.1025
 5320TIP3    H137451   1.119   5.926  11.719  1.6490 -2.0594 -0.6567
 5320TIP3    H237452   1.231   6.023  11.751 -0.8912  0.7687  0.1258
 5321TIP3   OH237453   0.075   0.249  15.673  0.2823  0.5346  0.4605
 5321TIP3    H137454  -0.007   0.262  15.722  0.2504  0.8814  0.3207
 5321TIP3    H237455   0.048   0.246  15.582  0.5292  1.6848  0.3328
 5322TIP3   OH237456   3.356   5.893   1.069  0.0198  0.5103 -0.2153
 5322TIP3    H137457   3.278   5.903   1.124 -0.2589  0.4180 -0.5862
 5322TIP3    H237458   3.386   5.804   1.086 -0.3562  0.3088 -0.5785
 5323TIP3   OH237459   5.947   5.357  12.649 -0.2317  0.3328 -0.0199
 5323TIP3    H137460   5.869   5.401  12.617 -0.4757  0.2265  0.4062
 5323TIP3    H237461   6.018   5.421  12.640 -0.4709  0.6093  0.0663
 5324TIP3   OH237462   6.363   1.047  11.926  0.3574  0.6321 -0.2292
 5324TIP3    H137463   6.312   1.112  11.877  2.0191  0.9666 -1.6220
 5324TIP3    H237464   6.394   0.986  11.859 -0.4404 -1.1383  0.9543
 5325TIP3   OH237465   2.153   1.128  14.898  0.3171 -0.5898 -0.1033
 5325TIP3    H137466   2.199   1.063  14.951  0.9495  0.0259  0.1103
 5325TIP3    H237467   2.218   1.196  14.881 -0.9220  1.0979  1.5200
 5326TIP3   OH237468   1.927   6.649   0.181 -0.3424 -0.1628  0.2612
 5326TIP3    H137469   1.934   6.743   0.197 -1.5190 -0.0256  0.0931
 5326TIP3    H237470   1.977   6.609   0.252 -0.9671  0.5653  1.1361
 5327TIP3   OH237471   1.984   5.570  10.510  0.2140 -0.1869  0.0915
 5327TIP3    H137472   2.074   5.545  10.531 -0.1060 -1.9835 -0.4495
 5327TIP3    H237473   1.963   5.639  10.572  2.3994  1.2528 -0.6534
 5328TIP3   OH237474   4.915   4.256   3.987  0.4415 -0.2032  0.5842
 5328TIP3    H137475   4.945   4.194   3.920 -0.7571  0.2535 -0.4052
 5328TIP3    H237476   4.959   4.338   3.966  1.0779 -0.3810  1.1654
 5329TIP3   OH237477   0.750   0.290  14.880  0.3301 -0.3763  0.4861
 5329TIP3    H137478   0.821   0.318  14.937 -1.4578  1.1789  2.1233
 5329TIP3    H237479   0.731   0.200  14.907  1.5869 -0.7734  0.0845
 5330TIP3   OH237480   2.217   6.635  16.106  0.5650  0.5132 -0.1959
 5330TIP3    H137481   2.223   6.625  16.011 -0.4432 -0.6369 -0.1604
 5330TIP3    H237482   2.137   6.685  16.121 -0.5007 -1.1969  0.1029
 5331TIP3   OH237483   3.077   0.393   6.480 -0.0047 -0.1953  0.2027
 5331TIP3    H137484   2.992   0.351   6.490  0.4017 -1.8233 -2.0994
 5331TIP3    H237485   3.138   0.334   6.523  0.0760  0.6670  1.3255
 5332TIP3   OH237486   6.578   6.630  15.728  0.5506  0.1405  0.2610
 5332TIP3    H137487   6.526   6.704  15.698  2.3314  0.8129 -1.3819
 5332TIP3    H237488   6.514   6.562  15.749 -1.0019  1.0241 -1.3683
 5333TIP3   OH237489   3.221   6.433  16.290  0.0785  1.2501 -0.5955
 5333TIP3    H137490   3.314   6.437  16.267  0.1821 -1.9384 -1.1876
 5333TIP3    H237491   3.177   6.403  16.211 -0.6661 -2.0289  0.8541
 5334TIP3   OH237492   1.736   3.583   5.842  0.4538 -0.6597 -0.0468
 5334TIP3    H137493   1.828   3.582   5.818  0.6604 -0.4447  0.7109
 5334TIP3    H237494   1.725   3.508   5.901 -0.1798 -1.5594 -1.2654
 5335TIP3   OH237495   4.661   3.866  11.158 -0.3331  0.4323  0.0824
 5335TIP3    H137496   4.754   3.859  11.182 -0.5002  0.6338  0.8066
 5335TIP3    H237497   4.624   3.925  11.224 -0.4893  2.2497 -1.5441
 5336TIP3   OH237498   0.512   1.278  11.741  0.3237 -0.4366 -0.6033
 5336TIP3    H137499   0.553   1.363  11.757  0.6853 -0.8624  0.8695
 5336TIP3    H237500   0.511   1.270  11.645  1.1026  0.8162 -0.7454
 5337TIP3   OH237501   2.861   6.199  12.388 -0.1119 -0.1075  0.5540
 5337TIP3    H137502   2.863   6.192  12.483 -1.8397 -1.6542  0.5365
 5337TIP3    H237503   2.769   6.188  12.365  0.4486 -1.2720 -1.3889
 5338TIP3   OH237504   2.633   3.614   2.854 -0.2243  0.4061 -0.1220
 5338TIP3    H137505   2.607   3.575   2.938  0.8505  1.1446  0.5818
 5338TIP3    H237506   2.551   3.627   2.807 -0.9113  0.5163  1.0552
 5339TIP3   OH237507   1.941   5.442   3.173  0.8789  0.5339 -0.4095
 5339TIP3    H137508   1.983   5.403   3.250  0.7784 -0.3655 -0.8004
 5339TIP3    H237509   2.012   5.451   3.109  0.4483 -1.4167 -1.2396
 5340TIP3   OH237510   6.343   1.957  12.319 -0.1811  0.2495  0.6042
 5340TIP3    H137511   6.355   1.993  12.406  1.8782  1.1708 -0.0055
 5340TIP3    H237512   6.380   2.023  12.260  1.4395 -1.7013 -0.7283
 5341TIP3   OH237513   0.441   1.921   2.687  0.2219 -0.4616  0.0584
 5341TIP3    H137514   0.429   1.905   2.781 -0.1152 -1.6035 -0.1549
 5341TIP3    H237515   0.351   1.932   2.654  0.2901 -0.7785 -0.2369
 5342TIP3   OH237516   4.826   5.496  13.137  0.0986  0.7359  0.4794
 5342TIP3    H137517   4.812   5.454  13.222 -1.1468  1.1011  0.4804
 5342TIP3    H237518   4.920   5.489  13.121 -0.0653 -2.3365  0.3099
 5343TIP3   OH237519   1.460   4.703   2.507 -0.0435 -0.4065 -0.3949
 5343TIP3    H137520   1.406   4.703   2.427  1.4613 -0.3838 -1.4522
 5343TIP3    H237521   1.467   4.795   2.532  1.9296 -0.0328 -2.0235
 5344TIP3   OH237522   3.341   5.392  17.086 -0.4847  0.2198  0.0081
 5344TIP3    H137523   3.404   5.319  17.091  0.0091  0.6848  0.9506
 5344TIP3    H237524   3.266   5.361  17.137 -0.3050  0.3246  0.3449
 5345TIP3   OH237525   0.792   4.829  16.474 -0.8518  0.6850  0.0208
 5345TIP3    H137526   0.801   4.921  16.449 -0.0840  1.0306  1.4581
 5345TIP3    H237527   0.709   4.825  16.522 -1.7151  0.2604 -1.4151
 5346TIP3   OH237528   1.765   3.902  14.029  0.0637  0.0386  0.0092
 5346TIP3    H137529   1.706   3.880  14.100  1.6824 -0.6447  1.2147
 5346TIP3    H237530   1.781   3.996  14.039 -1.8897  0.5637 -1.2350
 5347TIP3   OH237531   4.530   5.465  11.937 -0.3062  0.3437  0.1750
 5347TIP3    H137532   4.457   5.407  11.916  0.4376 -0.8073  0.6383
 5347TIP3    H237533   4.598   5.443  11.873  0.2469  0.1778  0.8044
 5348TIP3   OH237534   2.542   3.360  16.511  0.2865  0.3486  0.7117
 5348TIP3    H137535   2.579   3.348  16.424 -0.4184  0.1995  0.4228
 5348TIP3    H237536   2.454   3.394  16.495  0.4273  1.0778  1.3852
 5349TIP3   OH237537   5.989   1.122   5.826  0.3707 -0.3757 -0.7116
 5349TIP3    H137538   6.018   1.137   5.916  0.7842 -1.0908 -0.7212
 5349TIP3    H237539   5.973   1.210   5.792  2.7923  0.1138 -0.7918
 5350TIP3   OH237540   4.410   2.478   1.874  0.7842 -0.1579  0.3782
 5350TIP3    H137541   4.325   2.434   1.871  0.6005  0.0647  1.6961
 5350TIP3    H237542   4.438   2.481   1.783  0.2460 -1.9007  0.1188
 5351TIP3   OH237543   1.235   1.643  16.862 -0.0308 -0.7115  0.1712
 5351TIP3    H137544   1.208   1.612  16.949  0.8820 -1.8243  0.0754
 5351TIP3    H237545   1.279   1.568  16.823  0.2812  0.0443 -0.9486
 5352TIP3   OH237546   1.406   2.668  14.381 -0.4036  0.3651 -0.7716
 5352TIP3    H137547   1.460   2.599  14.420  0.7658  0.5672 -1.9561
 5352TIP3    H237548   1.460   2.747  14.386 -0.1067  0.3561 -2.9330
 5353TIP3   OH237549   6.152   3.702   3.888  0.9810 -0.8907 -0.2924
 5353TIP3    H137550   6.080   3.654   3.847 -0.9941  0.0647  1.8088
 5353TIP3    H237551   6.180   3.645   3.960 -0.4473  0.3712  1.3556
 5354TIP3   OH237552   6.750   3.098  16.890  0.1666  0.3440  0.0863
 5354TIP3    H137553   6.782   3.108  16.980  0.1778  0.5869  0.0559
 5354TIP3    H237554   6.704   3.014  16.890  1.9451 -0.6741 -0.2061
 5355TIP3   OH237555   0.147   2.425  16.713  0.7439 -0.2514 -0.3351
 5355TIP3    H137556   0.211   2.372  16.665 -0.7546 -1.5267 -1.0257
 5355TIP3    H237557   0.065   2.376  16.705 -0.2173  1.0645  0.9565
 5356TIP3   OH237558   3.858   5.337  14.185  0.2588 -0.3179 -0.3903
 5356TIP3    H137559   3.821   5.417  14.223  0.3248  0.4504 -1.8615
 5356TIP3    H237560   3.868   5.277  14.259  1.8943  1.6458  1.0914
 5357TIP3   OH237561   1.983   4.250  14.667 -0.2818  0.2706 -0.1983
 5357TIP3    H137562   1.919   4.245  14.596  0.4068 -0.0376 -0.8169
 5357TIP3    H237563   2.064   4.215  14.629  1.2639  3.8012 -0.6144
 5358TIP3   OH237564   6.301   4.147   6.314 -0.2979  0.1090 -0.1861
 5358TIP3    H137565   6.210   4.153   6.345 -0.7242 -3.4894 -0.3562
 5358TIP3    H237566   6.342   4.084   6.372  2.0464  1.3500 -0.4001
 5359TIP3   OH237567   1.342   1.577   0.777 -0.4407  0.2445  0.0485
 5359TIP3    H137568   1.313   1.665   0.753 -4.2408 -0.8530 -0.0387
 5359TIP3    H237569   1.262   1.526   0.780  1.5701 -3.1475  0.6146
 5360TIP3   OH237570   0.885   0.836  15.990  0.0213  0.1771  0.3221
 5360TIP3    H137571   0.956   0.791  16.035  0.0584 -1.3408 -1.1314
 5360TIP3    H237572   0.927   0.913  15.950  0.6076 -0.0778  0.4306
 5361TIP3   OH237573   5.513   3.871   1.364  0.0545  0.1344 -0.5905
 5361TIP3    H137574   5.496   3.872   1.270  1.9100  2.2531 -0.9751
 5361TIP3    H237575   5.584   3.808   1.374  0.1341  0.2112 -0.6690
 5362TIP3   OH237576   3.668   6.661   2.132  0.0720  0.2971  0.0907
 5362TIP3    H137577   3.633   6.659   2.221  0.6793  1.7073  0.3931
 5362TIP3    H237578   3.643   6.577   2.094 -1.8182  0.4177  0.9696
 5363TIP3   OH237579   3.174   1.363  11.330 -0.1662  0.1173 -0.3504
 5363TIP3    H137580   3.249   1.402  11.374  0.4959 -0.5779 -0.8334
 5363TIP3    H237581   3.117   1.333  11.401 -0.5929  1.7404  0.0208
 5364TIP3   OH237582   3.472   0.861  16.327  0.0838 -0.2098  0.0540
 5364TIP3    H137583   3.417   0.929  16.367 -1.0914  0.0056 -1.8193
 5364TIP3    H237584   3.509   0.814  16.402  0.0893  1.7981  1.4012
 5365TIP3   OH237585   3.841   5.933   1.557  0.3336 -0.1965 -0.2471
 5365TIP3    H137586   3.811   6.021   1.581 -0.7871 -0.1966 -1.5133
 5365TIP3    H237587   3.841   5.933   1.461 -0.1177 -1.7178 -0.2748
 5366TIP3   OH237588   3.625   4.889   3.409 -0.1336  0.0175  0.2521
 5366TIP3    H137589   3.701   4.837   3.384  0.4402  0.6722  0.5890
 5366TIP3    H237590   3.550   4.836   3.385  0.4321 -0.5507 -0.2756
 5367TIP3   OH237591   0.705   4.986   2.900 -0.1580 -0.4624 -0.1799
 5367TIP3    H137592   0.667   4.970   2.986  0.4039 -1.6472 -0.1305
 5367TIP3    H237593   0.794   5.017   2.917 -0.3897  0.3136 -0.3308
 5368TIP3   OH237594   0.814   6.712   5.586 -0.1967 -0.2284  0.2109
 5368TIP3    H137595   0.745   6.770   5.619 -0.7251 -0.4664 -0.4500
 5368TIP3    H237596   0.802   6.712   5.491  0.4916 -0.5524  0.1199
 5369TIP3   OH237597   5.304   3.946  10.757  0.1642  0.6834  0.2557
 5369TIP3    H137598   5.248   3.888  10.808 -0.3381  1.4831  0.6480
 5369TIP3    H237599   5.255   3.962  10.676  1.1276 -0.8809 -0.6794
 5370TIP3   OH237600   0.567   4.784  14.868  0.5687 -0.3195  0.2236
 5370TIP3    H137601   0.594   4.794  14.777 -0.2397  1.8911  0.1710
 5370TIP3    H237602   0.490   4.840  14.877  1.1624  0.2601  2.4579
 5371TIP3   OH237603   3.613   6.317   3.360 -0.4274 -0.4081 -0.6228
 5371TIP3    H137604   3.682   6.253   3.343  0.1948 -0.2542  1.1622
 5371TIP3    H237605   3.579   6.339   3.273 -1.0905 -3.5688 -1.2745
 5372TIP3   OH237606   5.549   5.731   4.311 -0.5521 -0.7457 -1.1363
 5372TIP3    H137607   5.471   5.680   4.288 -1.0670 -0.6593  0.3010
 5372TIP3    H237608   5.520   5.823   4.304 -0.2546 -0.6859 -1.6395
 5373TIP3   OH237609   5.743   1.140  12.230  0.0306 -0.0168 -0.0880
 5373TIP3    H137610   5.674   1.206  12.238 -0.7825 -0.8290 -0.2611
 5373TIP3    H237611   5.716   1.070  12.289 -0.3566 -1.2314 -1.6379
 5374TIP3   OH237612   0.482   6.613  14.319  0.1578 -0.1720  0.1900
 5374TIP3    H137613   0.529   6.531  14.308  0.5235 -0.1420  1.4383
 5374TIP3    H237614   0.398   6.599  14.275 -0.0428 -1.4452  0.9395
 5375TIP3   OH237615   6.445   4.163   4.594  0.4078  0.5056  0.6996
 5375TIP3    H137616   6.448   4.125   4.506  0.3838 -1.6881  1.5813
 5375TIP3    H237617   6.509   4.234   4.592  2.0125 -0.9027 -0.4953
 5376TIP3   OH237618   3.927   1.436  14.550 -0.4233  0.4654  0.3615
 5376TIP3    H137619   3.885   1.498  14.610 -0.5930  0.3965  0.3147
 5376TIP3    H237620   3.904   1.350  14.585 -0.3282  0.4278  0.3299
 5377TIP3   OH237621   3.461   1.729   1.077  0.3254 -0.2302 -0.6442
 5377TIP3    H137622   3.386   1.779   1.046  0.3655  1.2234  1.4223
 5377TIP3    H237623   3.504   1.698   0.997 -0.6306  1.6596 -1.9707
 5378TIP3   OH237624   1.863   2.645  13.223  0.0491  0.0928  0.2672
 5378TIP3    H137625   1.788   2.700  13.243 -0.4442 -0.3875 -0.2222
 5378TIP3    H237626   1.937   2.687  13.268 -0.4823  0.6434  0.6349
 5379TIP3   OH237627   4.806   6.198   4.209  0.3750  0.4729 -0.1097
 5379TIP3    H137628   4.811   6.239   4.295 -1.8767 -1.4978  1.0763
 5379TIP3    H237629   4.833   6.267   4.148 -2.1146  3.4154  1.7901
 5380TIP3   OH237630   6.321   1.621  15.264 -0.8840 -0.4453 -0.1880
 5380TIP3    H137631   6.237   1.637  15.220 -0.2668 -0.6955 -1.5032
 5380TIP3    H237632   6.331   1.526  15.264 -0.2870 -0.3922 -0.6856
 5381TIP3   OH237633   2.848   3.485   1.936 -0.0453  0.2810 -0.0783
 5381TIP3    H137634   2.910   3.521   1.873 -0.1630  0.3797 -0.1372
 5381TIP3    H237635   2.851   3.546   2.010  0.9345 -0.4330  0.4981
 5382TIP3   OH237636   4.485   1.272  15.755 -0.2775  0.3046 -0.1682
 5382TIP3    H137637   4.501   1.359  15.792  0.4506  0.3902 -0.6660
 5382TIP3    H237638   4.480   1.214  15.831 -1.9602  0.9462  0.2492
 5383TIP3   OH237639   1.655   1.049  14.248 -0.0636  0.8948  0.9251
 5383TIP3    H137640   1.572   1.041  14.295 -0.8760  1.4104 -0.3733
 5383TIP3    H237641   1.713   1.094  14.309  0.0308 -1.4737  2.7479
 5384TIP3   OH237642   4.160   2.106   0.253 -0.0989  0.0056 -0.3393
 5384TIP3    H137643   4.136   2.116   0.161  1.2843 -1.6237 -0.9113
 5384TIP3    H237644   4.145   2.014   0.272  0.3682  0.1592  0.8543
 5385TIP3   OH237645   4.185   2.554  15.232 -0.0386 -0.0058 -0.2752
 5385TIP3    H137646   4.232   2.476  15.262 -1.4652 -1.1203 -0.7779
 5385TIP3    H237647   4.191   2.616  15.305  0.1281 -1.0432  0.6180
 5386TIP3   OH237648   6.727   6.554  11.190 -0.0734  0.2353  0.1964
 5386TIP3    H137649   6.673   6.501  11.248 -0.2328  1.1509  0.8980
 5386TIP3    H237650   6.813   6.554  11.231 -0.2342  1.0439  0.5372
 5387TIP3   OH237651   2.015   1.836  14.538 -0.1700  0.3900  0.9734
 5387TIP3    H137652   1.954   1.801  14.473 -0.3636  0.3518  1.1767
 5387TIP3    H237653   2.050   1.759  14.582 -0.0910  0.4190  0.9609
 5388TIP3   OH237654   2.299   4.940  14.014 -0.2855  0.1888 -0.1731
 5388TIP3    H137655   2.394   4.930  14.009 -0.3114 -1.1750  1.1157
 5388TIP3    H237656   2.283   4.971  14.103 -1.0658  0.0501 -0.2568
 5389TIP3   OH237657   2.238   3.685   5.805 -0.2527 -0.1763  0.0211
 5389TIP3    H137658   2.192   3.714   5.726  0.8362  0.2606 -0.4679
 5389TIP3    H237659   2.264   3.766   5.848  0.0934 -0.4202  0.2711
 5390TIP3   OH237660   5.919   5.336   6.202 -0.2795  0.1073  0.3970
 5390TIP3    H137661   5.974   5.369   6.131  0.2156 -0.3716  0.5579
 5390TIP3    H237662   5.898   5.246   6.177 -0.1720 -0.0353  0.8134
 5391TIP3   OH237663   1.138   2.861   2.987  0.3531  0.1785 -0.1820
 5391TIP3    H137664   1.171   2.938   3.032  0.6232 -0.5097  0.8442
 5391TIP3    H237665   1.059   2.837   3.036  0.8337 -0.7746  0.1485
 5392TIP3   OH237666   0.805   2.387   6.401 -0.1257  0.2152  0.0056
 5392TIP3    H137667   0.759   2.443   6.339  0.2810  1.0430  0.4415
 5392TIP3    H237668   0.868   2.338   6.347  0.4866  1.2040 -0.1931
 5393TIP3   OH237669   4.716   1.290   3.157  0.4781  0.2754  0.1572
 5393TIP3    H137670   4.697   1.371   3.109  1.0054 -0.7161 -1.8157
 5393TIP3    H237671   4.723   1.318   3.248 -1.0834  2.1668 -0.2218
 5394TIP3   OH237672   2.819   4.673  10.705 -0.3666  0.2552 -0.8317
 5394TIP3    H137673   2.898   4.725  10.713 -1.2242  1.3649  1.6229
 5394TIP3    H237674   2.838   4.593  10.755 -0.1102 -0.4019 -1.9670
 5395TIP3   OH237675   0.526   2.014  11.886  0.3964  0.2629  0.2412
 5395TIP3    H137676   0.587   2.066  11.834  0.5898 -0.1778  0.0145
 5395TIP3    H237677   0.557   2.023  11.976  2.2594 -1.8305 -0.1022
 5396TIP3   OH237678   6.303   2.023  12.938 -0.5436 -0.4579 -0.2028
 5396TIP3    H137679   6.257   2.099  12.973 -0.4093 -1.4661  2.3867
 5396TIP3    H237680   6.236   1.976  12.887 -0.7054  1.1456 -1.5775
 5397TIP3   OH237681   5.134   3.035  13.623 -0.2145 -0.2770 -0.7025
 5397TIP3    H137682   5.058   2.995  13.665 -0.8562  1.7588  0.2081
 5397TIP3    H237683   5.188   2.961  13.595 -1.3811 -1.7515  0.7436
 5398TIP3   OH237684   6.295   6.101   5.366  0.0714 -0.2397 -0.6576
 5398TIP3    H137685   6.298   6.151   5.285 -0.9162 -1.4361 -1.4829
 5398TIP3    H237686   6.356   6.029   5.352 -2.3931 -2.2990 -1.7315
 5399TIP3   OH237687   3.564   0.653  10.682 -0.4728  0.5910  0.0828
 5399TIP3    H137688   3.550   0.747  10.671 -1.2879  0.4327 -0.2969
 5399TIP3    H237689   3.553   0.616  10.594 -0.1817  0.1318  0.2296
 5400TIP3   OH237690   4.117   6.517  15.542  0.9790  0.2692  0.4453
 5400TIP3    H137691   4.208   6.515  15.512  0.7554 -0.8322 -0.2114
 5400TIP3    H237692   4.084   6.602  15.513  1.1861 -0.1866 -1.2102
 5401TIP3   OH237693   6.530   2.235  16.931  0.3688  0.2912  0.4263
 5401TIP3    H137694   6.537   2.200  16.843  0.8046  1.2193  0.0863
 5401TIP3    H237695   6.591   2.309  16.933 -1.1730  1.6173  0.8398
 5402TIP3   OH237696   1.008   0.354  12.818 -0.2803  0.0289 -0.1296
 5402TIP3    H137697   1.057   0.300  12.756 -0.5034 -1.5458  1.0048
 5402TIP3    H237698   0.917   0.329  12.804 -0.3312 -0.3441  0.8105
 5403TIP3   OH237699   0.452   0.181   1.349  0.3373 -0.5851  0.1217
 5403TIP3    H137700   0.417   0.223   1.428 -0.0587  1.0133 -0.8498
 5403TIP3    H237701   0.455   0.088   1.371 -1.9308 -0.4822  1.2388
 5404TIP3   OH237702   3.584   0.241   5.972 -0.0409 -0.2293  0.4237
 5404TIP3    H137703   3.608   0.221   6.062  0.7336  0.0291  0.2830
 5404TIP3    H237704   3.644   0.311   5.946  0.2167 -0.7707 -0.5125
 5405TIP3   OH237705   0.539   0.170  10.320 -1.0273  0.1308 -0.3170
 5405TIP3    H137706   0.520   0.246  10.263 -0.8166 -0.5731 -1.3583
 5405TIP3    H237707   0.556   0.209  10.406  1.6093  1.5508 -1.3459
 5406TIP3   OH237708   6.738   4.123  11.170 -0.3451  0.1270  0.8194
 5406TIP3    H137709   6.819   4.072  11.180 -1.4926 -2.4351 -1.5079
 5406TIP3    H237710   6.689   4.106  11.250  1.3324  1.6650  2.2334
 5407TIP3   OH237711   4.521   5.745  15.911 -0.3043  0.8465 -0.3653
 5407TIP3    H137712   4.558   5.781  15.991  0.1025 -0.4049  0.0333
 5407TIP3    H237713   4.516   5.819  15.851 -0.0468  1.6708  0.6088
 5408TIP3   OH237714   1.801   6.770  14.305  0.3856  0.2300  0.5664
 5408TIP3    H137715   1.755   6.707  14.360 -0.4640 -0.2343 -0.6342
 5408TIP3    H237716   1.733   6.809  14.250  1.2493  0.3302 -0.4734
 5409TIP3   OH237717   3.168   3.196  12.644 -0.3303 -0.5607  0.0423
 5409TIP3    H137718   3.131   3.197  12.556 -2.2773  1.0039  0.8048
 5409TIP3    H237719   3.146   3.109  12.678 -0.4792 -0.7986 -0.6466
 5410TIP3   OH237720   6.618   3.324   4.887  0.3922  0.3617 -0.6238
 5410TIP3    H137721   6.637   3.414   4.915 -1.9030  0.5387  0.7078
 5410TIP3    H237722   6.529   3.308   4.919  0.1674 -1.8854 -2.1469
 5411TIP3   OH237723   0.153   6.805   4.004  0.4747  0.1227  0.0566
 5411TIP3    H137724   0.089   6.765   4.062  1.0551  0.5380  1.0119
 5411TIP3    H237725   0.211   6.855   4.062  0.8210  0.9049 -0.9169
 5412TIP3   OH237726   4.889   6.663  10.736  0.4222 -0.3778  0.0892
 5412TIP3    H137727   4.870   6.725  10.665 -0.4026  0.7418  1.2339
 5412TIP3    H237728   4.980   6.638  10.722  0.4323  0.2106 -1.0717
 5413TIP3   OH237729   2.019   4.775  15.280 -0.2785  0.6021 -0.0702
 5413TIP3    H137730   2.053   4.716  15.347 -0.8668  0.5798  0.2159
 5413TIP3    H237731   1.925   4.755  15.276 -0.3203  0.8818 -0.6179
 5414TIP3   OH237732   6.477   3.578  14.822 -0.3319  0.0944  0.2021
 5414TIP3    H137733   6.409   3.573  14.754  0.7683 -0.5632 -0.8853
 5414TIP3    H237734   6.557   3.547  14.778  0.0494 -2.1518  2.2741
 5415TIP3   OH237735   2.117   5.712  16.209  0.1139 -0.1026 -0.0707
 5415TIP3    H137736   2.127   5.661  16.129  0.3636 -0.4008  0.1514
 5415TIP3    H237737   2.092   5.799  16.178 -0.9928 -0.5228 -0.4261
 5416TIP3   OH237738   4.066   0.643  16.579 -0.2510 -0.0513  0.0998
 5416TIP3    H137739   3.978   0.631  16.542  0.2196  2.9111 -2.3743
 5416TIP3    H237740   4.058   0.611  16.669 -3.1953 -2.0255 -0.6910
 5417TIP3   OH237741   0.894   0.602   1.927  0.2413  0.5840 -0.1239
 5417TIP3    H137742   0.840   0.677   1.955  1.1522  1.4116 -0.5331
 5417TIP3    H237743   0.960   0.594   1.995  1.0072  1.0694 -0.7944
 5418TIP3   OH237744   0.839   5.409  17.250  0.0642  0.1978  0.4626
 5418TIP3    H137745   0.930   5.430  17.270  0.1718 -1.5120  1.9539
 5418TIP3    H237746   0.840   5.315  17.229 -1.2650  0.3033 -0.1731
 5419TIP3   OH237747   5.763   2.174  10.799  0.4928 -0.4701 -0.0099
 5419TIP3    H137748   5.741   2.101  10.741  1.7391 -0.1077 -0.9559
 5419TIP3    H237749   5.691   2.236  10.787  0.6642 -0.4588 -1.0800
 5420TIP3   OH237750   0.430   6.177   3.701  0.0826 -0.0760  0.0367
 5420TIP3    H137751   0.408   6.153   3.791  0.2780  1.1711  0.4393
 5420TIP3    H237752   0.513   6.133   3.684 -1.0469 -2.1922 -0.3738
 5421TIP3   OH237753   6.581   0.156   1.803 -0.2150 -0.2688 -0.6972
 5421TIP3    H137754   6.590   0.249   1.826  0.4423 -0.0619 -1.7094
 5421TIP3    H237755   6.657   0.114   1.843 -0.2126 -0.2711 -0.7037
 5422TIP3   OH237756   0.958   5.082  15.069  0.5701  0.2146 -0.1147
 5422TIP3    H137757   0.984   5.100  14.979  0.6621  2.0947  0.2599
 5422TIP3    H237758   0.883   5.022  15.060  0.4650  0.5064 -1.4339
 5423TIP3   OH237759   0.503   0.594   0.808 -0.3612  0.4081  0.1848
 5423TIP3    H137760   0.572   0.529   0.792 -2.0489 -0.8915 -2.7047
 5423TIP3    H237761   0.422   0.545   0.798 -1.7854  3.0496 -3.8598
 5424TIP3   OH237762   0.284   1.843  14.152  0.0839 -0.6997  0.3184
 5424TIP3    H137763   0.315   1.814  14.237  0.8211 -0.9072 -0.0061
 5424TIP3    H237764   0.196   1.807  14.144  0.4386 -1.6554  0.5217
 5425TIP3   OH237765   6.585   4.394   1.303 -0.5266 -0.0767 -0.5808
 5425TIP3    H137766   6.608   4.422   1.391 -1.0434 -2.3673  0.3566
 5425TIP3    H237767   6.614   4.465   1.246 -0.1539  1.4449  1.4162
 5426TIP3   OH237768   4.032   6.608   0.899 -0.5026  0.1870 -0.3373
 5426TIP3    H137769   3.992   6.556   0.969 -0.6827 -0.1677 -0.6977
 5426TIP3    H237770   3.987   6.580   0.820  1.7203 -1.6632 -1.0856
 5427TIP3   OH237771   0.785   1.356  15.309 -0.0014 -0.0235  0.3840
 5427TIP3    H137772   0.829   1.341  15.392  1.6939 -0.5510 -0.5643
 5427TIP3    H237773   0.827   1.295  15.248 -1.4066  0.1304 -0.8059
 5428TIP3   OH237774   1.757   0.362   6.405 -0.4630  0.4150 -0.5816
 5428TIP3    H137775   1.728   0.280   6.365  1.2466  0.2816 -1.6427
 5428TIP3    H237776   1.772   0.421   6.331 -1.2884  1.5916  0.1479
 5429TIP3   OH237777   0.164   3.898   1.190  0.1382  0.3109 -0.2342
 5429TIP3    H137778   0.084   3.950   1.192  0.2926  0.5530 -0.4408
 5429TIP3    H237779   0.231   3.957   1.157 -0.0789 -0.5537 -2.3923
 5430TIP3   OH237780   2.610   5.572   6.154  0.5728  0.3419  0.2086
 5430TIP3    H137781   2.525   5.535   6.178  0.0249  2.7187  2.3738
 5430TIP3    H237782   2.669   5.543   6.224  1.0004  0.5972 -0.0432
 5431TIP3   OH237783   6.657   1.186   5.578 -0.2015 -0.5172  0.0449
 5431TIP3    H137784   6.727   1.252   5.580 -0.5776 -0.1381  0.9069
 5431TIP3    H237785   6.655   1.150   5.667 -0.7233 -0.9341 -0.1287
 5432TIP3   OH237786   3.158   6.677   2.952  0.0387  0.4178 -0.2280
 5432TIP3    H137787   3.193   6.703   2.867  0.5982  0.2602 -0.0508
 5432TIP3    H237788   3.213   6.722   3.015  0.9881 -1.0907  0.0897
 5433TIP3   OH237789   1.594   0.612   2.158 -0.2451 -0.2591 -0.2110
 5433TIP3    H137790   1.552   0.530   2.187 -1.2192  0.5927  0.9350
 5433TIP3    H237791   1.663   0.627   2.223  0.1177 -0.3117 -0.5835
 5434TIP3   OH237792   6.336   3.327  16.021 -0.2791 -0.7880  0.0267
 5434TIP3    H137793   6.359   3.405  15.970  2.9308 -0.7280  1.3019
 5434TIP3    H237794   6.287   3.361  16.096  1.1104  0.0861  0.5801
 5435TIP3   OH237795   6.561   1.466   0.324  0.1444  0.3086  0.2563
 5435TIP3    H137796   6.551   1.508   0.239  1.7783  3.5749  1.4878
 5435TIP3    H237797   6.640   1.414   0.317  2.0330  2.9622  0.4750
 5436TIP3   OH237798   4.152   1.791  16.995  0.1747 -0.0744  0.0604
 5436TIP3    H137799   4.147   1.695  16.996 -2.4021 -0.0344 -1.0827
 5436TIP3    H237800   4.196   1.812  16.913  1.6501 -0.2341  0.7699
 5437TIP3   OH237801   0.137   1.284   0.204 -0.0832 -0.0141  0.4788
 5437TIP3    H137802   0.182   1.369   0.211  2.5320 -1.3251  0.7448
 5437TIP3    H237803   0.059   1.294   0.259  1.6803  1.3221  2.9687
 5438TIP3   OH237804   2.467   5.280   6.183 -0.4892  0.3113 -0.1002
 5438TIP3    H137805   2.556   5.300   6.213  0.5112 -2.4978 -0.9083
 5438TIP3    H237806   2.478   5.247   6.094 -2.3660 -0.0122 -0.2543
 5439TIP3   OH237807   5.575   4.702   3.067 -0.0850 -0.3913 -0.4490
 5439TIP3    H137808   5.632   4.777   3.082  0.7744 -1.0221 -0.5201
 5439TIP3    H237809   5.519   4.699   3.145  1.1607 -0.8002  0.4693
 5440TIP3   OH237810   1.882   1.191   4.539 -0.4829  0.6212 -0.0742
 5440TIP3    H137811   1.953   1.128   4.527 -1.5598 -0.5953 -0.2603
 5440TIP3    H237812   1.848   1.173   4.627 -0.8860  0.8262 -0.1825
 5441TIP3   OH237813   6.284   1.755  17.076 -0.4537  0.2570 -0.0483
 5441TIP3    H137814   6.279   1.790  16.987 -2.2494 -0.9092 -0.4718
 5441TIP3    H237815   6.374   1.771  17.104 -0.0301  1.2007 -1.8416
 5442TIP3   OH237816   4.695   5.024   0.777  0.7061 -0.3533  0.6683
 5442TIP3    H137817   4.753   4.970   0.831  0.6614 -0.9367  0.1447
 5442TIP3    H237818   4.623   4.966   0.753  1.7624 -0.7836 -1.7467
 5443TIP3   OH237819   2.741   3.795  13.597 -0.0496 -0.6759 -0.2673
 5443TIP3    H137820   2.778   3.883  13.589 -1.9597  0.0861 -1.3616
 5443TIP3    H237821   2.786   3.757  13.672  1.1556  1.0550 -0.0494
 5444TIP3   OH237822   1.257   6.612  12.714  0.0494  0.2571  0.2266
 5444TIP3    H137823   1.231   6.620  12.622  1.0655 -2.1326 -0.3334
 5444TIP3    H237824   1.353   6.614  12.712  0.1302 -1.3130  1.0223
 5445TIP3   OH237825   1.082   1.495   0.644 -0.3949 -0.2290  0.0179
 5445TIP3    H137826   1.137   1.480   0.567 -1.1384  1.5205 -0.9097
 5445TIP3    H237827   1.020   1.422   0.644 -0.4178 -0.2261 -1.0882
 5446TIP3   OH237828   6.253   1.677  12.795  0.8762  0.4939 -0.0596
 5446TIP3    H137829   6.331   1.715  12.836  0.7268  1.2576 -0.4707
 5446TIP3    H237830   6.276   1.668  12.703  1.0215 -0.7307  0.0847
 5447TIP3   OH237831   0.930   2.609  16.401 -0.9222  0.0986  0.2943
 5447TIP3    H137832   0.842   2.619  16.366 -0.3363  0.9863 -0.9828
 5447TIP3    H237833   0.988   2.638  16.331  0.3429  0.7975  1.5595
 5448TIP3   OH237834   2.687   3.586   1.360  0.5478  0.3143  0.0496
 5448TIP3    H137835   2.669   3.544   1.444  0.9990  0.7088  0.3429
 5448TIP3    H237836   2.737   3.664   1.382  1.3657  0.0028 -0.6388
 5449TIP3   OH237837   2.878   2.715   0.910 -0.0468  0.3488  0.0301
 5449TIP3    H137838   2.921   2.699   0.826  1.2904 -0.1368  0.7809
 5449TIP3    H237839   2.935   2.777   0.955 -0.7780  0.6443  0.5785
 5450TIP3   OH237840   4.115   6.020  15.302 -0.2359  0.0293 -0.1342
 5450TIP3    H137841   4.141   6.088  15.364  0.6727 -1.0711  0.7206
 5450TIP3    H237842   4.174   6.031  15.228 -1.2422  1.2658 -0.7916
 5451TIP3   OH237843   0.525   4.918   0.430 -0.1112  0.5737  0.3089
 5451TIP3    H137844   0.542   4.839   0.481  1.6657  0.8390  0.1866
 5451TIP3    H237845   0.593   4.979   0.457  1.1094  0.6254 -2.5342
 5452TIP3   OH237846   2.125   5.286  12.682  0.0128  0.2607 -0.2098
 5452TIP3    H137847   2.113   5.371  12.723  1.6542  1.2931 -1.7319
 5452TIP3    H237848   2.038   5.246  12.682 -1.1902  2.7057 -1.0569
 5453TIP3   OH237849   1.243   6.007   1.023  0.5739 -0.2848  0.0601
 5453TIP3    H137850   1.166   5.995   0.966  0.1660 -0.4757  0.6447
 5453TIP3    H237851   1.307   6.050   0.967 -0.1955  0.5014 -0.2459
 5454TIP3   OH237852   6.721   1.722   1.150  0.8741  0.1957 -0.3655
 5454TIP3    H137853   6.714   1.667   1.072  0.3541 -0.3660  0.0717
 5454TIP3    H237854   6.741   1.661   1.221  1.9180  0.7695 -0.1436
 5455TIP3   OH237855   1.457   0.352   1.530  0.2499 -0.3989  0.4893
 5455TIP3    H137856   1.483   0.268   1.493 -0.5247 -0.1331 -0.7194
 5455TIP3    H237857   1.439   0.333   1.622 -0.2343 -1.6181  0.1632
 5456TIP3   OH237858   6.691   1.290  13.053 -1.0056 -0.2471 -0.3092
 5456TIP3    H137859   6.656   1.253  13.135 -1.0966  1.0652  0.2736
 5456TIP3    H237860   6.615   1.330  13.011 -0.7648 -0.0043 -0.5139
 5457TIP3   OH237861   1.677   1.456   5.325  0.4468 -0.3993  0.1156
 5457TIP3    H137862   1.651   1.466   5.417 -1.5350 -0.0763 -0.4299
 5457TIP3    H237863   1.618   1.390   5.290 -0.2646  0.9589 -1.4280
 5458TIP3   OH237864   6.250   0.217   4.324 -0.0035 -1.1241  0.5499
 5458TIP3    H137865   6.180   0.152   4.336 -0.6516 -0.5088  0.1692
 5458TIP3    H237866   6.301   0.183   4.251 -0.5112 -1.0691  0.1599
 5459TIP3   OH237867   6.177   0.933  16.354  0.0622  0.1949  0.3522
 5459TIP3    H137868   6.205   0.865  16.293  1.3853 -0.6529  1.8076
 5459TIP3    H237869   6.156   0.885  16.435  2.0960  1.5295  1.7736
 5460TIP3   OH237870   0.711   1.066   2.118 -0.4200 -0.5069  0.6194
 5460TIP3    H137871   0.803   1.053   2.097 -0.6327  0.6101 -1.2045
 5460TIP3    H237872   0.709   1.153   2.160 -0.7627 -0.0391 -0.3491
 5461TIP3   OH237873   5.227   5.896  16.354  0.2246 -0.2734  0.1780
 5461TIP3    H137874   5.318   5.915  16.373  0.5208 -0.9319 -0.5306
 5461TIP3    H237875   5.197   5.844  16.430  0.3830  0.0900  0.4901
 5462TIP3   OH237876   2.923   0.504  14.385  0.0706  0.4954 -0.2191
 5462TIP3    H137877   2.903   0.596  14.405  0.8006  0.8397 -1.0092
 5462TIP3    H237878   2.941   0.465  14.470  0.0425  1.1605  0.1031
 5463TIP3   OH237879   1.316   2.123   1.550 -0.5192  0.1431  0.1177
 5463TIP3    H137880   1.288   2.154   1.464 -1.7994 -0.6593  0.2186
 5463TIP3    H237881   1.292   2.194   1.610 -0.0680  0.4937 -0.1048
 5464TIP3   OH237882   5.252   1.025   1.019 -0.1948 -0.0038 -0.2443
 5464TIP3    H137883   5.218   0.993   1.102 -0.4573 -1.2756 -0.8189
 5464TIP3    H237884   5.337   0.982   1.009 -1.1334 -1.6371 -1.6477
 5465TIP3   OH237885   5.425   1.993  13.735  0.9079 -0.0757  0.0855
 5465TIP3    H137886   5.342   2.034  13.760  1.4010 -0.0822  1.8561
 5465TIP3    H237887   5.432   2.010  13.641 -1.8205 -1.4426 -0.4689
 5466TIP3   OH237888   3.204   2.878   0.690 -0.5051 -0.3227  0.0980
 5466TIP3    H137889   3.275   2.942   0.697 -0.7851 -0.1337  1.5746
 5466TIP3    H237890   3.149   2.911   0.619  2.2081 -1.8839 -2.9789
 5467TIP3   OH237891   5.824   2.105  12.946  0.7023 -0.5416  0.3636
 5467TIP3    H137892   5.879   2.038  12.905  1.4783 -0.3496  1.0630
 5467TIP3    H237893   5.740   2.061  12.961  0.8380 -1.0117 -0.1991
 5468TIP3   OH237894   0.588   3.515  14.568  0.4529 -0.1615 -0.2333
 5468TIP3    H137895   0.503   3.548  14.594 -0.3732 -1.3218 -1.3007
 5468TIP3    H237896   0.633   3.495  14.650 -1.3897 -2.1433  0.3800
 5469TIP3   OH237897   1.159   6.671   2.592  0.0394  0.2440  0.1407
 5469TIP3    H137898   1.173   6.576   2.598  0.9101  0.4495  2.4525
 5469TIP3    H237899   1.170   6.691   2.499  0.8781 -1.7724 -0.2525
 5470TIP3   OH237900   4.270   4.593   1.999 -0.5435  0.2680 -0.0091
 5470TIP3    H137901   4.348   4.580   2.054 -2.3993 -0.2443  2.7147
 5470TIP3    H237902   4.299   4.652   1.930  2.2322  0.1733  0.9489
 5471TIP3   OH237903   6.380   4.392  16.249 -0.2370  0.1399  0.0879
 5471TIP3    H137904   6.413   4.393  16.338 -0.3226  0.9495  0.1154
 5471TIP3    H237905   6.370   4.299  16.228  1.1688 -0.1006  0.4005
 5472TIP3   OH237906   0.424   2.775  17.185 -0.3856 -0.2750 -0.4376
 5472TIP3    H137907   0.350   2.724  17.218  0.1281 -0.2032  0.8942
 5472TIP3    H237908   0.500   2.717  17.197  0.1674  0.6597  0.8583
 5473TIP3   OH237909   6.283   6.431  13.920  0.0076 -0.6870 -0.0209
 5473TIP3    H137910   6.332   6.400  13.844 -0.3990 -0.8379 -0.2288
 5473TIP3    H237911   6.342   6.492  13.964 -0.1179  0.1922 -1.0250
 5474TIP3   OH237912   4.353   6.435   0.973 -0.5242  0.2681 -0.1670
 5474TIP3    H137913   4.379   6.371   0.907 -0.1703  0.0876  0.1390
 5474TIP3    H237914   4.263   6.458   0.950 -1.9674 -2.8815  1.6544
 5475TIP3   OH237915   1.429   6.701   4.344  0.0514  0.4544  0.1386
 5475TIP3    H137916   1.363   6.750   4.394 -1.3643 -0.0930 -1.1066
 5475TIP3    H237917   1.506   6.758   4.345 -1.2869  2.3984 -0.6098
 5476TIP3   OH237918   1.677   2.169  11.295 -0.2251 -0.3977  0.0353
 5476TIP3    H137919   1.751   2.228  11.279  1.0592 -1.9750 -0.2187
 5476TIP3    H237920   1.657   2.182  11.388  2.2679 -1.8642  0.8888
 5477TIP3   OH237921   2.477   1.144   3.743 -0.4220  0.2896 -0.2613
 5477TIP3    H137922   2.495   1.076   3.808  0.8370  1.1799  0.3803
 5477TIP3    H237923   2.547   1.135   3.679 -0.4213  0.7781 -0.3327
 5478TIP3   OH237924   2.711   5.460   2.205  0.0457  0.2064 -0.4567
 5478TIP3    H137925   2.722   5.383   2.149 -1.2898  0.9471 -1.7861
 5478TIP3    H237926   2.681   5.424   2.289  1.1337 -0.8313 -0.4762
 5479TIP3   OH237927   1.458   3.040   0.291  0.2008  0.4663 -0.7638
 5479TIP3    H137928   1.383   3.095   0.268 -0.2646  0.3737  0.5003
 5479TIP3    H237929   1.442   2.957   0.246 -0.9979  0.0830  0.3476
 5480TIP3   OH237930   5.181   0.695  11.889  0.5779  0.0611  0.4301
 5480TIP3    H137931   5.094   0.731  11.907  1.2338  1.5013  0.8980
 5480TIP3    H237932   5.208   0.739  11.808  0.8971 -0.3343  0.3183
 5481TIP3   OH237933   1.119   0.692  15.877 -0.5127 -0.5262  0.0111
 5481TIP3    H137934   1.035   0.729  15.849  0.6313  1.2504 -1.2651
 5481TIP3    H237935   1.161   0.662  15.797  0.1241 -1.3351  0.6209
 5482TIP3   OH237936   5.649   2.003   5.102 -0.0031 -0.0326 -0.1392
 5482TIP3    H137937   5.683   2.065   5.166  0.0401 -0.5648  0.3599
 5482TIP3    H237938   5.699   1.923   5.117  0.4605  0.0211 -1.2729
 5483TIP3   OH237939   5.343   0.280  15.253  0.4339  0.3388 -0.1101
 5483TIP3    H137940   5.351   0.253  15.162 -0.4843 -1.4145  0.3028
 5483TIP3    H237941   5.342   0.376  15.249  2.6743  0.3801 -1.7128
 5484TIP3   OH237942   3.698   3.445  16.837 -0.1756 -0.1590  0.5521
 5484TIP3    H137943   3.729   3.520  16.887 -1.6194  1.5051 -0.8913
 5484TIP3    H237944   3.776   3.409  16.795  0.2962  1.9059 -0.4530
 5485TIP3   OH237945   2.458   6.260   5.574 -0.5597 -1.0407  0.1180
 5485TIP3    H137946   2.490   6.172   5.553  1.0938 -0.0993 -1.6467
 5485TIP3    H237947   2.446   6.302   5.489  0.2544  0.9532  0.9330
 5486TIP3   OH237948   1.362   4.161   2.954  0.1772 -0.1230 -0.6582
 5486TIP3    H137949   1.363   4.228   2.885 -0.1554  0.1604 -0.3895
 5486TIP3    H237950   1.427   4.191   3.017  1.9060 -1.3521 -1.7391
 5487TIP3   OH237951   5.581   4.316   5.138 -0.0749 -0.6772 -0.1842
 5487TIP3    H137952   5.584   4.409   5.159 -2.3734 -0.5048 -0.4013
 5487TIP3    H237953   5.672   4.287   5.147  0.3468  1.0536  2.1560
 5488TIP3   OH237954   1.931   5.304  11.435 -0.7527 -0.2797 -0.5699
 5488TIP3    H137955   1.905   5.220  11.474 -1.1445  0.0240 -0.1589
 5488TIP3    H237956   1.849   5.354  11.429 -0.2769  0.7848  0.9627
 5489TIP3   OH237957   1.541   0.852  15.880  0.3883 -0.7748 -0.2962
 5489TIP3    H137958   1.509   0.942  15.877  1.7283 -0.2509  0.3253
 5489TIP3    H237959   1.509   0.812  15.799 -1.7076 -0.2875  0.2168
 5490TIP3   OH237960   1.420   6.769  17.096 -0.2246  0.3803  0.7410
 5490TIP3    H137961   1.450   6.723  17.174 -0.0429  1.3838  1.2784
 5490TIP3    H237962   1.486   6.750  17.029  0.6677  1.0880  1.3944
 5491TIP3   OH237963   4.513   4.391   5.033 -0.2935  0.4007 -0.4710
 5491TIP3    H137964   4.491   4.298   5.026 -0.4306  0.4979 -1.4597
 5491TIP3    H237965   4.537   4.417   4.944 -1.8091  1.6862 -0.5536
 5492TIP3   OH237966   0.270   1.902   4.992 -0.9851 -0.1955 -0.3879
 5492TIP3    H137967   0.358   1.888   5.027 -0.3199  0.7143 -1.6105
 5492TIP3    H237968   0.224   1.951   5.060 -0.0572  0.6468 -0.3516
 5493TIP3   OH237969   1.936   5.478   4.554  0.5974  0.2120 -0.1666
 5493TIP3    H137970   1.981   5.401   4.588 -0.4795  0.0979  1.0607
 5493TIP3    H237971   1.848   5.449   4.535  0.4179  0.9391 -0.5006
 5494TIP3   OH237972   5.366   0.894  13.258 -0.3723 -0.4745  0.0792
 5494TIP3    H137973   5.361   0.928  13.347 -0.9676 -1.6098  0.5018
 5494TIP3    H237974   5.423   0.955  13.211 -1.0525  0.8172  0.9085
 5495TIP3   OH237975   6.175   5.417  12.830 -0.0710 -0.1052  0.6527
 5495TIP3    H137976   6.158   5.365  12.751  1.4439 -0.9074  0.8108
 5495TIP3    H237977   6.095   5.410  12.882 -0.5868 -0.7014 -0.1987
 5496TIP3   OH237978   3.394   3.922  16.986 -0.1993 -0.0737  0.0214
 5496TIP3    H137979   3.311   3.875  16.997  0.7645 -1.7079  0.7552
 5496TIP3    H237980   3.441   3.873  16.919  1.1843 -0.7200  1.4126
 5497TIP3   OH237981   6.275   4.981   4.798 -0.5047 -0.2967 -0.4849
 5497TIP3    H137982   6.327   5.014   4.725 -0.6297  1.7204  0.2889
 5497TIP3    H237983   6.217   5.053   4.821  0.7794 -0.1249  2.7816
 5498TIP3   OH237984   3.069   6.509   4.422  0.4632 -0.0694  0.1443
 5498TIP3    H137985   3.140   6.452   4.452 -0.0120 -0.0623  1.3294
 5498TIP3    H237986   2.996   6.490   4.481 -0.4624  0.0856 -0.9148
 5499TIP3   OH237987   0.590   3.510   1.442  0.0806 -0.5021 -0.4532
 5499TIP3    H137988   0.516   3.470   1.487 -0.0209 -1.7471 -1.6797
 5499TIP3    H237989   0.553   3.540   1.358  0.2251  1.9076  0.2650
 5500TIP3   OH237990   4.113   6.159  14.661  0.0977 -0.0017 -0.3411
 5500TIP3    H137991   4.189   6.104  14.679  0.3968  0.8402  1.1459
 5500TIP3    H237992   4.068   6.166  14.746 -2.0098 -0.9838 -1.2934
 5501TIP3   OH237993   1.355   3.614  15.828  0.4205  0.9167  0.0569
 5501TIP3    H137994   1.438   3.609  15.780 -0.8352  2.2855 -2.4104
 5501TIP3    H237995   1.335   3.523  15.850  0.5275  0.0340 -3.0622
 5502TIP3   OH237996   3.969   1.580   5.599 -0.7771  0.2451  0.3790
 5502TIP3    H137997   3.940   1.512   5.659 -0.3841  0.1078  0.4177
 5502TIP3    H237998   3.976   1.536   5.514  2.6015 -0.6726  0.9481
 5503TIP3   OH237999   4.537   1.393  14.922  0.0805 -0.2450 -0.8517
 5503TIP3    H138000   4.606   1.458  14.917  0.4088 -0.5808 -0.7608
 5503TIP3    H238001   4.493   1.398  14.837 -0.8511  1.1188 -0.3062
 5504TIP3   OH238002   1.417   4.045  12.883 -0.2272 -0.2122 -0.7678
 5504TIP3    H138003   1.485   4.045  12.817 -1.3545 -0.1070 -1.9636
 5504TIP3    H238004   1.440   3.971  12.941  1.4285  0.4540 -0.5289
 5505TIP3   OH238005   6.796   3.284   2.290 -0.1418  0.1695 -0.0333
 5505TIP3    H138006   6.884   3.311   2.315 -0.7012  1.2263  0.8708
 5505TIP3    H238007   6.744   3.364   2.294 -1.2327 -0.5032 -0.1763
 5506TIP3   OH238008   2.587   1.151  11.907  0.5176  0.4936  0.3137
 5506TIP3    H138009   2.515   1.203  11.945 -1.4852 -1.8407  0.0185
 5506TIP3    H238010   2.598   1.186  11.819  0.1962  1.3216  0.5887
 5507TIP3   OH238011   6.824   4.632  11.351 -0.2466  0.3159  0.2672
 5507TIP3    H138012   6.827   4.592  11.438 -0.1220  0.7838  0.4780
 5507TIP3    H238013   6.731   4.636  11.329 -0.2371 -0.7595 -0.0718
 5508TIP3   OH238014   6.185   0.252   2.342 -0.5339 -0.6274 -0.4274
 5508TIP3    H138015   6.120   0.298   2.288  1.2818  1.2087 -1.2037
 5508TIP3    H238016   6.206   0.174   2.291 -0.2516  0.0992 -1.4643
 5509TIP3   OH238017   5.220   6.298  17.228 -0.4170  0.2030  0.3997
 5509TIP3    H138018   5.291   6.340  17.278  1.4757 -1.3519 -0.8126
 5509TIP3    H238019   5.142   6.310  17.282  1.4047 -1.0557  3.5982
 5510TIP3   OH238020   1.356   2.383   2.897  0.6890 -0.5788  0.5617
 5510TIP3    H138021   1.432   2.354   2.948 -0.4609  1.3317  3.6279
 5510TIP3    H238022   1.358   2.478   2.903  0.1565 -0.2667 -2.6953
 5511TIP3   OH238023   1.050   6.311   0.921 -0.1998 -0.5090  0.0163
 5511TIP3    H138024   1.111   6.333   0.991 -0.4143 -1.3431  0.4819
 5511TIP3    H238025   1.000   6.236   0.955  0.6117 -1.8165 -1.5366
 5512TIP3   OH238026   4.845   3.231  16.864  0.3963  0.3348  0.2933
 5512TIP3    H138027   4.841   3.285  16.785  0.5590 -0.0544  0.0124
 5512TIP3    H238028   4.937   3.202  16.868  0.0562 -0.8653 -0.2155
 5513TIP3   OH238029   0.518   6.433  12.603  0.2104  0.5922  0.1166
 5513TIP3    H138030   0.438   6.458  12.558 -1.0066 -1.5357  0.9841
 5513TIP3    H238031   0.574   6.398  12.534 -0.9871 -1.1074 -0.0373
 5514TIP3   OH238032   3.521   2.165  15.678  0.0293  0.3792  0.2872
 5514TIP3    H138033   3.612   2.175  15.707  0.3020 -0.1786 -0.3742
 5514TIP3    H238034   3.524   2.098  15.610 -0.6099  1.6595 -1.0413
 5515TIP3   OH238035   1.120   2.207   5.607  0.0183 -0.9276  0.5385
 5515TIP3    H138036   1.067   2.150   5.662 -0.1915  1.0353  2.5096
 5515TIP3    H238037   1.058   2.250   5.549 -0.0453 -1.3987  0.2550
 5516TIP3   OH238038   3.707   0.439  11.665  0.0133 -0.1164  0.2187
 5516TIP3    H138039   3.627   0.434  11.717  0.8749 -1.0307  1.5293
 5516TIP3    H238040   3.760   0.506  11.708  0.6896 -0.7982  0.4715
 5517TIP3   OH238041   5.031   5.986  13.362 -0.0694 -0.0775 -0.5044
 5517TIP3    H138042   5.048   5.929  13.437 -0.9419  0.7610  0.3705
 5517TIP3    H238043   5.007   5.927  13.291 -1.3715 -0.8133  0.4889
 5518TIP3   OH238044   5.678   2.757   5.751  0.0445 -0.5995  0.2467
 5518TIP3    H138045   5.678   2.697   5.677 -0.5083  1.1831 -1.2745
 5518TIP3    H238046   5.599   2.810   5.739  2.0676  2.5395 -0.3114
 5519TIP3   OH238047   5.333   4.050  12.670 -0.4181  0.0554  0.3805
 5519TIP3    H138048   5.270   3.999  12.619 -0.8288 -1.1393  1.9903
 5519TIP3    H238049   5.411   4.055  12.615 -0.3033 -2.4971  0.1766
 5520TIP3   OH238050   5.601   6.604   1.636 -0.5681  0.3087 -0.3373
 5520TIP3    H138051   5.519   6.617   1.588 -1.2038 -0.3357  0.5441
 5520TIP3    H238052   5.602   6.674   1.701 -0.3875  0.3551 -0.3903
 5521TIP3   OH238053   4.376   1.127  16.282  0.1935 -1.0002 -0.5866
 5521TIP3    H138054   4.320   1.133  16.359  0.0197 -0.6966 -0.7341
 5521TIP3    H238055   4.361   1.039  16.248 -0.4632 -0.8038 -0.8197
 5522TIP3   OH238056   3.120   6.776   1.189  0.4745 -0.1853  0.1745
 5522TIP3    H138057   3.044   6.771   1.131  0.2393  2.6883  0.1155
 5522TIP3    H238058   3.086   6.810   1.272  1.5675  0.3008  0.4434
 5523TIP3   OH238059   1.275   3.927   5.255  0.1967  0.2923  0.6957
 5523TIP3    H138060   1.235   3.946   5.340 -1.1208  0.8771 -0.0224
 5523TIP3    H238061   1.295   3.833   5.258 -0.0682  0.2597  1.5560
 5524TIP3   OH238062   6.437   6.755   2.507 -0.3258 -0.4481 -0.5581
 5524TIP3    H138063   6.470   6.816   2.441 -0.0189 -0.6717 -0.6158
 5524TIP3    H238064   6.515   6.729   2.556 -0.4353 -0.8755 -0.6027
 5525TIP3   OH238065   2.998   1.580  15.199 -0.0155 -0.3010  0.1305
 5525TIP3    H138066   3.011   1.663  15.152 -1.6531 -0.8483 -1.4286
 5525TIP3    H238067   3.073   1.574  15.258  1.4374  1.1226 -1.4286
 5526TIP3   OH238068   1.238   1.518   1.931 -0.2861  0.8180  0.6564
 5526TIP3    H138069   1.313   1.524   1.870 -0.7681  1.9167  0.1478
 5526TIP3    H238070   1.196   1.604   1.925 -1.1957  0.4352  1.4568
 5527TIP3   OH238071   0.501   5.130  11.932 -0.2528  0.1819 -0.0553
 5527TIP3    H138072   0.574   5.181  11.968  0.6719 -0.0172 -1.5667
 5527TIP3    H238073   0.423   5.183  11.952 -0.0683 -0.7276  3.6961
 5528TIP3   OH238074   6.175   4.545  16.143 -0.0705  0.0414  0.0883
 5528TIP3    H138075   6.139   4.584  16.223  1.2321 -0.0541  0.7412
 5528TIP3    H238076   6.242   4.484  16.173  2.0307  1.6050 -1.0873
 5529TIP3   OH238077   5.644   2.960   1.332 -0.1441 -0.4553 -0.3083
 5529TIP3    H138078   5.697   2.881   1.346  1.0337 -0.4072 -3.6434
 5529TIP3    H238079   5.664   3.016   1.407  1.1984 -2.1810  0.7037
 5530TIP3   OH238080   4.621   3.033  14.136 -0.6902 -0.8607  0.6970
 5530TIP3    H138081   4.652   3.077  14.215 -1.1167  1.6317 -0.4145
 5530TIP3    H238082   4.551   2.975  14.166 -2.2660  1.5424  2.0137
 5531TIP3   OH238083   3.919   0.078  11.752 -0.3660  0.2547 -0.0654
 5531TIP3    H138084   3.865   0.004  11.780 -0.3470  0.5518  0.7790
 5531TIP3    H238085   3.922   0.070  11.656  0.1473 -1.1794  0.0398
 5532TIP3   OH238086   5.210   5.724  16.929 -0.1798 -0.0202 -0.1396
 5532TIP3    H138087   5.171   5.769  17.004 -1.2804 -1.0989 -0.0442
 5532TIP3    H238088   5.200   5.631  16.948  0.1780 -0.3081 -1.2876
 5533TIP3   OH238089   2.360   5.675  14.315  0.2989  0.2101 -0.0635
 5533TIP3    H138090   2.398   5.762  14.306 -0.6853  0.9057  1.8420
 5533TIP3    H238091   2.295   5.669  14.245  1.2970  0.4445 -1.0347
 5534TIP3   OH238092   6.131   0.886  12.428 -0.5597 -0.6949  0.4153
 5534TIP3    H138093   6.215   0.922  12.401 -0.5784 -1.8010 -1.2871
 5534TIP3    H238094   6.080   0.962  12.455 -0.0468  0.3897 -1.4733
 5535TIP3   OH238095   4.982   5.885   5.523  0.5772  0.3555 -0.5873
 5535TIP3    H138096   4.929   5.826   5.576 -0.3700 -0.5872 -2.4915
 5535TIP3    H238097   4.966   5.972   5.561 -1.4402 -0.0500 -0.3993
 5536TIP3   OH238098   3.130   0.313   0.880 -0.0758 -0.0728 -0.6161
 5536TIP3    H138099   3.149   0.328   0.787 -1.9982  0.7506 -0.9211
 5536TIP3    H238100   3.044   0.272   0.881 -0.6543  1.0724  0.8465
 5537TIP3   OH238101   1.237   2.222  15.475 -0.1617  0.0221 -0.1009
 5537TIP3    H138102   1.147   2.190  15.477 -0.4363  0.7038 -0.9180
 5537TIP3    H238103   1.239   2.292  15.541  0.5137 -1.7804  1.8939
 5538TIP3   OH238104   1.511   2.330   5.843 -0.0329  0.6431  0.0155
 5538TIP3    H138105   1.489   2.259   5.903 -0.1520  1.0823  0.4998
 5538TIP3    H238106   1.588   2.372   5.882  0.0595  0.7554 -0.2842
 5539TIP3   OH238107   4.662   0.331  14.258  0.2803  0.1280 -0.5061
 5539TIP3    H138108   4.696   0.247  14.289 -0.1510  0.1787  0.1439
 5539TIP3    H238109   4.736   0.391  14.266  0.5529 -0.1628 -0.8477
 5540TIP3   OH238110   1.353   4.791   3.106 -0.0971 -0.3893  0.4080
 5540TIP3    H138111   1.447   4.803   3.124  0.5699 -4.1713  0.2637
 5540TIP3    H238112   1.310   4.821   3.186  1.4936 -1.0575  1.5752
 5541TIP3   OH238113   4.620   1.215   2.870  0.7065  0.4326  0.2109
 5541TIP3    H138114   4.669   1.206   2.952  1.5265 -1.0297 -0.3994
 5541TIP3    H238115   4.658   1.292   2.828 -0.6276  2.0018  1.7765
 5542TIP3   OH238116   5.912   1.863  14.381  0.1985  0.2349  0.0071
 5542TIP3    H138117   5.855   1.920  14.433 -1.8246 -1.0270 -0.6941
 5542TIP3    H238118   5.909   1.901  14.293 -0.7882 -0.6237 -0.3567
 5543TIP3   OH238119   6.574   4.831  13.760 -0.0788  0.8825 -0.1786
 5543TIP3    H138120   6.487   4.823  13.800 -0.3805  2.1525 -0.5515
 5543TIP3    H238121   6.558   4.825  13.666  0.1004  2.1117 -0.3017
 5544TIP3   OH238122   3.555   0.726  12.454 -0.0586 -0.1702  0.1286
 5544TIP3    H138123   3.496   0.743  12.380  0.1487  1.3577  0.2826
 5544TIP3    H238124   3.615   0.658  12.422  0.9397  1.4476 -1.6579
 5545TIP3   OH238125   5.433   4.355   5.567 -0.2236  0.0860  0.0751
 5545TIP3    H138126   5.389   4.401   5.496  0.8602  2.4810  0.8256
 5545TIP3    H238127   5.381   4.374   5.645  1.1665  1.6193  0.6946
 5546TIP3   OH238128   1.758   6.731  16.672  0.2090 -0.1629 -0.0887
 5546TIP3    H138129   1.829   6.672  16.699 -1.2137 -1.2423  1.5277
 5546TIP3    H238130   1.786   6.817  16.704  0.9607 -0.5021  0.2089
 5547TIP3   OH238131   6.291   6.717  12.066  0.1360 -0.2347  0.2519
 5547TIP3    H138132   6.340   6.729  11.985 -3.4546  1.4294 -1.9324
 5547TIP3    H238133   6.299   6.623  12.085  2.6902 -0.3223 -0.7969
 5548TIP3   OH238134   3.975   3.195   5.163  0.0687  0.4062  0.2146
 5548TIP3    H138135   3.969   3.108   5.123 -2.1405  0.0640  1.1160
 5548TIP3    H238136   3.908   3.247   5.116  0.6751  1.3434  0.3569
 5549TIP3   OH238137   6.333   3.362   2.552  0.2694  0.1289  0.1684
 5549TIP3    H138138   6.400   3.353   2.620 -0.1308  2.2158  0.8885
 5549TIP3    H238139   6.268   3.295   2.574  0.2325  0.6512  1.7677
 5550TIP3   OH238140   4.457   3.477   3.795  0.4676  0.2644 -0.2660
 5550TIP3    H138141   4.541   3.522   3.788  1.7911 -1.8750  1.0849
 5550TIP3    H238142   4.436   3.479   3.888 -0.0348 -0.8342 -0.3423
 5551TIP3   OH238143   4.805   5.120  13.840 -0.4744 -0.5566  0.3719
 5551TIP3    H138144   4.824   5.071  13.760  0.8229 -1.8446  1.3987
 5551TIP3    H238145   4.881   5.179  13.851 -1.1070  0.3185  0.1595
 5552TIP3   OH238146   3.076   2.420   4.803  0.6024 -0.6888  0.1349
 5552TIP3    H138147   3.031   2.380   4.877  0.5052 -0.7416  0.0468
 5552TIP3    H238148   3.167   2.428   4.832  0.0084  2.3704  1.6065
 5553TIP3   OH238149   2.436   4.809   0.582 -0.5539 -0.5875  0.1601
 5553TIP3    H138150   2.386   4.841   0.507  0.0008  0.6547  0.2920
 5553TIP3    H238151   2.381   4.826   0.658 -0.8011 -1.1622  0.1168
 5554TIP3   OH238152   4.695   2.670   2.576 -0.1215  0.3578  0.4042
 5554TIP3    H138153   4.603   2.650   2.591 -0.1592  0.6058  0.5030
 5554TIP3    H238154   4.697   2.719   2.494 -0.0558  0.1651  0.2910
 5555TIP3   OH238155   5.245   3.283  11.137  0.0287  0.2369 -0.1623
 5555TIP3    H138156   5.205   3.213  11.189 -1.4137 -0.3023 -1.8620
 5555TIP3    H238157   5.204   3.363  11.169  0.2574  0.0873  0.5137
 5556TIP3   OH238158   5.718   0.899  12.406 -0.2051  0.0703  0.4140
 5556TIP3    H138159   5.671   0.921  12.486  1.0423  4.2698  0.2024
 5556TIP3    H238160   5.765   0.819  12.428 -1.6872 -0.2119  3.0328
 5557TIP3   OH238161   4.391   3.148  15.151 -0.0201  0.3447 -0.1688
 5557TIP3    H138162   4.441   3.211  15.204 -0.4023  0.4174  0.1159
 5557TIP3    H238163   4.441   3.067  15.158 -0.3278  0.2237  0.7243
 5558TIP3   OH238164   4.101   2.709   0.655 -0.4248  0.2580  0.0573
 5558TIP3    H138165   4.118   2.656   0.576 -1.8525 -1.0035  0.5534
 5558TIP3    H238166   4.024   2.668   0.695  0.8113  0.2725  2.6346
 5559TIP3   OH238167   1.807   2.638  14.556  0.4987  0.2330 -0.4389
 5559TIP3    H138168   1.822   2.598  14.641  1.2639 -1.2987 -1.2446
 5559TIP3    H238169   1.766   2.569  14.504 -1.0764  1.5260 -0.9707
 5560TIP3   OH238170   1.898   2.570  13.791 -0.1605 -0.0860 -0.2672
 5560TIP3    H138171   1.848   2.534  13.717  1.1786 -0.2179 -1.1418
 5560TIP3    H238172   1.831   2.606  13.850 -1.2749 -0.2271 -1.4017
 5561TIP3   OH238173   4.951   3.591   0.679 -0.2489  0.0112 -0.5659
 5561TIP3    H138174   4.960   3.547   0.595  0.2117 -0.2981 -0.3564
 5561TIP3    H238175   4.926   3.522   0.740  2.0231 -0.3151  0.0965
 5562TIP3   OH238176   4.087   2.797   4.883  0.3371 -0.1982 -0.5300
 5562TIP3    H138177   4.111   2.745   4.960  0.4041 -0.7406 -0.9147
 5562TIP3    H238178   3.997   2.773   4.864  0.0009  0.6396 -0.0625
 5563TIP3   OH238179   0.656   3.040   4.614 -0.6885 -0.2626 -0.0162
 5563TIP3    H138180   0.619   3.105   4.674  3.4266  1.6452  0.8553
 5563TIP3    H238181   0.652   2.958   4.662 -1.7233  0.2854  0.8753
 5564TIP3   OH238182   5.700   1.265  17.077  0.1730 -0.1786 -0.1141
 5564TIP3    H138183   5.625   1.322  17.092 -0.5278 -1.1334  0.1384
 5564TIP3    H238184   5.663   1.187  17.036  1.2907  0.0961 -1.7745
 5565TIP3   OH238185   3.526   5.336  15.171  0.5523 -0.8359  0.0166
 5565TIP3    H138186   3.546   5.369  15.259  0.7896 -1.8336  0.3484
 5565TIP3    H238187   3.514   5.242  15.183  1.3195 -1.0954 -1.1537
 5566TIP3   OH238188   5.841   5.222  17.090 -0.1235 -0.6103 -0.3123
 5566TIP3    H138189   5.791   5.230  17.009 -0.9940  0.8187  0.3208
 5566TIP3    H238190   5.910   5.287  17.082 -0.8767  0.3224  0.5217
 5567TIP3   OH238191   1.590   3.070   4.720 -0.1093  0.0365 -0.4423
 5567TIP3    H138192   1.628   3.125   4.789  0.2970  0.2493 -0.8322
 5567TIP3    H238193   1.500   3.101   4.711 -0.5748 -0.8097  0.8557
 5568TIP3   OH238194   3.703   0.697  15.200 -0.1598 -0.1960  0.8804
 5568TIP3    H138195   3.637   0.702  15.269 -1.6045  0.3997 -0.4947
 5568TIP3    H238196   3.699   0.607  15.169 -0.1853 -0.2139  0.9355
 5569TIP3   OH238197   3.328   6.795   2.182  0.2033 -0.2963 -0.5426
 5569TIP3    H138198   3.322   6.885   2.212  1.1372 -0.1191 -0.8494
 5569TIP3    H238199   3.329   6.801   2.086  0.5816 -0.6093 -0.5602
 5570TIP3   OH238200   3.507   0.185  13.081 -0.2410 -0.4286  0.4818
 5570TIP3    H138201   3.584   0.183  13.138 -0.2701 -3.1103  0.5611
 5570TIP3    H238202   3.452   0.254  13.117  1.8223  1.1553  0.7848
 5571TIP3   OH238203   3.828   1.340  13.728 -0.0038  0.4404 -0.4318
 5571TIP3    H138204   3.735   1.359  13.734  0.3502  2.1408  0.3997
 5571TIP3    H238205   3.868   1.395  13.795  1.6399  0.0455 -1.0327
 5572TIP3   OH238206   5.689   1.203  12.604 -0.6073 -0.2119  1.1959
 5572TIP3    H138207   5.778   1.234  12.591 -0.7134  0.6187  2.3194
 5572TIP3    H238208   5.687   1.173  12.695 -1.5468  0.0652  1.2768
 5573TIP3   OH238209   1.817   3.618  16.969 -0.0285  0.4133 -0.2697
 5573TIP3    H138210   1.798   3.581  16.883  1.1029  2.9690 -1.7072
 5573TIP3    H238211   1.896   3.671  16.956  0.2592  0.7725  2.3811
 5574TIP3   OH238212   3.115   1.406  12.482 -0.2831  0.7059 -0.1492
 5574TIP3    H138213   3.206   1.428  12.468 -0.1177 -0.8109 -1.8680
 5574TIP3    H238214   3.108   1.390  12.576  1.7232 -1.0962 -0.2435
 5575TIP3   OH238215   5.768   3.563  13.753  0.4395 -0.4032  0.1951
 5575TIP3    H138216   5.766   3.619  13.676  1.4885 -0.5358  0.0477
 5575TIP3    H238217   5.832   3.495  13.731 -0.5709 -1.4638  0.5014
 5576TIP3   OH238218   3.999   5.261  15.089 -0.2125 -0.0802  0.1930
 5576TIP3    H138219   4.058   5.313  15.143  1.5141  0.5902 -2.2138
 5576TIP3    H238220   3.954   5.324  15.034  2.1253 -0.9591 -2.9834
 5577TIP3   OH238221   5.416   5.860  13.599 -0.2142 -0.2495 -0.2109
 5577TIP3    H138222   5.378   5.892  13.680 -1.8710 -1.2599 -0.5387
 5577TIP3    H238223   5.508   5.845  13.620 -0.6217 -0.5542  1.5097
 5578TIP3   OH238224   6.222   3.454  12.802  0.1875  0.5740 -0.6380
 5578TIP3    H138225   6.138   3.489  12.772  0.2917  1.4911  0.1285
 5578TIP3    H238226   6.199   3.370  12.842 -0.2633  0.4678 -1.0989
 5579TIP3   OH238227   1.510   3.915  13.583 -0.1060 -0.3882  0.7545
 5579TIP3    H138228   1.553   3.852  13.641 -0.1112  0.0155  1.2036
 5579TIP3    H238229   1.582   3.966  13.546 -0.2357  0.9502  2.2774
 5580TIP3   OH238230   0.321   1.076   1.522 -0.0456  0.1195  0.2149
 5580TIP3    H138231   0.307   1.047   1.432  1.7377  0.5127 -0.2306
 5580TIP3    H238232   0.328   0.995   1.572  0.2575 -0.1384 -0.2337
 5581TIP3   OH238233   4.862   2.604  15.928 -0.5861  0.1506 -0.7477
 5581TIP3    H138234   4.952   2.637  15.928  0.1794 -1.3126  3.6763
 5581TIP3    H238235   4.870   2.511  15.944 -2.8853  0.1270  0.6939
 5582TIP3   OH238236   1.039   6.638   1.017  0.2797  0.3654 -0.6495
 5582TIP3    H138237   0.970   6.578   0.988  0.1372  0.7740 -1.1695
 5582TIP3    H238238   1.084   6.591   1.088 -0.5008  0.0788 -0.3382
 5583TIP3   OH238239   6.571   0.923  13.586 -0.5040 -0.3835 -0.6337
 5583TIP3    H138240   6.623   0.937  13.665 -0.3279  1.5229 -1.0337
 5583TIP3    H238241   6.594   0.835  13.557 -0.8995 -1.3102  1.6533
 5584TIP3   OH238242   0.450   4.615  10.476 -0.1148  0.3887  0.2056
 5584TIP3    H138243   0.470   4.696  10.522 -2.3894  1.7273 -0.9704
 5584TIP3    H238244   0.369   4.583  10.516  1.1846 -1.8469  1.2322
 5585TIP3   OH238245   1.358   0.517  13.697 -0.5391 -0.3615  0.0595
 5585TIP3    H138246   1.364   0.423  13.717 -1.8648 -0.6211 -0.6380
 5585TIP3    H238247   1.321   0.556  13.776  1.4466 -0.1425  0.9472
 5586TIP3   OH238248   0.348   0.901  13.941 -0.2543 -0.7690 -0.7829
 5586TIP3    H138249   0.257   0.884  13.967 -0.6508  0.4716 -1.3017
 5586TIP3    H238250   0.392   0.928  14.022 -0.7246  0.0732 -0.7962
 5587TIP3   OH238251   0.036   5.139   4.450  0.5148 -0.6837  0.2679
 5587TIP3    H138252  -0.010   5.193   4.513  0.5506  0.9985 -1.0707
 5587TIP3    H238253   0.057   5.059   4.497 -2.1224 -0.7645  1.4791
 5588TIP3   OH238254   6.672   5.753   5.598 -0.2252 -0.1904  0.0590
 5588TIP3    H138255   6.756   5.799   5.607 -0.3056 -0.0431  0.0651
 5588TIP3    H238256   6.667   5.732   5.504 -0.4463  0.3167 -0.0500
 5589TIP3   OH238257   4.675   2.550  14.187  0.1081 -0.2502 -0.2602
 5589TIP3    H138258   4.627   2.617  14.138 -1.4338 -0.7126  0.5628
 5589TIP3    H238259   4.612   2.479  14.200  0.3591 -0.0630  2.5772
 5590TIP3   OH238260   6.660   1.963  10.628  0.7341  0.5898  0.1207
 5590TIP3    H138261   6.680   1.870  10.618  1.8820  0.6358  1.6754
 5590TIP3    H238262   6.585   1.978  10.571  1.5046 -0.9345 -1.3777
 5591TIP3   OH238263   5.635   5.619   2.985 -0.6012  0.0362  0.4177
 5591TIP3    H138264   5.589   5.703   2.985  0.5297  0.6853  2.0038
 5591TIP3    H238265   5.655   5.602   3.077 -1.0683 -2.1385  0.1612
 5592TIP3   OH238266   4.913   1.263  14.522  0.3723 -0.1404  0.0552
 5592TIP3    H138267   4.997   1.220  14.509  0.8394  0.5717  0.6134
 5592TIP3    H238268   4.882   1.281  14.433  0.5695 -0.8446 -0.1644
 5593TIP3   OH238269   6.405   3.390  11.145 -0.7499 -0.3081 -0.7668
 5593TIP3    H138270   6.441   3.473  11.177 -1.0363 -0.8207  0.9942
 5593TIP3    H238271   6.475   3.352  11.092  0.5296 -0.2824  0.8247
 5594TIP3   OH238272   4.520   1.623   6.269 -0.5487  1.4307  0.2903
 5594TIP3    H138273   4.523   1.551   6.206  0.3933  0.0962  1.7742
 5594TIP3    H238274   4.606   1.665   6.262 -0.2896  1.0291  0.9222
 5595TIP3   OH238275   5.297   1.304   5.171 -0.2959 -0.4834  0.0833
 5595TIP3    H138276   5.255   1.330   5.254  0.8507  0.4444  0.3978
 5595TIP3    H238277   5.368   1.245   5.197  0.9020  0.8264 -0.0796
 5596TIP3   OH238278   4.780   6.179   6.307  0.1200 -0.2079 -0.4313
 5596TIP3    H138279   4.696   6.133   6.315 -0.2103  0.4002 -0.3040
 5596TIP3    H238280   4.825   6.135   6.234  0.5271 -1.7992  0.7196
 5597TIP3   OH238281   0.923   5.117  12.842 -0.5704  0.0186 -0.2933
 5597TIP3    H138282   0.917   5.102  12.748 -2.3516 -1.2233 -0.0403
 5597TIP3    H238283   0.959   5.205  12.851  0.8598 -0.3274 -2.0887
 5598TIP3   OH238284   1.988   3.775  17.310 -0.2511  0.2502 -0.1255
 5598TIP3    H138285   2.081   3.780  17.290  0.1022  1.3667  1.5554
 5598TIP3    H238286   1.966   3.863  17.341 -1.0076 -0.8532  2.8170
 5599TIP3   OH238287   2.047   5.947  10.482 -0.7267  0.3536 -0.1615
 5599TIP3    H138288   2.035   6.039  10.508  0.2885  0.2072  0.9295
 5599TIP3    H238289   2.129   5.947  10.432 -0.8777  0.0785 -0.4116
 5600TIP3   OH238290   3.588   1.615  12.770 -0.2782  0.0349  0.0571
 5600TIP3    H138291   3.679   1.592  12.785  0.2350  0.9125 -1.5076
 5600TIP3    H238292   3.540   1.532  12.775  0.9529 -0.8226 -1.4947
 5601TIP3   OH238293   5.515   1.204   2.158 -0.5073  0.4812  0.0153
 5601TIP3    H138294   5.526   1.109   2.153  1.9210  0.7529 -1.7758
 5601TIP3    H238295   5.421   1.218   2.150 -0.7142 -1.6908 -2.7757
 5602TIP3   OH238296   6.733   4.423  16.957 -0.4211  0.2106  0.2353
 5602TIP3    H138297   6.794   4.366  17.005  0.6887  0.8870 -0.3212
 5602TIP3    H238298   6.742   4.509  16.999  0.3496  0.7435 -0.9380
 5603TIP3   OH238299   1.251   1.904   0.055  0.3342  0.6128  0.2005
 5603TIP3    H138300   1.207   1.836   0.106  1.5093 -0.2365  0.1549
 5603TIP3    H238301   1.300   1.955   0.119  0.9241  0.2344  0.0714
 5604TIP3   OH238302   3.842   3.804   6.573  0.1212 -0.0370 -0.1870
 5604TIP3    H138303   3.771   3.782   6.513 -0.6116 -0.7555  0.8974
 5604TIP3    H238304   3.819   3.890   6.607  0.1582  0.0553 -0.3955
 5605TIP3   OH238305   5.591   4.928  12.837  0.2438  0.2132  0.1222
 5605TIP3    H138306   5.512   4.874  12.844  1.6468 -1.8778  0.8278
 5605TIP3    H238307   5.574   5.003  12.894 -0.9938 -0.5128  0.7556
 5606TIP3   OH238308   0.382   6.124   5.766 -0.2753 -0.1458 -0.0048
 5606TIP3    H138309   0.289   6.107   5.754 -0.7956  0.8282  2.2510
 5606TIP3    H238310   0.416   6.045   5.807 -0.1922 -0.3248 -0.4136
 5607TIP3   OH238311   4.683   2.200   5.624  0.6760  0.0269 -1.0914
 5607TIP3    H138312   4.716   2.139   5.689  0.1537 -0.3420 -1.1615
 5607TIP3    H238313   4.604   2.157   5.589 -1.1799  1.8152  0.6289
 5608TIP3   OH238314   2.298   5.482  17.287  0.6990  0.3698 -0.1509
 5608TIP3    H138315   2.374   5.442  17.328  0.0438 -2.1624 -1.2387
 5608TIP3    H238316   2.272   5.421  17.218 -2.1057  1.2957 -0.0614
 5609TIP3   OH238317   4.989   5.641  17.268  0.2418 -0.3428 -0.4511
 5609TIP3    H138318   4.938   5.708  17.312  0.4035  0.2847 -1.1967
 5609TIP3    H238319   4.956   5.558  17.304 -0.1847  0.1156  0.2326
 5610TIP3   OH238320   6.781   0.121   3.860  0.0037 -0.0994 -0.2465
 5610TIP3    H138321   6.769   0.042   3.807 -0.9126  0.6499 -1.2079
 5610TIP3    H238322   6.822   0.090   3.941 -0.0679 -1.5068 -0.7222
 5611TIP3   OH238323   1.475   0.917   2.625 -0.0335  0.3947  0.5738
 5611TIP3    H138324   1.385   0.885   2.637  0.1093 -0.4149 -0.4105
 5611TIP3    H238325   1.525   0.839   2.601  0.1794  1.3985 -2.7484
 5612TIP3   OH238326   3.320   2.054   5.577 -0.2454  0.1002 -0.6076
 5612TIP3    H138327   3.310   2.103   5.496 -0.0527  0.7596 -0.2366
 5612TIP3    H238328   3.381   1.983   5.555  1.8091  1.7237 -0.4426
 5613TIP3   OH238329   0.473   6.530  13.064 -0.5348 -0.0564  0.8044
 5613TIP3    H138330   0.547   6.472  13.084 -2.1772 -1.7135  2.4247
 5613TIP3    H238331   0.440   6.557  13.150 -1.3095  1.3736  0.0987
 5614TIP3   OH238332   1.778   5.939   2.586  0.1817 -0.3191  0.0311
 5614TIP3    H138333   1.738   5.883   2.519  2.4575 -0.1230 -1.6299
 5614TIP3    H238334   1.872   5.926   2.575  0.7032  1.5948  1.5753
 5615TIP3   OH238335   3.296   2.647  11.163  0.2383  0.0519 -0.1413
 5615TIP3    H138336   3.362   2.584  11.192  0.5261  0.0081 -0.8692
 5615TIP3    H238337   3.307   2.651  11.068  0.7092  1.7112 -0.0586
 5616TIP3   OH238338   2.662   2.587  13.998 -0.2865 -0.4674  0.1110
 5616TIP3    H138339   2.742   2.546  14.031 -0.4982 -1.2793 -0.3751
 5616TIP3    H238340   2.591   2.547  14.048 -0.3729  0.6016  0.8864
 5617TIP3   OH238341   0.934   3.628  12.369 -0.2965 -0.4719  0.2931
 5617TIP3    H138342   0.982   3.583  12.439  0.3071  0.5200  0.5422
 5617TIP3    H238343   1.001   3.648  12.304 -0.6422 -0.3507 -0.0262
 5618TIP3   OH238344   5.424   0.815  12.292  0.4442 -0.6770 -0.2009
 5618TIP3    H138345   5.463   0.731  12.314 -0.6561 -0.6974  1.9809
 5618TIP3    H238346   5.397   0.851  12.376 -3.1374 -0.1699 -1.3901
 5619TIP3   OH238347   5.564   5.437   1.941  0.1579  0.3378  0.0984
 5619TIP3    H138348   5.565   5.433   1.846 -0.8007  1.7476 -0.0013
 5619TIP3    H238349   5.472   5.425   1.965  0.3126  0.5400  0.8070
 5620TIP3   OH238350   1.199   4.345  10.841 -0.4588  0.6596  0.3573
 5620TIP3    H138351   1.165   4.307  10.760 -1.3634  0.8557  0.6363
 5620TIP3    H238352   1.291   4.319  10.843 -0.5648  0.1951 -0.4597
 5621TIP3   OH238353   6.675   4.262   2.617 -0.2470 -0.0968  0.6899
 5621TIP3    H138354   6.732   4.189   2.592 -1.0922 -0.6017  0.1842
 5621TIP3    H238355   6.710   4.293   2.700  0.6504 -0.5155  0.4710
 5622TIP3   OH238356   1.486   0.716  15.620 -0.1568  0.1221  0.4449
 5622TIP3    H138357   1.558   0.659  15.596 -0.3461  0.1297 -0.1741
 5622TIP3    H238358   1.485   0.783  15.551 -0.4491  0.3990  0.7139
 5623TIP3   OH238359   2.699   6.549  15.748  0.1035  0.2063 -0.1716
 5623TIP3    H138360   2.690   6.551  15.653  0.1936  1.9393 -0.1715
 5623TIP3    H238361   2.754   6.625  15.769 -0.3306  0.1526  1.2969
 5624TIP3   OH238362   1.557   1.631  11.920  0.1292  0.2557 -0.6202
 5624TIP3    H138363   1.565   1.712  11.868  1.0362  0.8483  0.4046
 5624TIP3    H238364   1.631   1.634  11.981 -0.0850 -1.1382 -0.2550
 5625TIP3   OH238365   5.488   5.600  13.040  1.1025 -0.6169 -0.0130
 5625TIP3    H138366   5.570   5.593  13.089  1.4410  0.2384 -0.4465
 5625TIP3    H238367   5.472   5.694  13.033  1.1961 -0.7001 -1.7471
 5626TIP3   OH238368   3.150   2.088  15.858  0.6208  0.0570 -0.4417
 5626TIP3    H138369   3.094   2.037  15.916  0.1442  1.2487  0.1899
 5626TIP3    H238370   3.095   2.162  15.831  1.2201  0.1383 -1.4873
 5627TIP3   OH238371   6.151   2.774  13.705  0.4079 -0.4541 -0.5339
 5627TIP3    H138372   6.196   2.699  13.745  0.0044 -0.4098  0.0088
 5627TIP3    H238373   6.155   2.842  13.771  0.4892 -0.0936 -0.9067
 5628TIP3   OH238374   5.360   2.282  15.700  0.5080  0.3355 -0.1811
 5628TIP3    H138375   5.437   2.319  15.657  0.0465  1.8099  0.1914
 5628TIP3    H238376   5.356   2.326  15.786 -0.9113  0.5432 -0.3158
 5629TIP3   OH238377   1.587   4.753  14.688 -0.3655  0.1105  0.2742
 5629TIP3    H138378   1.676   4.783  14.704  0.3324 -2.4978  1.8365
 5629TIP3    H238379   1.532   4.818  14.732  0.9299  0.3296  1.6626
 5630TIP3   OH238380   3.415   2.517   3.396 -0.1446  0.0633 -0.1318
 5630TIP3    H138381   3.442   2.548   3.310  1.4090  1.5341  0.8070
 5630TIP3    H238382   3.454   2.430   3.404  0.8689  0.4720 -0.4324
 5631TIP3   OH238383   2.766   0.086  13.346  0.0106 -0.3330 -0.9723
 5631TIP3    H138384   2.817   0.092  13.265 -0.0101  1.7657 -0.8813
 5631TIP3    H238385   2.829   0.107  13.415 -0.4727  0.1186 -0.6618
 5632TIP3   OH238386   0.099   3.762  14.786 -0.1377 -0.7285 -0.4928
 5632TIP3    H138387   0.029   3.789  14.726 -1.1132 -2.1273 -0.0320
 5632TIP3    H238388   0.102   3.831  14.852  0.4574  0.4669 -1.7051
 5633TIP3   OH238389   6.781   3.177  12.651  0.0735  0.2830  0.6431
 5633TIP3    H138390   6.740   3.208  12.731  1.0297 -0.0067  1.2622
 5633TIP3    H238391   6.714   3.126  12.607  0.5169 -2.6059  3.0035
 5634TIP3   OH238392   5.947   6.591   1.261  0.4367  0.5912 -0.0688
 5634TIP3    H138393   6.000   6.512   1.273  0.3425  0.7153  1.3218
 5634TIP3    H238394   5.861   6.567   1.296  0.2412  1.1138 -0.1939
 5635TIP3   OH238395   1.760   1.891   2.137 -0.4651 -0.0404 -0.4338
 5635TIP3    H138396   1.747   1.858   2.226  1.8370 -0.3608 -0.1558
 5635TIP3    H238397   1.790   1.815   2.087 -0.5818  0.4063 -1.2058
 5636TIP3   OH238398   0.086   4.596   4.780 -0.7017  0.3060 -0.3831
 5636TIP3    H138399   0.157   4.617   4.842 -1.0553  0.0818  0.1078
 5636TIP3    H238400   0.034   4.531   4.826 -2.7303  2.3219  0.3763
 5637TIP3   OH238401   5.396   5.809   0.809  0.0437  0.2097  0.3943
 5637TIP3    H138402   5.414   5.801   0.903  0.3331  1.8845  0.5217
 5637TIP3    H238403   5.473   5.855   0.774 -0.2307 -0.0593 -0.5910
 5638TIP3   OH238404   0.178   4.435  14.925  0.2264  0.0088  0.3417
 5638TIP3    H138405   0.172   4.346  14.959  0.1006  0.5715  1.8656
 5638TIP3    H238406   0.218   4.425  14.839 -0.1725 -1.5544  0.2995
 5639TIP3   OH238407   6.773   2.060   2.041 -0.2735  0.0213  0.4097
 5639TIP3    H138408   6.735   2.145   2.062  0.3925  0.7624 -1.2359
 5639TIP3    H238409   6.868   2.073   2.048 -0.1555 -0.5146 -0.0543
 5640TIP3   OH238410   2.329   3.098   2.157 -0.3695  0.0411  0.2282
 5640TIP3    H138411   2.392   3.167   2.136  1.1153 -0.9160  1.2804
 5640TIP3    H238412   2.266   3.140   2.216  0.3891  0.5828  0.6754
 5641TIP3   OH238413   4.764   3.701  13.381  0.7304 -0.2715 -0.2473
 5641TIP3    H138414   4.790   3.624  13.430  0.6575 -0.1682 -0.0462
 5641TIP3    H238415   4.834   3.713  13.317  0.5789 -0.6949 -0.4964
 5642TIP3   OH238416   3.773   4.656  14.191 -0.1889  0.2074  0.3885
 5642TIP3    H138417   3.787   4.639  14.285  1.1961 -0.4318  0.0906
 5642TIP3    H238418   3.842   4.607  14.147  0.0642  1.6427 -0.9058
 5643TIP3   OH238419   3.380   6.560  13.958  0.1262  0.3170  0.1512
 5643TIP3    H138420   3.466   6.541  13.920  0.5303  0.6046  0.9112
 5643TIP3    H238421   3.334   6.609  13.890 -0.2768 -1.7239 -1.1546
 5644TIP3   OH238422   3.653   4.413  12.522 -0.1663  0.2026 -0.3564
 5644TIP3    H138423   3.636   4.460  12.439 -0.7468  1.4742  0.4480
 5644TIP3    H238424   3.733   4.363  12.505 -0.4485  0.1817 -1.7921
 5645TIP3   OH238425   1.519   6.339   4.719 -0.1552  0.0282  0.1075
 5645TIP3    H138426   1.522   6.244   4.707  0.7408  0.1953 -1.1718
 5645TIP3    H238427   1.442   6.353   4.774  0.4684 -1.5409  1.4917
 5646TIP3   OH238428   1.588   4.482  16.444 -0.0639 -0.4348 -0.1876
 5646TIP3    H138429   1.530   4.490  16.368  0.2246  1.9753 -0.2409
 5646TIP3    H238430   1.530   4.458  16.516 -0.8698  0.3293 -0.5671
 5647TIP3   OH238431   2.336   2.451   4.249 -0.3101  0.0764  0.2051
 5647TIP3    H138432   2.349   2.500   4.168  0.3969  1.1853  0.9554
 5647TIP3    H238433   2.253   2.406   4.237 -0.2185  0.2166 -1.1294
 5648TIP3   OH238434   5.218   4.196   5.868 -0.1142 -0.2606 -0.2622
 5648TIP3    H138435   5.173   4.128   5.817  0.0402 -0.3313 -0.3032
 5648TIP3    H238436   5.237   4.154   5.951  1.5432 -0.8400 -0.8981
 5649TIP3   OH238437   0.727   1.952  15.727 -0.1655 -0.6131 -0.5889
 5649TIP3    H138438   0.818   1.978  15.715 -0.2653 -0.4068 -0.9109
 5649TIP3    H238439   0.731   1.857  15.739  0.0697 -0.6321 -0.8198
 5650TIP3   OH238440   2.395   4.726  14.728 -0.2797  0.1870 -0.2431
 5650TIP3    H138441   2.355   4.813  14.716 -0.9968  0.3932  2.8848
 5650TIP3    H238442   2.333   4.666  14.687 -1.1211  0.9449 -0.1260
 5651TIP3   OH238443   0.509   4.968   1.687  0.7048  0.1089 -0.4649
 5651TIP3    H138444   0.489   4.875   1.697  0.9088 -0.0347 -1.3866
 5651TIP3    H238445   0.520   4.981   1.593  0.7018  1.0627 -0.3449
 5652TIP3   OH238446   2.361   2.172  11.012  0.1834  0.1478  0.0645
 5652TIP3    H138447   2.449   2.186  11.046  0.1039 -2.2493  1.4626
 5652TIP3    H238448   2.374   2.141  10.923  0.8190 -0.9583  0.5282
 5653TIP3   OH238449   0.644   4.706   0.566  0.0451 -0.0168  0.0742
 5653TIP3    H138450   0.591   4.632   0.596 -1.5868  1.2312  0.4077
 5653TIP3    H238451   0.714   4.713   0.630  0.1992 -1.2312  0.0588
 5654TIP3   OH238452   2.386   0.945  12.169 -0.1913 -0.2167  0.3186
 5654TIP3    H138453   2.357   0.884  12.236 -0.8899  0.8325  1.0076
 5654TIP3    H238454   2.472   0.912  12.141 -0.3352 -1.2168  1.0197
 5655TIP3   OH238455   0.297   4.582  13.307 -0.4184  0.2911 -0.2962
 5655TIP3    H138456   0.348   4.655  13.343 -0.2975  0.3755 -0.6345
 5655TIP3    H238457   0.279   4.526  13.383  0.3722  0.1418 -0.2049
 5656TIP3   OH238458   6.447   5.192  16.834 -0.5085 -0.3223  0.1641
 5656TIP3    H138459   6.352   5.185  16.842 -0.5824  0.3384 -0.1249
 5656TIP3    H238460   6.464   5.179  16.740 -0.4110  0.5862  0.0476
 5657TIP3   OH238461   3.084   6.667  13.487 -0.3346 -0.5327  0.4867
 5657TIP3    H138462   3.099   6.711  13.403  0.8426  1.0252  1.4610
 5657TIP3    H238463   3.151   6.598  13.490  0.2334  0.0144  0.5418
 5658TIP3   OH238464   5.787   5.779   3.533 -0.3359  0.2786 -0.7231
 5658TIP3    H138465   5.838   5.809   3.608 -0.5847  2.0030 -1.2009
 5658TIP3    H238466   5.696   5.785   3.562 -0.4151 -3.7491  0.4884
 5659TIP3   OH238467   6.274   6.333   2.918  0.3665  0.4139 -0.0570
 5659TIP3    H138468   6.201   6.272   2.911  0.2646  0.4870  0.3642
 5659TIP3    H238469   6.235   6.414   2.950  0.4867  0.7331 -0.6984
 5660TIP3   OH238470   6.762   1.390   3.408 -0.2602  0.2738 -0.5712
 5660TIP3    H138471   6.731   1.334   3.337 -0.0091 -0.1944 -0.3165
 5660TIP3    H238472   6.684   1.437   3.437 -0.3443  0.5668 -1.2340
 5661TIP3   OH238473   3.909   2.695  10.605 -0.2338  0.4667  0.2221
 5661TIP3    H138474   3.898   2.769  10.544  0.9496  0.2664 -0.2612
 5661TIP3    H238475   3.944   2.735  10.684  0.2721  0.4568  0.0098
 5662TIP3   OH238476   3.091   5.931   3.896 -0.4869  0.5787 -0.1086
 5662TIP3    H138477   3.058   5.873   3.964 -1.4143 -1.7657 -2.3642
 5662TIP3    H238478   3.177   5.959   3.927  0.7731 -3.3895  0.5169
 5663TIP3   OH238479   1.441   0.518  15.147 -0.4676  0.5540  0.3748
 5663TIP3    H138480   1.391   0.471  15.081 -0.2385 -2.0889  1.9588
 5663TIP3    H238481   1.448   0.607  15.113 -2.6321 -0.0325 -1.8455
 5664TIP3   OH238482   0.440   1.342  15.599  0.1877 -0.0426 -0.3795
 5664TIP3    H138483   0.461   1.309  15.512  0.4553  0.6241 -0.5795
 5664TIP3    H238484   0.347   1.366  15.593  0.1108 -0.3351 -0.3689
 5665TIP3   OH238485   6.753   0.883  14.458 -0.0044 -0.0680 -0.2381
 5665TIP3    H138486   6.776   0.973  14.433 -1.1397  0.3595  0.1722
 5665TIP3    H238487   6.797   0.870  14.542 -2.8042  1.5508  1.6774
 5666TIP3   OH238488   3.710   5.611   1.855  0.5558 -0.2250  0.5058
 5666TIP3    H138489   3.660   5.543   1.810  0.6869  0.0426 -0.0530
 5666TIP3    H238490   3.648   5.648   1.918  0.0716  0.0377 -0.1092
 5667TIP3   OH238491   1.513   2.126   4.673  0.5413 -0.6964 -0.1527
 5667TIP3    H138492   1.504   2.105   4.766  1.3071 -1.0592 -0.1515
 5667TIP3    H238493   1.433   2.174   4.651  0.3424 -0.6345  0.6847
 5668TIP3   OH238494   0.318   6.604  16.840 -0.0863 -0.1680  0.2585
 5668TIP3    H138495   0.306   6.554  16.920 -0.3310 -3.0588 -1.4391
 5668TIP3    H238496   0.388   6.666  16.861  0.5133 -1.4594  2.4389
 5669TIP3   OH238497   0.314   3.423  16.972 -0.3093  0.2209  0.4060
 5669TIP3    H138498   0.403   3.389  16.971  0.5435  2.3326 -0.0007
 5669TIP3    H238499   0.286   3.417  17.063  0.7925  0.8361  0.7935
 5670TIP3   OH238500   1.350   1.481   2.899 -0.2562  0.3995  0.5020
 5670TIP3    H138501   1.420   1.426   2.934 -0.0948  0.3618  0.1218
 5670TIP3    H238502   1.394   1.544   2.842 -0.6205 -0.2107 -0.4695
 5671TIP3   OH238503   3.621   6.306   5.819  0.1958 -0.1019  0.2732
 5671TIP3    H138504   3.571   6.387   5.815  1.2832  0.5302 -2.7391
 5671TIP3    H238505   3.712   6.334   5.834  0.3106 -0.9566  1.3661
 5672TIP3   OH238506   6.177   3.065   3.008  0.3221 -0.1758  0.3002
 5672TIP3    H138507   6.153   3.061   3.100  0.8915 -0.4087  0.4466
 5672TIP3    H238508   6.177   2.974   2.979  0.2348 -0.1103  0.0929
 5673TIP3   OH238509   1.397   1.497  10.867 -0.4643 -0.6631  0.1160
 5673TIP3    H138510   1.324   1.508  10.806 -1.0117 -1.2863  0.6360
 5673TIP3    H238511   1.364   1.529  10.950 -0.1942 -1.0747  0.3882
 5674TIP3   OH238512   5.897   5.713  16.641  0.1814  0.1586  0.4292
 5674TIP3    H138513   5.930   5.655  16.710  0.4764  1.0430  1.0503
 5674TIP3    H238514   5.834   5.659  16.593  2.0559 -1.3850 -0.4218
 5675TIP3   OH238515   6.269   6.147  11.476  0.2477 -0.1303 -0.0411
 5675TIP3    H138516   6.309   6.154  11.563  1.8665 -1.1535 -0.6701
 5675TIP3    H238517   6.199   6.213  11.477  1.0888  0.8005  1.5643
 5676TIP3   OH238518   4.916   4.935   3.265  0.1888 -0.1407 -0.0016
 5676TIP3    H138519   4.893   5.004   3.328 -2.8072  1.1189 -2.2500
 5676TIP3    H238520   4.844   4.935   3.202  2.1053 -2.5828 -2.4169
 5677TIP3   OH238521   0.397   4.364  11.202  0.1442 -0.7271  0.3105
 5677TIP3    H138522   0.438   4.278  11.204 -0.1721 -0.8986 -0.3473
 5677TIP3    H238523   0.461   4.422  11.242 -0.4008 -1.5705  2.5226
 5678TIP3   OH238524   6.210   5.244  12.601 -0.4420  0.1291  0.2866
 5678TIP3    H138525   6.225   5.150  12.609 -2.3156 -0.1741  0.6508
 5678TIP3    H238526   6.217   5.261  12.507 -1.6949 -0.6929  0.0231
 5679TIP3   OH238527   6.301   0.361   5.949 -0.0910 -0.7335  0.4397
 5679TIP3    H138528   6.245   0.295   5.908 -0.2504 -0.1235 -0.3469
 5679TIP3    H238529   6.388   0.346   5.912 -0.3565  0.1979 -0.6163
 5680TIP3   OH238530   4.554   1.791   1.193 -0.1987  0.7615 -0.2324
 5680TIP3    H138531   4.563   1.698   1.171 -0.7232  0.6328  0.0933
 5680TIP3    H238532   4.487   1.793   1.261 -0.6683  1.4464 -0.7110
 5681TIP3   OH238533   0.149   2.187  12.282 -0.5153 -0.7015  0.1850
 5681TIP3    H138534   0.221   2.128  12.260 -0.0088  0.0472 -0.2224
 5681TIP3    H238535   0.099   2.195  12.200  1.2802  1.9632 -0.8123
 5682TIP3   OH238536   1.029   5.661   3.921  0.5425  0.1397 -1.0009
 5682TIP3    H138537   1.014   5.582   3.972 -2.6479  1.0775 -0.2675
 5682TIP3    H238538   1.087   5.714   3.976  2.0077 -1.2671 -1.1253
 5683TIP3   OH238539   4.811   1.113   4.160 -0.4559 -0.1131  0.9984
 5683TIP3    H138540   4.857   1.195   4.144 -0.5976 -0.5670 -2.5177
 5683TIP3    H238541   4.880   1.048   4.174 -0.2112  0.0740  0.6613
 5684TIP3   OH238542   5.224   4.274  14.147  0.2307  0.1502 -0.3122
 5684TIP3    H138543   5.167   4.334  14.099  0.5494  0.0137 -0.8801
 5684TIP3    H238544   5.312   4.294  14.114  0.8373  1.8509  2.0866
 5685TIP3   OH238545   3.261   4.679  16.268 -0.0897 -0.2678  0.3987
 5685TIP3    H138546   3.244   4.598  16.316  0.0792 -0.5095  0.0524
 5685TIP3    H238547   3.271   4.745  16.337  0.3430 -0.6478  0.7083
 5686TIP3   OH238548   5.042   2.760   1.439 -0.7583 -0.0284  0.0875
 5686TIP3    H138549   5.032   2.684   1.496 -0.1795 -0.6171 -0.5664
 5686TIP3    H238550   5.083   2.827   1.495  2.3257 -1.4531 -0.2231
 5687TIP3   OH238551   4.721   5.391   3.155  0.2624 -0.2407  0.5275
 5687TIP3    H138552   4.660   5.326   3.190  0.8640 -0.4720  1.1618
 5687TIP3    H238553   4.670   5.440   3.091 -1.3403  1.1504  2.7206
 5688TIP3   OH238554   4.964   5.901   4.504  0.2837 -0.0706  0.1979
 5688TIP3    H138555   4.995   5.988   4.529  1.3183 -0.1484 -0.7458
 5688TIP3    H238556   5.043   5.848   4.497 -0.4412 -1.5936  2.4377
 5689TIP3   OH238557   2.987   5.121  15.881  0.3000 -0.3401 -0.1057
 5689TIP3    H138558   3.005   5.205  15.923  0.8691  0.2114 -1.4154
 5689TIP3    H238559   3.008   5.056  15.949  1.0672  0.5244  0.5087
 5690TIP3   OH238560   5.956   4.296   4.353  0.3160 -0.4297  0.1235
 5690TIP3    H138561   5.902   4.297   4.274 -0.9740  1.1240  0.9748
 5690TIP3    H238562   6.005   4.378   4.350  1.0859 -0.8701  0.4015
 5691TIP3   OH238563   1.807   5.706   0.638 -0.1309  0.2908  0.6703
 5691TIP3    H138564   1.851   5.788   0.618 -0.3408  0.1012 -0.6253
 5691TIP3    H238565   1.821   5.651   0.561 -0.7506 -0.5693  1.1521
 5692TIP3   OH238566   4.506   1.293  14.631 -0.4639  0.0222  0.2328
 5692TIP3    H138567   4.564   1.368  14.619 -0.2323 -0.4231 -1.6455
 5692TIP3    H238568   4.419   1.326  14.611 -0.4115 -0.0929 -0.2066
 5693TIP3   OH238569   3.057   1.144   1.090  0.0182 -0.4654 -0.2145
 5693TIP3    H138570   3.039   1.190   1.172  1.6876  0.2517 -0.2106
 5693TIP3    H238571   3.009   1.061   1.098  1.6122 -1.2740  2.3423
 5694TIP3   OH238572   0.648   1.477   0.008  0.5290 -0.4895 -0.5059
 5694TIP3    H138573   0.639   1.539   0.081 -0.0135  0.2305 -1.1647
 5694TIP3    H238574   0.620   1.394   0.045 -1.4777  0.2046 -0.3335
 5695TIP3   OH238575   3.029   1.377  14.401 -0.0956  0.6576 -0.0566
 5695TIP3    H138576   3.058   1.345  14.486 -0.8658 -0.5427 -0.2224
 5695TIP3    H238577   2.933   1.377  14.406 -0.1556  0.4290 -0.9695
 5696TIP3   OH238578   1.868   4.565  13.633 -0.0938 -0.1302 -0.2174
 5696TIP3    H138579   1.944   4.510  13.647  0.0396  0.2870  0.8237
 5696TIP3    H238580   1.800   4.526  13.689 -0.3737  0.0184 -0.4525
 5697TIP3   OH238581   2.298   0.972  16.503 -0.2998 -0.4349  0.0570
 5697TIP3    H138582   2.375   0.939  16.550 -0.2016  0.0220  0.2204
 5697TIP3    H238583   2.294   1.065  16.526 -0.4247 -0.2740 -0.6078
 5698TIP3   OH238584   0.613   3.065  13.138 -0.2264  0.1344 -0.1469
 5698TIP3    H138585   0.640   3.155  13.121 -0.1033  0.4974  1.7422
 5698TIP3    H238586   0.685   3.029  13.190 -0.1984 -1.1237 -1.0194
 5699TIP3   OH238587   2.604   2.633  11.982 -0.2823 -0.2961 -0.5481
 5699TIP3    H138588   2.573   2.554  12.027  0.4166  0.5773  1.6175
 5699TIP3    H238589   2.536   2.698  12.000  0.4498  0.3166  0.0434
 5700TIP3   OH238590   5.407   1.780  15.001 -0.0066 -0.4632 -1.1373
 5700TIP3    H138591   5.349   1.767  14.926 -3.1241  0.3120  0.9466
 5700TIP3    H238592   5.406   1.695  15.047 -0.2066 -0.2006 -0.6439
 5701TIP3   OH238593   5.343   1.677   5.734  0.3189 -0.1667  0.5928
 5701TIP3    H138594   5.378   1.653   5.820 -0.0200 -0.0735  0.7593
 5701TIP3    H238595   5.372   1.607   5.675  0.9546  0.0139  0.6849
 5702TIP3   OH238596   1.885   5.660   2.779 -0.0438  0.0042 -0.3526
 5702TIP3    H138597   1.848   5.748   2.784 -0.3225 -0.0955 -0.6476
 5702TIP3    H238598   1.947   5.664   2.707  0.6692  0.2230  0.2646
 5703TIP3   OH238599   2.214   4.790   3.817 -0.3317 -0.1326 -0.0354
 5703TIP3    H138600   2.134   4.833   3.789 -0.9486 -0.5328  1.0775
 5703TIP3    H238601   2.239   4.735   3.742 -1.4611 -0.5097 -0.1465
 5704TIP3   OH238602   1.228   2.636   5.464  0.2625  0.6595 -0.1064
 5704TIP3    H138603   1.136   2.635   5.437  0.7253  0.2089 -1.8134
 5704TIP3    H238604   1.226   2.652   5.558 -1.5802  0.2708 -0.0475
 5705TIP3   OH238605   3.687   6.411  13.156  0.1953 -0.1198  0.6813
 5705TIP3    H138606   3.725   6.479  13.212  0.6666  1.5872 -1.5889
 5705TIP3    H238607   3.593   6.416  13.174  0.3802 -0.0028  1.7027
 5706TIP3   OH238608   1.826   1.492   0.802 -0.3107 -0.3603 -0.0404
 5706TIP3    H138609   1.903   1.470   0.750  0.4384  0.6473  0.6157
 5706TIP3    H238610   1.859   1.506   0.890 -1.1662  0.5170  0.1572
 5707TIP3   OH238611   2.336   0.140  14.375  0.0485 -0.5728 -0.5291
 5707TIP3    H138612   2.272   0.080  14.336  1.8037 -0.8942 -3.2108
 5707TIP3    H238613   2.330   0.219  14.321  2.3787 -0.9038 -1.3795
 5708TIP3   OH238614   2.308   0.670   0.835 -0.1101  0.1608 -0.3373
 5708TIP3    H138615   2.361   0.731   0.885 -0.8628  0.0744  0.5999
 5708TIP3    H238616   2.368   0.634   0.770  1.0987 -0.2384  0.9414
 5709TIP3   OH238617   3.661   6.502   0.459  0.0722  0.1951 -0.0478
 5709TIP3    H138618   3.653   6.534   0.549 -2.1901 -1.3686  0.3812
 5709TIP3    H238619   3.574   6.515   0.421  0.7115 -0.1025 -1.7013
 5710TIP3   OH238620   4.249   1.397  16.485 -0.3449  0.2590  0.6926
 5710TIP3    H138621   4.307   1.454  16.536 -0.9731  1.8600 -0.2836
 5710TIP3    H238622   4.270   1.309  16.514  2.2819  0.7915  0.6896
 5711TIP3   OH238623   1.342   2.129   4.340 -0.1398 -0.1308 -0.3843
 5711TIP3    H138624   1.323   2.168   4.426  3.8715  1.0850  0.1455
 5711TIP3    H238625   1.371   2.203   4.286  0.3320 -1.3153 -1.8097
 5712TIP3   OH238626   1.820   0.499  16.594  0.0284 -0.0813  0.1712
 5712TIP3    H138627   1.743   0.549  16.567  0.8249  0.9665 -0.2114
 5712TIP3    H238628   1.792   0.407  16.588 -1.1587  0.2750 -0.0223
 5713TIP3   OH238629   0.000   0.395   3.883  0.2684  0.0934  0.2756
 5713TIP3    H138630   0.039   0.314   3.850  1.9060  1.0835 -0.3976
 5713TIP3    H238631  -0.094   0.383   3.873  0.5494 -0.8042 -2.1158
 5714TIP3   OH238632   2.069   2.426  13.953 -0.1160 -0.5701  0.2995
 5714TIP3    H138633   2.022   2.452  14.033 -0.4305  1.7432 -0.5471
 5714TIP3    H238634   2.013   2.458  13.882  0.1355 -2.6261 -0.8867
 5715TIP3   OH238635   4.922   5.344  12.767  0.1424  0.6078 -0.7185
 5715TIP3    H138636   4.888   5.263  12.730  1.0406  0.4768 -1.2846
 5715TIP3    H238637   4.975   5.382  12.698 -1.0784  2.2129 -0.8188
 5716TIP3   OH238638   5.080   3.266   5.034  0.2718  0.1785  0.1255
 5716TIP3    H138639   5.049   3.305   5.116  1.4327  0.7647  0.3135
 5716TIP3    H238640   5.005   3.218   5.000 -1.0151  2.0048  0.2444
 5717TIP3   OH238641   0.017   5.273  12.048  0.0765 -0.2688  0.0134
 5717TIP3    H138642   0.072   5.256  12.124 -2.5423  1.4483  2.4720
 5717TIP3    H238643   0.032   5.366  12.028  2.2486 -1.1099 -3.0426
 5718TIP3   OH238644   1.339   6.571   0.420  0.6067 -0.1462  0.4359
 5718TIP3    H138645   1.378   6.614   0.344 -0.4266  2.6360  1.3413
 5718TIP3    H238646   1.411   6.563   0.482  0.8606  0.1170  0.1791
 5719TIP3   OH238647   5.175   0.940   5.421  0.3641 -0.3939 -0.2156
 5719TIP3    H138648   5.266   0.963   5.438  0.9069 -1.9979 -0.7906
 5719TIP3    H238649   5.148   0.997   5.349  1.2284 -0.6042 -0.7087
 5720TIP3   OH238650   2.191   5.911   1.211 -0.2993  0.4544 -0.3799
 5720TIP3    H138651   2.212   5.839   1.151  1.7849 -0.0782  0.8848
 5720TIP3    H238652   2.100   5.895   1.234 -0.5663 -0.4602 -1.8601
 5721TIP3   OH238653   5.937   1.327   1.490 -0.3230  0.0029 -0.1750
 5721TIP3    H138654   5.949   1.239   1.526  1.0427  0.4893  0.6153
 5721TIP3    H238655   5.942   1.385   1.566 -1.0174  0.7950 -0.7125
 5722TIP3   OH238656   6.246   1.403   2.943  0.0988 -0.4602 -0.0016
 5722TIP3    H138657   6.278   1.349   3.015 -0.8265 -0.4455  0.4317
 5722TIP3    H238658   6.324   1.421   2.890  1.3113  1.4857  2.2648
 5723TIP3   OH238659   6.314   1.362  15.476  0.0135 -0.6722 -0.3933
 5723TIP3    H138660   6.265   1.370  15.558 -0.0814  0.3860 -0.5438
 5723TIP3    H238661   6.402   1.390  15.498 -0.4277  1.3707 -1.0307
 5724TIP3   OH238662   5.518   0.430   2.414  0.1875 -0.0433 -0.2064
 5724TIP3    H138663   5.440   0.468   2.455  1.0819 -0.2411  1.8177
 5724TIP3    H238664   5.547   0.496   2.352 -2.0755 -0.3563 -1.7410
 5725TIP3   OH238665   0.851   6.180  14.263  0.0179 -0.5548 -0.4402
 5725TIP3    H138666   0.786   6.109  14.264 -3.8258  2.5816  1.3899
 5725TIP3    H238667   0.894   6.174  14.348  0.2646 -1.0658 -0.5939
 5726TIP3   OH238668   2.729   5.819   4.225 -0.2366  0.0624  0.2238
 5726TIP3    H138669   2.775   5.875   4.288  0.5932  2.0779 -2.0177
 5726TIP3    H238670   2.637   5.840   4.236 -0.1044  0.3543  0.7907
 5727TIP3   OH238671   6.018   1.190   2.092 -0.1902 -0.9207 -0.2499
 5727TIP3    H138672   6.094   1.150   2.050 -0.4210  0.2400 -1.8721
 5727TIP3    H238673   6.051   1.224   2.175  0.6857 -1.8226 -0.2202
 5728TIP3   OH238674   1.985   4.923   3.449 -0.7577  0.2854 -0.2524
 5728TIP3    H138675   2.039   4.975   3.389 -1.1523  1.0178  0.0218
 5728TIP3    H238676   1.958   4.848   3.396  1.1905 -0.5485 -0.1613
 5729TIP3   OH238677   2.011   1.227  13.728  0.5367 -0.5606 -0.6026
 5729TIP3    H138678   2.092   1.217  13.778  0.8548  0.4538 -0.8771
 5729TIP3    H238679   2.021   1.168  13.653  0.8996 -0.6490 -0.4851
 5730TIP3   OH238680   4.237   2.014   5.454  0.8651 -0.7648 -0.0107
 5730TIP3    H138681   4.212   2.104   5.433 -1.1672 -1.1277  0.5941
 5730TIP3    H238682   4.309   2.022   5.517  0.1039  0.4671  0.7394
 5731TIP3   OH238683   0.463   4.627  17.233 -0.2257 -0.0023 -0.4158
 5731TIP3    H138684   0.449   4.649  17.141 -2.5908  2.0584  0.3438
 5731TIP3    H238685   0.515   4.700  17.268  0.3799 -0.6077 -0.0238
 5732TIP3   OH238686   4.061   4.480   4.524 -0.1796  0.2127  0.0336
 5732TIP3    H138687   4.015   4.472   4.440  0.4367  0.0202 -0.2862
 5732TIP3    H238688   4.037   4.567   4.556 -0.1676  0.4136 -0.4933
 5733TIP3   OH238689   0.546   1.287  14.220  0.5745  0.3931 -0.2568
 5733TIP3    H138690   0.572   1.238  14.141  0.3477 -1.0171  0.5093
 5733TIP3    H238691   0.454   1.264  14.233  0.4152  1.1714  0.0371
 5734TIP3   OH238692   1.692   1.247  16.729 -1.0553 -0.0542  0.4251
 5734TIP3    H138693   1.752   1.319  16.747  0.0488 -0.3984 -1.5789
 5734TIP3    H238694   1.726   1.174  16.781  0.6409 -0.3828 -1.0358
 5735TIP3   OH238695   2.657   2.880   1.266  0.0674 -0.2950 -0.0688
 5735TIP3    H138696   2.715   2.844   1.334  0.1067 -0.6038 -0.2643
 5735TIP3    H238697   2.573   2.892   1.311  0.0850 -0.5282  0.0292
 5736TIP3   OH238698   4.510   3.026  13.270  0.6213 -0.7691 -0.0054
 5736TIP3    H138699   4.523   2.936  13.300  0.9940 -0.7642 -0.1512
 5736TIP3    H238700   4.568   3.035  13.194  1.3685 -0.1029  0.6158
 5737TIP3   OH238701   3.308   1.944  13.347 -0.3696 -0.3616  0.1762
 5737TIP3    H138702   3.330   1.855  13.321 -1.0807  0.0230 -1.8941
 5737TIP3    H238703   3.374   1.999  13.305  0.5898  0.0715  2.1405
 5738TIP3   OH238704   2.602   4.536   2.758  0.2184 -0.6627  0.7695
 5738TIP3    H138705   2.649   4.454   2.741  0.0549 -0.5660 -0.2171
 5738TIP3    H238706   2.666   4.605   2.738 -0.5100 -0.5155 -1.2966
 5739TIP3   OH238707   6.028   0.797  11.425 -0.2488  0.0726  0.7016
 5739TIP3    H138708   5.938   0.820  11.401 -0.0475 -0.0856 -0.2506
 5739TIP3    H238709   6.081   0.870  11.392 -0.3435  2.1568  4.6426
 5740TIP3   OH238710   3.261   5.461   0.050  0.2022  0.5210  0.4180
 5740TIP3    H138711   3.206   5.476  -0.027 -0.2283 -1.4002  0.3151
 5740TIP3    H238712   3.308   5.380   0.032  1.9544  1.3185  1.1670
 5741TIP3   OH238713   0.994   2.317   3.547 -0.5294 -0.1645 -0.5973
 5741TIP3    H138714   0.969   2.380   3.614  0.1959 -0.6193  0.1232
 5741TIP3    H238715   0.948   2.237   3.570 -0.7842 -0.1446 -1.0213
 5742TIP3   OH238716   1.162   0.982  16.315  0.1346  0.0287  0.0072
 5742TIP3    H138717   1.178   0.926  16.238 -0.0666 -0.5722  0.3984
 5742TIP3    H238718   1.067   0.991  16.319  0.2267  2.7313 -1.6949
 5743TIP3   OH238719   2.117   5.774   3.364  0.3884  0.3068 -0.0967
 5743TIP3    H138720   2.124   5.816   3.450  0.3719  0.5941 -0.2366
 5743TIP3    H238721   2.123   5.680   3.384  0.8763  0.3869  0.1728
 5744TIP3   OH238722   2.777   4.200  16.429  0.2028 -0.3057  0.0845
 5744TIP3    H138723   2.817   4.230  16.347  1.0426 -2.0114 -0.1806
 5744TIP3    H238724   2.840   4.224  16.497  0.0507  0.0635  0.1001
 5745TIP3   OH238725   1.354   4.797   4.324  0.3738 -0.8001 -0.6662
 5745TIP3    H138726   1.432   4.788   4.270 -0.1239 -1.3967 -1.2997
 5745TIP3    H238727   1.324   4.886   4.309  0.9039 -0.5879 -0.4624
 5746TIP3   OH238728   4.320   1.540   3.621 -0.2112  0.2317  0.2127
 5746TIP3    H138729   4.290   1.464   3.573  0.7014 -0.5991  0.9162
 5746TIP3    H238730   4.413   1.523   3.638  0.0991  1.6416  0.1144
 5747TIP3   OH238731   1.335   0.353  14.256 -0.1553  0.3970 -0.0803
 5747TIP3    H138732   1.399   0.390  14.195 -0.1302  1.1309  0.3812
 5747TIP3    H238733   1.388   0.320  14.328 -0.2216 -0.0364 -0.2249
 5748TIP3   OH238734   0.232   1.497   1.351  0.4560 -0.2004  0.4709
 5748TIP3    H138735   0.187   1.494   1.266  1.3692 -2.2777  0.0091
 5748TIP3    H238736   0.173   1.451   1.411  0.9641 -1.0197  0.3545
 5749TIP3   OH238737   1.601   0.078   0.691  0.1807 -0.3620  0.0244
 5749TIP3    H138738   1.636   0.166   0.705  0.1665  0.1082 -2.5269
 5749TIP3    H238739   1.677   0.020   0.701  0.4804  0.0714  0.3050
 5750TIP3   OH238740   6.670   3.260   1.921 -0.3481  0.4590 -0.0864
 5750TIP3    H138741   6.651   3.193   1.987 -0.1106  0.1142 -0.3628
 5750TIP3    H238742   6.656   3.215   1.837  1.8595  0.0953 -0.3315
 5751TIP3   OH238743   5.391   1.789  15.497 -0.5210  0.4086  0.8616
 5751TIP3    H138744   5.363   1.842  15.572 -1.2902  2.1384 -0.5704
 5751TIP3    H238745   5.446   1.721  15.535 -0.1847  1.7326  2.9044
 5752TIP3   OH238746   4.664   5.043   5.568  0.2108 -0.3486  0.4251
 5752TIP3    H138747   4.575   5.028   5.599  0.2478  0.0244  0.7140
 5752TIP3    H238748   4.694   4.956   5.539 -0.1782 -0.5076  0.4960
 5753TIP3   OH238749   0.268   1.244  14.289 -0.7081  0.4718 -0.4352
 5753TIP3    H138750   0.274   1.251  14.384 -2.8902  1.4791 -0.3003
 5753TIP3    H238751   0.269   1.150  14.272  1.8578  0.2875  0.3405
 5754TIP3   OH238752   4.241   2.721   0.279  0.0815 -0.1804  0.1582
 5754TIP3    H138753   4.226   2.680   0.194 -1.7946 -0.5280  0.6082
 5754TIP3    H238754   4.198   2.663   0.342  0.5383  0.6025  1.2267
 5755TIP3   OH238755   2.354   3.991  15.237 -0.0647 -0.0035  0.3122
 5755TIP3    H138756   2.320   4.072  15.200 -0.8268 -0.8609 -0.9416
 5755TIP3    H238757   2.391   3.944  15.163 -0.7125 -1.3301  0.7855
 5756TIP3   OH238758   6.110   5.264  15.887 -0.2878 -0.4654 -0.4091
 5756TIP3    H138759   6.093   5.358  15.882 -1.5464 -0.6794 -0.4935
 5756TIP3    H238760   6.151   5.251  15.972 -2.3371 -0.1195  0.7161
 5757TIP3   OH238761   3.832   0.085   4.262  0.5703  0.6897 -0.0992
 5757TIP3    H138762   3.739   0.061   4.270  0.2283  1.6482 -1.0203
 5757TIP3    H238763   3.877   0.024   4.321 -0.6481  0.2638  0.4369
 5758TIP3   OH238764   2.225   1.002  13.329  0.2004 -0.1860 -0.3826
 5758TIP3    H138765   2.224   1.097  13.315  0.5037 -0.1221  0.0207
 5758TIP3    H238766   2.210   0.965  13.242  0.8962  0.2207 -0.6818
 5759TIP3   OH238767   0.190   5.281   0.461  0.4866  0.4280  0.2372
 5759TIP3    H138768   0.128   5.225   0.414  1.7811 -1.0489  0.2158
 5759TIP3    H238769   0.152   5.369   0.454 -1.1744 -0.2934 -0.4631
 5760TIP3   OH238770   0.552   1.811   5.122 -0.2513 -0.2256 -0.3183
 5760TIP3    H138771   0.624   1.859   5.164 -1.2495  0.1695  1.0038
 5760TIP3    H238772   0.569   1.822   5.028  1.4552 -0.2271 -0.0574
 5761TIP3   OH238773   1.735   4.390   5.926  0.2789  0.1367  0.2474
 5761TIP3    H138774   1.659   4.430   5.968  0.6701 -1.0305  2.1973
 5761TIP3    H238775   1.809   4.446   5.952  0.3652  0.1016  0.0822
 5762TIP3   OH238776   0.179   5.654   0.681 -0.5883  0.3671 -0.3105
 5762TIP3    H138777   0.238   5.582   0.662  0.5546  1.0573  0.4969
 5762TIP3    H238778   0.102   5.613   0.721 -0.2358 -0.4446 -0.4530
 5763TIP3   OH238779   3.787   5.687   5.190  0.1801  0.1153  0.3833
 5763TIP3    H138780   3.733   5.746   5.243  1.1483  0.8250  0.6164
 5763TIP3    H238781   3.751   5.695   5.101  1.0584  2.0698  0.1482
 5764TIP3   OH238782   3.371   0.827   3.602 -0.0169 -0.2955  0.2754
 5764TIP3    H138783   3.431   0.760   3.567 -0.5021 -2.4051  3.1305
 5764TIP3    H238784   3.416   0.860   3.680 -1.0244  0.7754  0.4244
 5765TIP3   OH238785   4.635   4.612  11.443  0.6026  0.2922  0.4350
 5765TIP3    H138786   4.650   4.520  11.466 -1.9243 -0.2318  0.3169
 5765TIP3    H238787   4.646   4.614  11.348 -0.6922 -0.2392  0.2522
 5766TIP3   OH238788   1.426   3.314   1.537  0.7087 -0.2687 -0.0271
 5766TIP3    H138789   1.382   3.390   1.575 -0.2154 -0.9041  0.1955
 5766TIP3    H238790   1.429   3.332   1.443  1.3822  0.4846  0.1280
 5767TIP3   OH238791   6.390   6.670  12.415 -0.2379 -0.4963  0.4884
 5767TIP3    H138792   6.382   6.608  12.342  0.2168 -0.2642  0.2322
 5767TIP3    H238793   6.413   6.616  12.490  0.3797 -0.6177  0.2175
 5768TIP3   OH238794   6.647   0.254  16.905 -0.0524 -0.0807  0.3336
 5768TIP3    H138795   6.575   0.217  16.853 -0.4164 -0.5202  1.1303
 5768TIP3    H238796   6.604   0.291  16.982  0.3988  1.2686 -0.0455
 5769TIP3   OH238797   5.577   0.266  14.930 -0.2287  0.2076 -0.5757
 5769TIP3    H138798   5.601   0.304  14.845 -2.5308 -1.3866 -2.0611
 5769TIP3    H238799   5.508   0.323  14.963 -2.1101 -1.2872 -1.7403
 5770TIP3   OH238800   6.088   4.820  14.654  0.4787  0.5749 -0.0692
 5770TIP3    H138801   6.074   4.771  14.735  0.8399  0.6005  0.0112
 5770TIP3    H238802   6.152   4.888  14.677 -1.2801  2.1973  0.2547
 5771TIP3   OH238803   4.179   6.264   3.337  0.4777  0.1407  0.4320
 5771TIP3    H138804   4.164   6.324   3.410  1.0151  1.2142 -0.3169
 5771TIP3    H238805   4.199   6.321   3.263 -2.8524 -0.7409 -1.3188
 5772TIP3   OH238806   1.987   1.331  15.001  0.0109 -0.1306  0.2103
 5772TIP3    H138807   2.040   1.259  14.968 -0.1852 -0.6331  0.9697
 5772TIP3    H238808   2.033   1.361  15.079 -1.0097 -0.8463  1.1231
 5773TIP3   OH238809   6.824   1.938  16.405  0.2832 -0.2177  0.2115
 5773TIP3    H138810   6.769   2.006  16.366 -0.2531  0.5348  2.1622
 5773TIP3    H238811   6.889   1.985  16.456  1.7619 -1.1512 -0.7331
 5774TIP3   OH238812   6.722   2.607   1.221 -0.4706  0.3317 -0.7303
 5774TIP3    H138813   6.747   2.596   1.312 -1.4505 -0.2589 -0.5082
 5774TIP3    H238814   6.757   2.529   1.177  0.5081  0.9030 -0.9865
 5775TIP3   OH238815   1.715   5.286   1.370 -0.1975 -0.1459  0.0132
 5775TIP3    H138816   1.625   5.270   1.399  0.2712 -0.3367  1.4249
 5775TIP3    H238817   1.769   5.239   1.433  0.8930 -0.3405 -1.0455
 5776TIP3   OH238818   2.638   2.675   3.176  0.2436 -0.0560 -0.6678
 5776TIP3    H138819   2.694   2.676   3.254  0.3891  1.6559 -0.7559
 5776TIP3    H238820   2.549   2.662   3.210  0.2776  0.9425 -0.1863
 5777TIP3   OH238821   6.542   5.138   5.272 -0.3937 -0.0131 -0.0424
 5777TIP3    H138822   6.573   5.061   5.224  1.9715 -0.0540  1.3528
 5777TIP3    H238823   6.447   5.137   5.260 -0.1998 -1.6532 -2.2021
 5778TIP3   OH238824   1.870   2.614  15.956 -0.4848 -0.4414  0.5024
 5778TIP3    H138825   1.787   2.572  15.934 -0.7982  0.7990 -0.7808
 5778TIP3    H238826   1.858   2.706  15.933  0.7159  0.0790  1.8148
 5779TIP3   OH238827   5.786   3.149   2.395  0.5985 -0.8889 -0.0849
 5779TIP3    H138828   5.752   3.203   2.466 -0.8821 -2.3650  0.3946
 5779TIP3    H238829   5.858   3.201   2.357 -0.2463  1.0315  0.8230
 5780TIP3   OH238830   2.860   6.228  14.003  0.3061 -0.1343  0.1181
 5780TIP3    H138831   2.853   6.322  14.021 -2.9601 -0.5343  1.7920
 5780TIP3    H238832   2.906   6.193  14.079  0.0011 -0.0557  0.3438
 5781TIP3   OH238833   2.956   5.789   0.105 -0.1648  0.6425  0.1854
 5781TIP3    H138834   2.886   5.793   0.169  0.3539  3.3321  0.6607
 5781TIP3    H238835   3.036   5.774   0.156  0.1183  1.7569  0.0851
 5782TIP3   OH238836   0.390   3.670   4.487  0.2322  0.1594  0.0957
 5782TIP3    H138837   0.404   3.583   4.525  0.4142 -0.4469 -1.3066
 5782TIP3    H238838   0.401   3.658   4.393 -2.1224  1.2161 -0.4013
 5783TIP3   OH238839   5.480   4.940  13.394 -0.2870 -0.0138  0.2164
 5783TIP3    H138840   5.480   5.029  13.427  1.1220 -0.2036  0.7635
 5783TIP3    H238841   5.572   4.917  13.384 -0.5697 -0.2298 -3.2129
 5784TIP3   OH238842   2.322   0.892   5.458 -0.1943 -0.2826 -0.4006
 5784TIP3    H138843   2.245   0.944   5.436  0.6079  1.6075  0.9305
 5784TIP3    H238844   2.306   0.807   5.419 -3.4646 -0.3180  0.7396
 5785TIP3   OH238845   6.218   6.213  14.722 -0.2266  0.0154  0.6443
 5785TIP3    H138846   6.145   6.244  14.668 -0.3425 -0.1764  0.6880
 5785TIP3    H238847   6.282   6.284  14.719 -0.1034 -0.1130  0.0185
 5786TIP3   OH238848   1.860   2.427  12.040  0.0333  0.1511  0.0356
 5786TIP3    H138849   1.828   2.444  12.128 -0.1589  0.5298 -0.1035
 5786TIP3    H238850   1.879   2.514  12.004 -1.7407  0.1776 -0.9685
 5787TIP3   OH238851   0.052   5.146   4.126  0.0596 -0.3351  0.0305
 5787TIP3    H138852   0.031   5.097   4.205  0.6761 -0.2247  0.2728
 5787TIP3    H238853   0.022   5.090   4.054  0.5841 -0.9994  0.3083
 5788TIP3   OH238854   0.799   1.520  16.351 -0.8986 -0.3569 -0.5757
 5788TIP3    H138855   0.803   1.598  16.295  1.4412 -1.7692 -2.6129
 5788TIP3    H238856   0.884   1.519  16.396 -1.2144 -1.3163  0.0221
 5789TIP3   OH238857   6.308   5.590  14.518 -0.2242  0.1198 -0.3890
 5789TIP3    H138858   6.344   5.525  14.578  0.1581 -0.4995 -1.2790
 5789TIP3    H238859   6.243   5.638  14.571  2.7021  2.1574  1.6667
 5790TIP3   OH238860   0.067   2.889   3.595  0.3354 -0.8081 -0.1870
 5790TIP3    H138861   0.019   2.972   3.597  2.4630  0.5146 -0.0186
 5790TIP3    H238862   0.017   2.831   3.652 -1.8708 -0.0545 -1.2608
 5791TIP3   OH238863   0.740   3.854  15.714  0.7594 -0.4701 -0.2072
 5791TIP3    H138864   0.710   3.920  15.777 -0.9671 -1.2930 -0.1138
 5791TIP3    H238865   0.754   3.904  15.633 -1.3280 -0.0726 -0.3703
 5792TIP3   OH238866   0.763   4.960   5.148 -0.6220 -0.3434 -0.4332
 5792TIP3    H138867   0.800   5.034   5.196 -0.6969 -0.5533 -0.0505
 5792TIP3    H238868   0.787   4.883   5.199 -2.7195 -0.3970  0.5975
 5793TIP3   OH238869   1.916   4.392   1.501 -0.3825  0.5616  0.3054
 5793TIP3    H138870   1.976   4.443   1.556  0.1910  0.0184  0.1912
 5793TIP3    H238871   1.882   4.324   1.558  0.1244  0.0670  0.0231
 5794TIP3   OH238872   6.374   5.861   0.605 -0.5855  0.3658 -0.0392
 5794TIP3    H138873   6.413   5.778   0.579  1.0598  1.1452 -0.2107
 5794TIP3    H238874   6.355   5.906   0.522  0.9439  1.2008  0.0299
 5795TIP3   OH238875   3.904   1.196   1.348 -0.8360  0.4403  0.3096
 5795TIP3    H138876   3.918   1.281   1.305 -0.6734  1.7932  2.8522
 5795TIP3    H238877   3.966   1.137   1.305  0.7140  2.1905  0.0161
 5796TIP3   OH238878   2.897   4.202  11.435  0.0665 -0.4636 -0.1648
 5796TIP3    H138879   2.854   4.246  11.362  0.5863 -0.6914 -0.6224
 5796TIP3    H238880   2.836   4.208  11.508 -0.2138  0.2793 -0.4612
 5797TIP3   OH238881   2.013   6.173  15.236 -0.1572  0.1976  0.0183
 5797TIP3    H138882   2.038   6.157  15.327 -0.3985  1.6882  0.3670
 5797TIP3    H238883   1.921   6.147  15.232  0.7372 -3.4802 -0.8015
 5798TIP3   OH238884   2.710   5.320  13.572 -0.1060 -0.0130  0.1095
 5798TIP3    H138885   2.729   5.413  13.560 -1.1007  0.0269 -1.4035
 5798TIP3    H238886   2.763   5.276  13.506 -0.9492 -0.3516 -0.3649
 5799TIP3   OH238887   6.823   1.143  14.453 -0.2213  0.0652  0.0356
 5799TIP3    H138888   6.753   1.208  14.465  0.2701  1.1770 -2.4410
 5799TIP3    H238889   6.884   1.160  14.524 -1.8842 -0.1971  1.6112
 5800TIP3   OH238890   2.694   4.064  15.449 -0.0754  0.2538  0.2409
 5800TIP3    H138891   2.699   3.969  15.455  0.6673  0.1857 -1.0466
 5800TIP3    H238892   2.678   4.081  15.356  4.3001  1.4787 -0.4909
 5801TIP3   OH238893   3.568   3.681  15.514 -0.2325 -0.1312 -0.5578
 5801TIP3    H138894   3.520   3.734  15.451 -0.5439  0.7211  0.3579
 5801TIP3    H238895   3.615   3.745  15.568 -0.2828 -0.8029  0.3100
 5802TIP3   OH238896   6.135   3.640  14.147 -0.2190  0.3631  0.5078
 5802TIP3    H138897   6.133   3.736  14.146 -1.6773  0.4894 -3.5163
 5802TIP3    H238898   6.222   3.617  14.116 -0.4489  0.4566 -0.2158
 5803TIP3   OH238899   1.303   5.286  15.998  0.1212  0.0696 -0.1412
 5803TIP3    H138900   1.376   5.244  16.044  0.2890  1.3877  0.8735
 5803TIP3    H238901   1.225   5.256  16.045  0.1197 -0.2341 -0.3349
 5804TIP3   OH238902   2.459   1.940  15.086  0.0846  0.8029  0.3116
 5804TIP3    H138903   2.398   1.893  15.028 -1.2205  1.6193  0.9678
 5804TIP3    H238904   2.539   1.888  15.083 -0.7188 -0.4692 -0.3746
 5805TIP3   OH238905   1.570   2.695  14.945 -0.2907  0.0179  0.6653
 5805TIP3    H138906   1.572   2.629  15.014  2.0673 -0.0963  0.5685
 5805TIP3    H238907   1.596   2.647  14.866 -0.4581  0.6782  0.2007
 5806TIP3   OH238908   3.776   2.124   4.968 -0.1492 -0.6456  0.3904
 5806TIP3    H138909   3.701   2.119   5.027 -0.6212  0.4609 -0.0900
 5806TIP3    H238910   3.780   2.039   4.926 -1.1742 -0.6879  0.3735
 5807TIP3   OH238911   1.845   3.231   0.132  0.1882  0.1789  0.1767
 5807TIP3    H138912   1.938   3.239   0.154  0.1535 -0.0468  0.4119
 5807TIP3    H238913   1.807   3.314   0.160  0.3820  0.4192 -0.2553
 5808TIP3   OH238914   3.842   3.081  16.978 -0.6552  0.1743  0.8073
 5808TIP3    H138915   3.845   3.177  16.975  2.4828  0.1507  0.4496
 5808TIP3    H238916   3.933   3.054  16.990 -1.4152 -2.7983  0.6629
 5809TIP3   OH238917   1.565   4.352   3.391  0.4915  0.1338 -0.2970
 5809TIP3    H138918   1.527   4.299   3.462  0.4469  0.9716  0.3180
 5809TIP3    H238919   1.658   4.330   3.392  0.3557 -0.4877 -0.5465
 5810TIP3   OH238920   3.531   3.996   1.119 -0.2589  0.6021  0.1189
 5810TIP3    H138921   3.529   4.090   1.137 -1.9586  0.6769 -0.3423
 5810TIP3    H238922   3.445   3.964   1.146  0.0714 -0.7224 -0.3003
 5811TIP3   OH238923   2.718   0.868  10.508 -0.4741 -0.4511  0.0406
 5811TIP3    H138924   2.799   0.878  10.459 -0.5295  0.3467  0.1040
 5811TIP3    H238925   2.713   0.774  10.528  0.8804 -0.3806  0.8003
 5812TIP3   OH238926   6.054   2.884   2.618 -0.5050  0.3151 -0.3041
 5812TIP3    H138927   6.132   2.903   2.672  0.1323  2.2669 -1.7914
 5812TIP3    H238928   6.067   2.936   2.538 -3.3277  0.6833 -0.6308
 5813TIP3   OH238929   5.582   1.507   1.227 -0.1174  0.3791  0.1943
 5813TIP3    H138930   5.567   1.481   1.136 -0.7693  0.9661  0.1274
 5813TIP3    H238931   5.667   1.468   1.250 -0.1852 -0.1874 -0.5019
 5814TIP3   OH238932   0.948   4.737   5.182 -0.2634  0.1878  0.5822
 5814TIP3    H138933   1.023   4.681   5.163  0.0567  0.9036 -0.3282
 5814TIP3    H238934   0.961   4.815   5.128 -2.9250 -0.7421 -1.6182
 5815TIP3   OH238935   5.430   6.094   0.978 -0.2669  0.0117 -0.3610
 5815TIP3    H138936   5.519   6.125   0.960 -0.3236  0.0928 -0.5037
 5815TIP3    H238937   5.442   6.004   1.009 -0.1827 -0.2060 -1.0163
 5816TIP3   OH238938   3.856   2.112   2.669  0.5994  0.2349 -0.4216
 5816TIP3    H138939   3.908   2.126   2.748  0.9773  1.9750 -0.9120
 5816TIP3    H238940   3.919   2.080   2.604  0.7059  0.6259 -0.5184
 5817TIP3   OH238941   2.820   4.948   5.856  0.2814  0.0464  0.4199
 5817TIP3    H138942   2.902   4.976   5.815 -0.2612  0.9270 -0.0953
 5817TIP3    H238943   2.817   4.997   5.938  0.2179  0.1061  0.3825
 5818TIP3   OH238944   6.752   5.307  16.195 -0.6053  0.2178  0.9604
 5818TIP3    H138945   6.711   5.362  16.128 -2.2868  0.4876  2.1315
 5818TIP3    H238946   6.832   5.275  16.154 -1.1144  1.0854 -0.8428
 5819TIP3   OH238947   6.221   6.411  13.631 -0.3889  0.0254 -0.4363
 5819TIP3    H138948   6.301   6.421  13.579  0.3300 -0.6032  0.5023
 5819TIP3    H238949   6.159   6.369  13.572  0.1013  0.1533 -1.0592
 5820TIP3   OH238950   1.463   5.301   5.544  0.2279 -0.5567 -0.1942
 5820TIP3    H138951   1.523   5.373   5.528  0.1603 -0.8501 -1.9230
 5820TIP3    H238952   1.455   5.298   5.639 -1.8474  3.4769  0.0064
 5821TIP3   OH238953   2.503   0.017  11.326  0.0914  0.1172 -0.4845
 5821TIP3    H138954   2.588   0.015  11.282  1.2285 -2.9273  1.4602
 5821TIP3    H238955   2.439   0.012  11.255  1.5588  0.8572 -1.9412
 5822TIP3   OH238956   1.439   3.698  10.905  0.1761 -0.7569  0.1274
 5822TIP3    H138957   1.515   3.659  10.949 -2.0935 -3.0562  2.3251
 5822TIP3    H238958   1.432   3.649  10.823 -0.8086 -3.0399  1.4636
 5823TIP3   OH238959   1.219   2.958   5.354 -0.8475 -0.5218  0.7747
 5823TIP3    H138960   1.294   3.017   5.357 -1.9749  0.9754  0.7975
 5823TIP3    H238961   1.251   2.881   5.308  1.2615 -0.8129  2.5667
 5824TIP3   OH238962   6.483   6.579  12.679 -0.0332 -0.0460 -0.2248
 5824TIP3    H138963   6.478   6.651  12.742 -2.8165  0.6848 -1.1130
 5824TIP3    H238964   6.406   6.525  12.700  0.8962 -1.6819 -0.8595
 5825TIP3   OH238965   6.720   1.912  12.195  0.5298  0.5248 -0.2051
 5825TIP3    H138966   6.755   1.948  12.277 -2.7502  1.5004  0.9073
 5825TIP3    H238967   6.708   1.989  12.139 -1.8107  0.6059  0.3154
 5826TIP3   OH238968   5.488   3.136   2.750 -0.0683  0.2528  0.0350
 5826TIP3    H138969   5.474   3.095   2.835  2.0264 -1.4566 -0.3557
 5826TIP3    H238970   5.520   3.065   2.694  1.4764  1.9218 -1.3413
 5827TIP3   OH238971   4.159   3.300  13.029 -0.4163  0.2627 -0.5773
 5827TIP3    H138972   4.219   3.327  13.099 -0.0323 -0.2630 -0.7020
 5827TIP3    H238973   4.153   3.377  12.972 -2.2196  1.3924  1.0193
 5828TIP3   OH238974   5.224   1.074  15.406  0.0346  0.0995  0.0193
 5828TIP3    H138975   5.215   1.163  15.373 -1.2442  0.4029  1.1176
 5828TIP3    H238976   5.251   1.023  15.329  1.1316  1.4623 -0.5424
 5829TIP3   OH238977   3.643   1.803  11.650  0.3041 -0.3273 -0.1893
 5829TIP3    H138978   3.588   1.744  11.702 -0.1655 -1.0458 -1.4639
 5829TIP3    H238979   3.653   1.881  11.705  0.2913 -1.2767  1.2044
 5830TIP3   OH238980   2.689   2.936   3.136 -0.0219  0.3014 -0.3187
 5830TIP3    H138981   2.725   2.939   3.224  0.4376 -0.8126 -0.4527
 5830TIP3    H238982   2.632   2.859   3.136 -0.7094  0.7899 -0.7482
 5831TIP3   OH238983   4.722   0.943   2.177  0.4519 -0.1212 -0.4598
 5831TIP3    H138984   4.713   0.849   2.189 -0.3746 -0.3931 -2.7692
 5831TIP3    H238985   4.817   0.959   2.177  0.5776 -0.7252  1.1754
 5832TIP3   OH238986   1.553   1.473   2.129  0.5596 -0.1821 -0.1228
 5832TIP3    H138987   1.533   1.562   2.156 -0.2637 -0.4482  0.1808
 5832TIP3    H238988   1.592   1.433   2.206  2.2399  0.3045 -0.6814
 5833TIP3   OH238989   6.662   5.334  15.368 -0.0001  0.1989 -0.3799
 5833TIP3    H138990   6.674   5.279  15.445 -0.3063  0.0526 -0.4337
 5833TIP3    H238991   6.598   5.287  15.315 -3.1625  2.2889  1.2512
 5834TIP3   OH238992   1.869   1.293  15.300  0.2472  0.1890  0.4209
 5834TIP3    H138993   1.799   1.323  15.242 -1.0442  0.8979  2.2529
 5834TIP3    H238994   1.902   1.214  15.258 -1.4237  0.0249 -0.6862
 5835TIP3   OH238995   4.282   6.001  14.800  0.4829  0.7955  0.7256
 5835TIP3    H138996   4.201   6.001  14.851  0.8383  1.0561  1.3034
 5835TIP3    H238997   4.351   5.980  14.863  0.8080  0.0508  0.1353
 5836TIP3   OH238998   2.543   5.329  13.805  0.0200 -0.4415  0.0725
 5836TIP3    H138999   2.537   5.235  13.824  0.3140 -0.5866 -0.5161
 5836TIP3    H239000   2.578   5.333  13.716 -2.0955  0.1704 -0.7950
 5837TIP3   OH239001   5.199   2.994  16.627 -0.8086  0.1242 -0.3943
 5837TIP3    H139002   5.206   3.083  16.593  2.8198 -0.4387 -1.5820
 5837TIP3    H239003   5.263   2.990  16.698 -1.7051 -1.2450  0.3749
 5838TIP3   OH239004   4.268   4.450  11.517 -0.2932  0.4954  0.4455
 5838TIP3    H139005   4.293   4.543  11.515  1.1282  0.1925  1.9819
 5838TIP3    H239006   4.227   4.438  11.603  0.1246 -0.4259  0.5298
 5839TIP3   OH239007   6.478   6.507   1.540 -0.1640 -0.3406  0.3486
 5839TIP3    H139008   6.537   6.580   1.524 -0.2140 -0.7201 -1.8924
 5839TIP3    H239009   6.422   6.503   1.463 -0.1015 -2.7815  0.3353
 5840TIP3   OH239010   6.712   3.700  14.541  0.1973  0.1354  0.1355
 5840TIP3    H139011   6.729   3.606  14.536  2.6240  0.4504  0.9170
 5840TIP3    H239012   6.742   3.734  14.456 -0.3180  0.2501 -0.0018
 5841TIP3   OH239013   5.215   3.421   1.406  0.2434  0.2558 -0.4792
 5841TIP3    H139014   5.239   3.500   1.357  0.5081  0.1179 -0.5723
 5841TIP3    H239015   5.136   3.446   1.454 -0.9627 -0.0905 -2.2109
 5842TIP3   OH239016   6.018   4.272  12.263 -0.0111 -0.5525  0.2150
 5842TIP3    H139017   5.985   4.317  12.185  0.1108 -2.4847 -1.0133
 5842TIP3    H239018   6.085   4.331  12.297 -1.2641  1.1432 -0.0911
 5843TIP3   OH239019   1.806   2.695  15.475  0.4058 -0.6600 -0.2986
 5843TIP3    H139020   1.799   2.629  15.544  0.8775  0.1288  0.5310
 5843TIP3    H239021   1.734   2.756  15.493  0.6780 -0.3192 -0.3522
 5844TIP3   OH239022   2.241   2.910   0.489 -0.2311 -0.0789 -0.1121
 5844TIP3    H139023   2.247   2.899   0.584  0.1940  0.4676 -0.0648
 5844TIP3    H239024   2.309   2.853   0.454 -0.5945 -0.5154 -0.1071
 5845TIP3   OH239025   0.995   2.045   4.044 -0.2401 -0.3335  0.3712
 5845TIP3    H139026   1.037   2.000   4.118 -0.3290  0.8207  1.1463
 5845TIP3    H239027   0.938   1.978   4.005  0.5616 -1.2500  0.7161
 5846TIP3   OH239028   1.300   6.097  14.616 -0.1392  0.2277  0.0485
 5846TIP3    H139029   1.371   6.087  14.552  0.2757 -0.8634  0.6589
 5846TIP3    H239030   1.222   6.065  14.570 -0.3020  1.5873 -0.6836
 5847TIP3   OH239031   0.674   5.650  12.262 -0.3808 -0.4051 -0.2932
 5847TIP3    H139032   0.645   5.637  12.353 -0.5619 -0.2456 -0.3295
 5847TIP3    H239033   0.692   5.743  12.255  1.3857 -0.6789  0.1007
 5848TIP3   OH239034   1.558   1.441   5.589  0.4401  0.1567 -0.0860
 5848TIP3    H139035   1.481   1.497   5.592  0.7193  0.6168 -0.8851
 5848TIP3    H239036   1.528   1.360   5.548  0.5273  0.6222 -1.1050
 5849TIP3   OH239037   4.693   5.724   1.147 -0.4589  0.0021 -0.2129
 5849TIP3    H139038   4.747   5.802   1.133 -0.2315  0.0494  0.8508
 5849TIP3    H239039   4.717   5.665   1.076  0.2653  0.4240 -0.3275
 5850TIP3   OH239040   1.714   3.928   4.554 -0.6305 -0.7317 -0.1329
 5850TIP3    H139041   1.690   3.948   4.463 -0.1340 -0.4407 -0.2081
 5850TIP3    H239042   1.806   3.904   4.549 -0.7907 -1.4176  0.2003
 5851TIP3   OH239043   6.269   0.959  15.625  0.2297 -0.1610 -0.1205
 5851TIP3    H139044   6.283   1.011  15.546 -0.4681  0.4004  0.1101
 5851TIP3    H239045   6.305   1.013  15.696  0.7751 -0.6223 -0.0338
 5852TIP3   OH239046   5.135   4.872  10.698  0.3238 -0.0291  0.4199
 5852TIP3    H139047   5.157   4.963  10.681 -1.5969  0.9128  2.5462
 5852TIP3    H239048   5.084   4.845  10.621  2.4253  0.0280 -1.0802
 5853TIP3   OH239049   3.361   1.656   5.822  0.9390  0.5931 -0.0461
 5853TIP3    H139050   3.451   1.626   5.839  0.2067 -2.5974 -1.1721
 5853TIP3    H239051   3.355   1.659   5.726 -0.3789 -0.0215  0.0049
 5854TIP3   OH239052   5.833   4.340   4.133  0.1215  0.1498 -0.0895
 5854TIP3    H139053   5.774   4.409   4.163  1.7698  1.7554 -0.3630
 5854TIP3    H239054   5.820   4.338   4.038  1.0091  1.0288 -0.2420
 5855TIP3   OH239055   4.525   0.896   3.595 -0.0291  0.1249  0.3185
 5855TIP3    H139056   4.475   0.846   3.659 -0.6326  1.1579  0.6856
 5855TIP3    H239057   4.568   0.964   3.647 -2.0169  2.1600 -0.5392
 5856TIP3   OH239058   4.973   3.997  15.843  0.6959  0.3031 -0.5604
 5856TIP3    H139059   5.014   4.084  15.841  1.6286 -0.0692  0.9493
 5856TIP3    H239060   4.880   4.014  15.833  0.7732  1.5574  0.6270
 5857TIP3   OH239061   0.593   4.970   4.926  0.3077  0.3752  0.2292
 5857TIP3    H139062   0.641   4.985   4.844  1.0965 -2.0893  0.1334
 5857TIP3    H239063   0.661   4.950   4.990 -0.4347 -0.3634  0.8108
 5858TIP3   OH239064   3.525   4.564  14.196  0.0240 -0.2572  0.7187
 5858TIP3    H139065   3.618   4.575  14.176 -0.1697  0.8013  0.3469
 5858TIP3    H239066   3.513   4.469  14.201  1.0692 -0.4149  0.5105
 5859TIP3   OH239067   2.894   1.224  16.962 -0.3772  0.3212 -0.2468
 5859TIP3    H139068   2.978   1.242  17.002  0.2576 -0.7574 -1.0466
 5859TIP3    H239069   2.872   1.304  16.915 -0.6641  1.2425  1.3865
 5860TIP3   OH239070   3.225   0.236   2.315 -0.3556 -0.8552 -0.5820
 5860TIP3    H139071   3.294   0.303   2.308 -0.2848 -0.8507  0.1098
 5860TIP3    H239072   3.144   0.284   2.296 -0.3193 -0.5365  0.0333
 5861TIP3   OH239073   2.385   0.497   1.520  0.0703 -0.1103 -0.2061
 5861TIP3    H139074   2.471   0.468   1.550  0.9121  2.0389 -0.3881
 5861TIP3    H239075   2.335   0.511   1.600 -0.4815 -2.2162 -0.1124
 5862TIP3   OH239076   0.786   5.708   5.608 -0.4963  0.0204 -0.2501
 5862TIP3    H139077   0.811   5.695   5.516 -0.9410 -0.2772 -0.3314
 5862TIP3    H239078   0.823   5.794   5.630 -1.1527  0.5112 -0.9891
 5863TIP3   OH239079   5.709   1.376  15.408  0.3119 -0.2823 -0.2084
 5863TIP3    H139080   5.681   1.325  15.483  2.6552  0.6091  1.3978
 5863TIP3    H239081   5.774   1.322  15.364  1.6608  0.6054  0.6072
 5864TIP3   OH239082   3.510   5.003   4.543 -0.9371  0.0421 -0.4737
 5864TIP3    H139083   3.534   4.956   4.463  2.5387  0.1056  0.3730
 5864TIP3    H239084   3.544   5.092   4.531  0.3775 -0.1509  1.2897
 5865TIP3   OH239085   4.249   6.180  11.419  0.6827 -0.0462 -0.1859
 5865TIP3    H139086   4.193   6.105  11.436  1.2946 -0.6050 -0.5824
 5865TIP3    H239087   4.189   6.254  11.412  0.0259 -0.5864 -0.3521
 5866TIP3   OH239088   5.689   1.686  15.799 -0.8313  0.1378 -0.2343
 5866TIP3    H139089   5.770   1.650  15.763  0.0143  0.4854  1.2369
 5866TIP3    H239090   5.620   1.637  15.755  0.2315 -2.7268  0.9929
 5867TIP3   OH239091   2.644   2.351  11.641 -0.3931 -0.6105  0.4009
 5867TIP3    H139092   2.571   2.297  11.672 -0.6971 -1.2628 -1.3575
 5867TIP3    H239093   2.643   2.341  11.546  0.8771  0.8162  0.1968
 5868TIP3   OH239094   6.582   6.382   4.874  0.1350  0.2902 -0.0233
 5868TIP3    H139095   6.617   6.440   4.942 -0.3653  0.9308 -0.2923
 5868TIP3    H239096   6.618   6.416   4.792  1.6674 -1.1926  0.0021
 5869TIP3   OH239097   4.568   2.371   5.393  0.4944 -0.1295  0.1037
 5869TIP3    H139098   4.558   2.296   5.451  0.3847 -2.9525 -3.2276
 5869TIP3    H239099   4.483   2.380   5.350  1.0180  0.8062 -0.7821
 5870TIP3   OH239100   2.808   6.794   1.751 -0.1157 -0.0855  0.6806
 5870TIP3    H139101   2.800   6.703   1.721  0.0209  1.0850 -3.3816
 5870TIP3    H239102   2.901   6.808   1.764  0.3304  0.4235 -2.4718
 5871TIP3   OH239103   1.574   3.930   5.095 -0.2365  0.1682  0.0819
 5871TIP3    H139104   1.596   3.848   5.050  1.4411  1.0665 -0.8173
 5871TIP3    H239105   1.623   3.926   5.177  1.6899  1.2282 -0.9702
 5872TIP3   OH239106   4.212   6.180   1.003 -0.1998  0.3766  0.0809
 5872TIP3    H139107   4.230   6.185   0.909  1.4007  0.3760  0.3688
 5872TIP3    H239108   4.119   6.202   1.011 -0.5893 -0.5281 -1.5894
 5873TIP3   OH239109   0.186   2.380  14.364 -0.1347  0.1716  0.5728
 5873TIP3    H139110   0.103   2.333  14.365  0.3752 -0.7541  0.8224
 5873TIP3    H239111   0.232   2.348  14.441 -0.0414  1.6072  1.1411
 5874TIP3   OH239112   1.825   6.226   1.376 -0.6816 -0.2152  0.5080
 5874TIP3    H139113   1.737   6.221   1.412 -1.3662 -1.3685 -1.2048
 5874TIP3    H239114   1.860   6.138   1.384  1.0194  0.5648  2.6731
 5875TIP3   OH239115   1.187   3.536   0.446 -0.1627 -0.3182 -0.6832
 5875TIP3    H139116   1.157   3.597   0.513 -1.1214 -1.3410 -0.1393
 5875TIP3    H239117   1.269   3.500   0.481 -1.1585 -1.5988  0.4866
 5876TIP3   OH239118   2.630   3.709   4.025 -0.1645 -0.2378  0.0163
 5876TIP3    H139119   2.642   3.751   3.940 -1.4386 -0.2857 -0.2083
 5876TIP3    H239120   2.693   3.638   4.025  0.7373  0.5426 -0.3569
 5877TIP3   OH239121   6.810   6.305  12.772 -0.0162  0.0779 -0.5694
 5877TIP3    H139122   6.836   6.397  12.775  0.4196 -0.0000 -1.4264
 5877TIP3    H239123   6.748   6.300  12.698  0.1127 -0.3478 -0.6557
 5878TIP3   OH239124   3.821   3.219  10.986  0.6567 -0.3678 -0.0431
 5878TIP3    H139125   3.860   3.230  11.073  2.3064  0.4561 -0.8388
 5878TIP3    H239126   3.813   3.308  10.952 -3.4730 -0.2706  0.6196
 5879TIP3   OH239127   3.294   0.021   0.540 -0.6941  0.5126  0.0912
 5879TIP3    H139128   3.319  -0.024   0.620  0.5139  1.6715  0.3942
 5879TIP3    H239129   3.262   0.107   0.569  0.6182  1.2966 -0.6903
 5880TIP3   OH239130   4.662   0.829   5.540  0.4409  0.3738 -0.3757
 5880TIP3    H139131   4.635   0.809   5.450  0.1798 -1.2501  0.0437
 5880TIP3    H239132   4.590   0.799   5.595  0.6490  1.2494  0.4140
 5881TIP3   OH239133   4.865   5.745   0.645  0.0573 -0.3664 -0.1870
 5881TIP3    H139134   4.937   5.746   0.707 -0.4405 -1.3040  0.4331
 5881TIP3    H239135   4.900   5.698   0.568 -0.3579 -2.3499  0.7587
 5882TIP3   OH239136   0.997   0.984  14.193  0.1559 -0.6199  0.8785
 5882TIP3    H139137   1.041   0.901  14.214  1.5376 -0.6501 -1.7658
 5882TIP3    H239138   1.045   1.050  14.242  0.2971 -1.1501  1.4685
 5883TIP3   OH239139   6.307   3.610   6.775 -0.0731  0.3647  0.1305
 5883TIP3    H139140   6.235   3.550   6.757 -0.5919 -0.2113  3.5042
 5883TIP3    H239141   6.385   3.555   6.782  0.3790  0.7444 -1.5287
 5884TIP3   OH239142   6.766   2.255   1.011 -0.5991  0.0377 -0.4697
 5884TIP3    H139143   6.745   2.164   1.033 -1.5113 -0.5556 -3.3302
 5884TIP3    H239144   6.689   2.286   0.964  0.3405  1.7932 -0.9357
 5885TIP3   OH239145   3.576   5.624   4.107  0.3925  0.0768  0.2089
 5885TIP3    H139146   3.549   5.707   4.147 -1.3257  0.1257 -0.9353
 5885TIP3    H239147   3.558   5.636   4.013 -0.1928 -1.6835  0.0614
 5886TIP3   OH239148   5.818   0.408   3.421 -0.0112  0.2211  0.4772
 5886TIP3    H139149   5.780   0.414   3.508 -2.4050 -1.0472 -0.3693
 5886TIP3    H239150   5.771   0.472   3.369 -0.2549 -0.6139 -0.3718
 5887TIP3   OH239151   4.439   5.868   6.082 -0.0220 -0.4825  0.0450
 5887TIP3    H139152   4.356   5.913   6.102 -1.0625 -2.7291  1.1523
 5887TIP3    H239153   4.416   5.808   6.011  0.8996 -0.5273 -0.2192
 5888TIP3   OH239154   5.627   1.846  10.695 -0.4525 -0.4129  0.5163
 5888TIP3    H139155   5.694   1.904  10.659 -1.2280  0.4842  0.4727
 5888TIP3    H239156   5.647   1.760  10.658  0.9668 -0.2820  0.9027
 5889TIP3   OH239157   0.015   1.256  15.013  0.1821 -0.0052 -0.0294
 5889TIP3    H139158  -0.054   1.265  14.946  0.3572 -0.8755 -0.3359
 5889TIP3    H239159  -0.018   1.189  15.072  0.6554 -0.2475 -0.0355
 5890TIP3   OH239160   6.321   6.476   0.105 -0.4189 -0.0799  0.0717
 5890TIP3    H139161   6.374   6.420   0.162 -0.4726  1.2636  1.4973
 5890TIP3    H239162   6.384   6.515   0.044 -0.1118 -0.2994  0.2451
 5891TIP3   OH239163   4.881   0.608   0.527  0.4997  0.1148 -0.5955
 5891TIP3    H139164   4.913   0.554   0.455 -0.1372 -1.4451  0.2417
 5891TIP3    H239165   4.791   0.577   0.543  0.4571  0.7551  0.5505
 5892TIP3   OH239166   4.972   0.866   0.477  0.0790 -0.4230 -0.2924
 5892TIP3    H139167   4.924   0.789   0.508  0.7958 -0.5131  0.6027
 5892TIP3    H239168   5.017   0.900   0.554  0.5728  0.3167 -0.8903
 5893TIP3   OH239169   5.494   2.149  11.597  0.4179 -0.2204  0.2404
 5893TIP3    H139170   5.476   2.232  11.554 -3.2465 -0.8726  0.2103
 5893TIP3    H239171   5.484   2.168  11.691 -0.5914 -0.5998  0.2243
 5894TIP3   OH239172   2.031   5.996  13.387  0.0948 -0.3044  0.2325
 5894TIP3    H139173   2.017   5.960  13.475  0.4456 -1.2483 -0.0871
 5894TIP3    H239174   2.069   6.083  13.402 -0.8877  0.0120  1.0193
 5895TIP3   OH239175   0.701   3.937  14.975 -0.0180 -0.3158  0.0463
 5895TIP3    H139176   0.641   3.937  15.050  2.1606  0.1733  1.8997
 5895TIP3    H239177   0.693   3.849  14.939 -0.5728 -0.8246  1.3275
 5896TIP3   OH239178   6.429   2.633  14.654 -0.0666 -0.0085 -0.0543
 5896TIP3    H139179   6.354   2.690  14.635 -0.7277 -1.0902 -0.8084
 5896TIP3    H239180   6.490   2.651  14.583  0.8233  1.5207  1.0315
 5897TIP3   OH239181   4.215   2.034  13.622  0.2859  0.1508  0.2058
 5897TIP3    H139182   4.175   2.112  13.585  1.0967  0.4707 -0.0160
 5897TIP3    H239183   4.219   1.972  13.549  1.9076  0.7905 -0.2892
 5898TIP3   OH239184   3.916   2.908   0.378 -0.1139  0.1310  0.2637
 5898TIP3    H139185   3.952   2.952   0.455  1.6471  0.6364 -0.8173
 5898TIP3    H239186   3.850   2.969   0.345 -0.4577  0.1796  1.0021
 5899TIP3   OH239187   0.081   4.008   0.147 -0.4307  0.2337 -0.6033
 5899TIP3    H139188   0.057   3.958   0.069 -0.0232  0.2425 -0.7374
 5899TIP3    H239189   0.160   4.056   0.121 -1.2320  1.5442 -0.7340
 5900TIP3   OH239190   1.638   0.710  14.121 -0.1770  0.2720  0.4110
 5900TIP3    H139191   1.701   0.776  14.091 -0.3112  0.1885 -0.0560
 5900TIP3    H239192   1.553   0.754  14.114 -0.4944 -0.5683 -1.7750
 5901TIP3   OH239193   2.840   2.578   1.611  0.1871 -0.4668  0.0630
 5901TIP3    H139194   2.745   2.588   1.608 -0.0919 -2.7652 -1.0058
 5901TIP3    H239195   2.861   2.582   1.704 -1.1708 -1.4710  0.4425
 5902TIP3   OH239196   0.130   4.258   1.297 -0.2571 -0.1052 -0.5940
 5902TIP3    H139197   0.111   4.209   1.377 -1.5119 -1.2890 -1.5544
 5902TIP3    H239198   0.202   4.211   1.256  0.0813  0.2326 -0.3923
 5903TIP3   OH239199   2.539   6.821   4.149 -0.2307 -0.1888 -0.3683
 5903TIP3    H139200   2.461   6.874   4.134 -0.5600 -0.7046 -0.5023
 5903TIP3    H239201   2.540   6.758   4.077 -0.3111 -0.9116  0.2531
 5904TIP3   OH239202   2.945   2.836  11.646  0.5105 -0.0521 -0.2676
 5904TIP3    H139203   3.006   2.884  11.589  1.8647 -0.2202  0.9937
 5904TIP3    H239204   2.945   2.886  11.728 -2.2719  0.8290 -0.7090
 5905TIP3   OH239205   5.008   0.290  13.395  0.2722 -1.6245 -0.5560
 5905TIP3    H139206   4.957   0.361  13.434  0.2080 -1.3381 -1.1654
 5905TIP3    H239207   5.090   0.290  13.444  0.8990 -0.1375 -1.5571
 5906TIP3   OH239208   0.880   5.966   5.263 -0.2486  0.3780  0.2861
 5906TIP3    H139209   0.925   5.982   5.180 -1.2461  0.3216 -0.2771
 5906TIP3    H239210   0.906   6.040   5.318 -2.3251  2.3744 -1.2482
 5907TIP3   OH239211   0.411   5.114  12.870 -0.0012 -0.7878  0.1992
 5907TIP3    H139212   0.370   5.043  12.820 -0.2983  0.4585 -1.4128
 5907TIP3    H239213   0.400   5.089  12.961 -1.7294 -1.9350 -0.2788
 5908TIP3   OH239214   5.482   1.702   3.311 -0.4117  0.1166  0.0877
 5908TIP3    H139215   5.392   1.669   3.313 -0.2761 -0.2460  0.7269
 5908TIP3    H239216   5.494   1.735   3.222 -1.9540  2.3686  0.6106
 5909TIP3   OH239217   3.563   4.033  13.422 -0.1006 -0.1068 -0.3795
 5909TIP3    H139218   3.626   4.012  13.353  0.8232  1.1960  0.0295
 5909TIP3    H239219   3.500   4.090  13.380 -0.8582 -1.1460 -0.7028
 5910TIP3   OH239220   1.969   6.070  15.745  0.5870 -0.7977 -0.5298
 5910TIP3    H139221   1.973   5.980  15.776  0.6168 -0.5538  0.1781
 5910TIP3    H239222   1.893   6.107  15.789  0.9093 -0.3098 -0.3855
 5911TIP3   OH239223   1.038   4.307  15.742 -0.0167  0.1669  0.3716
 5911TIP3    H139224   1.016   4.389  15.786  0.1413 -0.2108  1.1698
 5911TIP3    H239225   1.134   4.308  15.734  0.1083 -0.4824  1.5105
 5912TIP3   OH239226   0.165   1.667   4.816  0.6971 -0.6998  0.2705
 5912TIP3    H139227   0.229   1.611   4.773  0.7967 -0.3660 -0.0226
 5912TIP3    H239228   0.213   1.712   4.885  1.3449  1.2139 -1.3297
 5913TIP3   OH239229   4.594   4.960   2.457  0.6785 -0.1646  0.4533
 5913TIP3    H139230   4.518   4.945   2.400  0.7196 -0.0199  0.3611
 5913TIP3    H239231   4.668   4.927   2.406  0.3054 -3.7497  1.9314
 5914TIP3   OH239232   2.638   2.659  15.320  0.1487 -0.1964 -0.1632
 5914TIP3    H139233   2.581   2.624  15.252  0.1311 -0.1531 -0.1706
 5914TIP3    H239234   2.579   2.699  15.383  0.1284 -0.7289  0.1629
 5915TIP3   OH239235   6.629   6.392   2.278  0.1816 -0.6562 -0.3229
 5915TIP3    H139236   6.688   6.467   2.288 -1.7751  1.4712 -3.0924
 5915TIP3    H239237   6.683   6.323   2.239  0.8336  1.5999 -3.8946
 5916TIP3   OH239238   3.906   4.952   1.046  0.2020  0.3473 -0.5258
 5916TIP3    H139239   3.860   5.017   0.993 -1.5350  0.0988  0.5908
 5916TIP3    H239240   3.872   4.965   1.134  1.7741 -0.3642  0.2193
 5917TIP3   OH239241   0.413   3.162   4.830  0.5846  0.0519  0.1043
 5917TIP3    H139242   0.351   3.098   4.865 -0.2801  0.0114 -1.4248
 5917TIP3    H239243   0.460   3.194   4.907 -0.3506 -0.9531  1.1352
 5918TIP3   OH239244   0.206   3.567   3.493 -0.3715 -0.1217  0.3027
 5918TIP3    H139245   0.178   3.646   3.539 -0.9075  1.3332 -2.3372
 5918TIP3    H239246   0.273   3.529   3.550  0.7530  2.8669  1.1587
 5919TIP3   OH239247   0.146   6.601   1.825 -0.4231 -0.0309 -0.3304
 5919TIP3    H139248   0.239   6.621   1.818  0.0878 -2.2514 -0.7053
 5919TIP3    H239249   0.142   6.524   1.882 -1.9996 -0.0950 -0.4807
 5920TIP3   OH239250   1.735   4.797   5.435 -0.0683 -0.2737 -0.2118
 5920TIP3    H139251   1.647   4.832   5.420  0.2882  0.8197  0.1608
 5920TIP3    H239252   1.720   4.710   5.473 -1.0173  0.4836  1.2404
 5921TIP3   OH239253   5.358   0.302  11.271 -0.4358 -0.0684  0.1069
 5921TIP3    H139254   5.380   0.386  11.313  3.4128 -0.5060 -0.7161
 5921TIP3    H239255   5.298   0.327  11.200  1.5394  2.2603 -0.9017
 5922TIP3   OH239256   1.548   6.689  13.133 -0.6468  0.4288  0.2194
 5922TIP3    H139257   1.482   6.753  13.106 -1.8571 -0.6341  0.5339
 5922TIP3    H239258   1.498   6.619  13.175  0.6856 -0.4635  0.3997
 5923TIP3   OH239259   5.062   5.501  11.231  0.0303  0.3064 -0.3302
 5923TIP3    H139260   4.993   5.567  11.225 -0.6014 -0.3848 -0.9760
 5923TIP3    H239261   5.101   5.499  11.144 -0.4961 -0.7089 -0.5693
 5924TIP3   OH239262   5.733   2.277  10.431  0.3558 -0.0133  0.1809
 5924TIP3    H139263   5.770   2.365  10.434  0.6667 -0.1665  1.2119
 5924TIP3    H239264   5.658   2.281  10.490  0.9237 -0.6678  0.9731
 5925TIP3   OH239265   5.669   0.629   2.284 -0.3153 -0.6573 -0.5949
 5925TIP3    H139266   5.763   0.609   2.286  0.1674  1.1825 -1.7852
 5925TIP3    H239267   5.649   0.640   2.191 -1.6948 -0.8618 -0.3445
 5926TIP3   OH239268   5.797   1.565   3.114 -0.2932  0.6183 -0.2885
 5926TIP3    H139269   5.872   1.507   3.128  1.1792  2.5119  0.0916
 5926TIP3    H239270   5.732   1.535   3.178  0.7957 -0.0272  0.5558
 5927TIP3   OH239271   3.356   5.102   1.032  0.3205 -0.1467  0.7075
 5927TIP3    H139272   3.269   5.076   1.060  0.2662  0.4481  1.0998
 5927TIP3    H239273   3.366   5.192   1.063  0.7501  0.0815 -0.0633
 5928TIP3   OH239274   0.110   0.756  12.796 -0.2208  0.3537 -0.4150
 5928TIP3    H139275   0.025   0.799  12.811 -0.6431 -0.8301  0.8229
 5928TIP3    H239276   0.172   0.808  12.846 -0.6014  0.0017  0.4548
 5929TIP3   OH239277   3.517   6.073  14.207  0.2343  0.0273  0.0187
 5929TIP3    H139278   3.477   6.159  14.217 -0.7230 -0.3765 -0.2312
 5929TIP3    H239279   3.610   6.088  14.222  0.2880  1.3597 -1.4747
 5930TIP3   OH239280   2.354   0.232  16.039  0.2025 -0.0355  0.5579
 5930TIP3    H139281   2.419   0.171  16.076 -0.8081 -1.8861 -0.5544
 5930TIP3    H239282   2.406   0.305  16.005  1.5411 -0.6291  1.2427
 5931TIP3   OH239283   3.389   0.127   2.500 -0.1997  0.0717 -0.0793
 5931TIP3    H139284   3.339   0.171   2.432 -0.5981  1.9905  1.3590
 5931TIP3    H239285   3.343   0.149   2.581  0.4831 -1.8031  0.8724
 5932TIP3   OH239286   2.786   6.682   4.062  0.6588  0.0632  0.1440
 5932TIP3    H139287   2.814   6.597   4.029  0.4647 -0.6526  1.7370
 5932TIP3    H239288   2.805   6.679   4.156 -1.6210  0.8180  0.7024
 5933TIP3   OH239289   6.445   6.820  15.578 -0.0898  0.1731 -0.8167
 5933TIP3    H139290   6.373   6.878  15.556 -0.9729 -0.9143 -0.9093
 5933TIP3    H239291   6.463   6.772  15.497 -1.1735 -1.5513 -0.0880
 5934TIP3   OH239292   5.231   1.242   2.209  0.1474  0.1073 -0.4501
 5934TIP3    H139293   5.156   1.236   2.149 -0.2263  0.4711 -0.0278
 5934TIP3    H239294   5.193   1.227   2.296  0.6752 -0.3535 -0.2949
 5935TIP3   OH239295   1.449   2.221  13.629 -0.0216 -0.1152  0.1825
 5935TIP3    H139296   1.404   2.260  13.554  0.2418 -0.1973 -0.0251
 5935TIP3    H239297   1.380   2.180  13.681 -0.0443 -1.7648 -1.0359
 5936TIP3   OH239298   0.485   4.911   3.485  0.2383 -0.0097 -0.1535
 5936TIP3    H139299   0.389   4.916   3.484  0.2209  0.4102  1.2545
 5936TIP3    H239300   0.511   4.939   3.397 -0.9707 -2.1311 -1.2595
 5937TIP3   OH239301   0.537   4.977   1.407  0.5503 -0.1880 -0.0188
 5937TIP3    H139302   0.607   4.917   1.432  0.2202 -1.1130 -1.2191
 5937TIP3    H239303   0.570   5.021   1.328  0.7597  1.2017  0.7949
 5938TIP3   OH239304   4.151   6.243  15.847 -0.3019  0.4713  0.1635
 5938TIP3    H139305   4.192   6.226  15.762 -1.4197 -0.3973 -0.2381
 5938TIP3    H239306   4.059   6.259  15.826 -1.0514 -1.7802  1.3125
 5939TIP3   OH239307   5.083   3.621   4.139  0.0333 -0.0209  0.3673
 5939TIP3    H139308   5.105   3.660   4.223 -1.1861  1.1884  0.1542
 5939TIP3    H239309   5.166   3.619   4.091  0.3576  1.1882  0.8455
 5940TIP3   OH239310   6.550   2.014   4.363 -0.5740 -0.7315 -0.0164
 5940TIP3    H139311   6.643   2.028   4.381 -0.1774  0.0783 -2.3894
 5940TIP3    H239312   6.509   2.096   4.390 -1.1798 -2.0719  3.8081
 5941TIP3   OH239313   6.606   2.927  16.600  0.5281  0.1150 -0.3098
 5941TIP3    H139314   6.563   3.004  16.638  0.4602  0.0508 -0.2568
 5941TIP3    H239315   6.687   2.962  16.561  1.5207 -0.0795  1.4779
 5942TIP3   OH239316   3.837   3.494  13.709 -0.0203  0.5595  0.3144
 5942TIP3    H139317   3.806   3.430  13.773  2.3017  1.4798  2.5153
 5942TIP3    H239318   3.905   3.447  13.660  1.0589  0.9914  1.3365
 5943TIP3   OH239319   4.457   1.442  11.191 -0.3080  0.3023  0.3379
 5943TIP3    H139320   4.522   1.441  11.261 -0.2544 -0.0568  0.2869
 5943TIP3    H239321   4.379   1.402  11.230 -0.7005  1.2912  0.5845
 5944TIP3   OH239322   1.567   1.888  15.178 -0.2779  0.4540 -0.5139
 5944TIP3    H139323   1.553   1.914  15.087 -3.1097 -2.7414 -1.1779
 5944TIP3    H239324   1.498   1.934  15.226  0.7573  1.5560 -0.0299
 5945TIP3   OH239325   3.273   6.701   0.763 -0.2870 -0.3170  0.3191
 5945TIP3    H139326   3.238   6.658   0.841 -0.9693 -1.1395 -0.4106
 5945TIP3    H239327   3.365   6.674   0.760  0.1965  1.0545  1.7116
 5946TIP3   OH239328   6.347   0.763   4.610  0.0170  0.5539 -0.9583
 5946TIP3    H139329   6.386   0.843   4.575 -0.7551  1.9342  1.1484
 5946TIP3    H239330   6.419   0.717   4.652  0.4240  0.2095 -1.9976
 5947TIP3   OH239331   4.606   4.786  15.380  0.5216  0.5735  0.4973
 5947TIP3    H139332   4.574   4.724  15.314 -1.3799  0.9542  0.9853
 5947TIP3    H239333   4.692   4.814  15.348  1.3884 -2.1522  0.1705
 5948TIP3   OH239334   3.717   1.648  13.748  0.0847  0.9423  0.0999
 5948TIP3    H139335   3.798   1.690  13.720  1.1431 -0.0119  1.5934
 5948TIP3    H239336   3.743   1.591  13.821 -1.9632  0.7557  0.7472
 5949TIP3   OH239337   5.240   5.507   0.830 -0.5772  0.6639 -0.3404
 5949TIP3    H139338   5.231   5.602   0.820  0.1875  0.8270  0.3307
 5949TIP3    H239339   5.217   5.471   0.745 -3.3707  1.2514  0.0925
 5950TIP3   OH239340   4.258   4.598   1.287  1.0837 -0.5913  0.3860
 5950TIP3    H139341   4.214   4.571   1.206 -2.2925 -0.2277  1.9298
 5950TIP3    H239342   4.256   4.520   1.342 -1.1398  0.3518  1.7963
 5951TIP3   OH239343   4.327   5.373   3.866  0.3888 -0.3760  0.2463
 5951TIP3    H139344   4.300   5.319   3.792  2.5600  2.8614 -3.2455
 5951TIP3    H239345   4.410   5.335   3.894  0.4796 -0.5387 -0.2301
 5952TIP3   OH239346   0.911   2.740  14.245  0.2976 -0.0820 -0.3134
 5952TIP3    H139347   0.950   2.664  14.201  1.8391  0.7716 -0.4871
 5952TIP3    H239348   0.909   2.808  14.178 -1.9350 -0.1809 -0.4278
 5953TIP3   OH239349   0.549   0.664  10.773 -0.2339  1.1985 -0.5013
 5953TIP3    H139350   0.603   0.585  10.769  0.8951  1.8162  1.1045
 5953TIP3    H239351   0.502   0.666  10.690  2.1642  0.5568 -1.9860
 5954TIP3   OH239352   4.319   6.295   3.869 -0.4493 -0.2752  0.1027
 5954TIP3    H139353   4.410   6.311   3.893 -0.5041 -0.9282  0.7821
 5954TIP3    H239354   4.296   6.368   3.812 -0.6543  2.0652  2.9457
 5955TIP3   OH239355   1.274   2.323  14.214  0.2532 -0.3689  0.8072
 5955TIP3    H139356   1.314   2.295  14.132 -0.8206 -0.8985  0.4522
 5955TIP3    H239357   1.192   2.273  14.220 -0.6315  1.0641  1.2469
 5956TIP3   OH239358   3.804   5.655  13.468 -0.0896 -0.0915  0.5487
 5956TIP3    H139359   3.760   5.574  13.496 -1.0281  0.0422 -0.4720
 5956TIP3    H239360   3.780   5.719  13.536 -0.2697 -0.3918  0.7738
 5957TIP3   OH239361   1.049   3.030  12.209  0.2933 -0.1625  0.7625
 5957TIP3    H139362   1.062   3.119  12.241  1.7000 -0.3351  0.7600
 5957TIP3    H239363   1.062   3.035  12.115 -0.4559 -0.2431  0.6457
 5958TIP3   OH239364   2.692   4.763  12.932 -0.3922 -0.3989  0.0609
 5958TIP3    H139365   2.678   4.833  12.868 -0.7175 -1.2413 -0.8111
 5958TIP3    H239366   2.737   4.806  13.005 -0.4570  0.6856 -0.5195
 5959TIP3   OH239367   1.255   4.321  14.331  0.0328  0.2736 -0.0298
 5959TIP3    H139368   1.330   4.262  14.334 -0.0527  0.2041  1.1651
 5959TIP3    H239369   1.291   4.407  14.354  0.1667  0.7298 -1.8070
 5960TIP3   OH239370   3.472   3.103  11.584  0.8327  0.1949 -0.2390
 5960TIP3    H139371   3.382   3.126  11.562  0.8164  0.0801 -0.2913
 5960TIP3    H239372   3.512   3.079  11.501  0.5603 -0.9519 -0.0546
 5961TIP3   OH239373   0.992   4.865   4.884  1.0322  0.1012 -0.0437
 5961TIP3    H139374   0.947   4.930   4.830 -0.4566 -0.5424  0.3650
 5961TIP3    H239375   0.983   4.783   4.835  2.0698  0.0218 -0.1106
 5962TIP3   OH239376   6.721   1.600  12.506  0.6456  0.1515  0.4363
 5962TIP3    H139377   6.686   1.557  12.428 -0.2488  0.3139  0.7373
 5962TIP3    H239378   6.722   1.532  12.573  1.0116  0.1210  0.4008
 5963TIP3   OH239379   0.923   4.591  11.217  0.4601 -0.4840  0.4072
 5963TIP3    H139380   0.983   4.660  11.189 -0.2674  0.0078  0.0598
 5963TIP3    H239381   0.931   4.524  11.150  2.1026 -1.3324  1.3701
 5964TIP3   OH239382   0.940   0.841   1.392  0.0899 -0.3520 -0.0920
 5964TIP3    H139383   0.988   0.923   1.383 -1.3261  0.5156 -0.1498
 5964TIP3    H239384   0.959   0.812   1.481 -0.5419  0.8471  0.4738
 5965TIP3   OH239385   4.654   3.292  13.410  0.0117  0.5406  0.5677
 5965TIP3    H139386   4.681   3.200  13.402  0.9728  0.9402 -1.4581
 5965TIP3    H239387   4.694   3.335  13.335 -1.0439  2.4915  1.0604
 5966TIP3   OH239388   0.989   2.901   5.045  0.0146 -0.2289 -0.0969
 5966TIP3    H139389   0.926   2.853   4.991 -0.7491  0.6040  0.0286
 5966TIP3    H239390   1.063   2.917   4.987 -0.2092 -0.5553 -0.4783
 5967TIP3   OH239391   2.119   2.872   1.491 -0.1013 -0.1777  0.0613
 5967TIP3    H139392   2.059   2.797   1.487  0.5054 -0.6315 -1.4265
 5967TIP3    H239393   2.206   2.832   1.492  0.2140  0.5042  0.4169
 5968TIP3   OH239394   6.480   5.434  10.272  0.2472  0.5845 -0.3316
 5968TIP3    H139395   6.554   5.474  10.318 -0.0497  1.2361 -0.3987
 5968TIP3    H239396   6.439   5.508  10.226  2.3916 -0.3990 -4.3014
 5969TIP3   OH239397   1.846   6.658  12.018 -0.3444  0.6839  0.5915
 5969TIP3    H139398   1.795   6.599  12.074 -2.2795  2.0951  0.3914
 5969TIP3    H239399   1.909   6.699  12.077  2.4957 -2.9240  0.4140
 5970TIP3   OH239400   0.440   3.907  12.752  0.4525  0.5014 -0.3772
 5970TIP3    H139401   0.481   3.926  12.836  1.4617 -0.0142 -0.7406
 5970TIP3    H239402   0.387   3.985  12.733  0.1572  0.5910  0.7520
 5971TIP3   OH239403   2.711   3.542  15.215 -0.2206  0.6136  0.2034
 5971TIP3    H139404   2.700   3.611  15.150 -1.4825 -0.8502 -1.2377
 5971TIP3    H239405   2.634   3.549  15.271 -0.0931  0.6902  0.3697
 5972TIP3   OH239406   4.949   1.975  12.913 -0.1663  0.2636 -0.5929
 5972TIP3    H139407   4.903   1.896  12.940 -1.5511  1.6212  1.2793
 5972TIP3    H239408   5.040   1.947  12.902  0.1836 -1.0119  3.6276
 5973TIP3   OH239409   1.607   4.184  11.705  0.6386 -0.6284 -0.3325
 5973TIP3    H139410   1.628   4.208  11.795  0.9301 -0.2145 -0.5108
 5973TIP3    H239411   1.681   4.215  11.653  0.4309 -0.7810 -0.7305
 5974TIP3   OH239412   1.668   0.433   2.658 -0.1822  0.2235  0.1892
 5974TIP3    H139413   1.758   0.463   2.667 -0.0160  0.1367 -1.0946
 5974TIP3    H239414   1.667   0.381   2.578 -1.5011  0.7281 -0.1493
 5975TIP3   OH239415   3.874   3.644  13.080  0.0124  0.3652 -0.2898
 5975TIP3    H139416   3.887   3.657  13.174 -0.9768 -1.6991  0.1829
 5975TIP3    H239417   3.887   3.551  13.066  0.4636  0.6740 -2.2899
 5976TIP3   OH239418   1.440   2.446   0.265 -0.1364 -0.3529  0.0333
 5976TIP3    H139419   1.438   2.351   0.278  0.4006 -0.2667  0.7907
 5976TIP3    H239420   1.349   2.473   0.276 -0.2468 -0.7441  0.0988
 5977TIP3   OH239421   3.147   6.641   0.451 -0.0108 -0.0726 -0.2809
 5977TIP3    H139422   3.211   6.712   0.453  1.0640 -1.0193  0.0986
 5977TIP3    H239423   3.146   6.613   0.359  0.0287  0.0187 -0.3096
 5978TIP3   OH239424   4.044   5.360  17.114  0.0006  0.2572 -0.2684
 5978TIP3    H139425   3.960   5.326  17.144  0.1217  0.1686 -0.0367
 5978TIP3    H239426   4.033   5.455  17.114 -0.9601  0.2146 -2.6412
 5979TIP3   OH239427   0.078   3.816  16.115  0.0690 -0.1336  0.1455
 5979TIP3    H139428   0.047   3.812  16.206  2.0806  0.2411  0.9003
 5979TIP3    H239429   0.049   3.733  16.077 -2.4198  0.4609  0.5083
 5980TIP3   OH239430   6.691   3.269  12.932  0.7109 -0.1040 -0.3893
 5980TIP3    H139431   6.692   3.295  13.024  1.9817 -0.0075 -0.4128
 5980TIP3    H239432   6.671   3.349  12.884 -2.3419 -0.5726 -0.1363
 5981TIP3   OH239433   0.632   4.664  12.400 -0.7536 -0.5838  0.4440
 5981TIP3    H139434   0.656   4.735  12.460 -0.2527  1.0947 -1.6164
 5981TIP3    H239435   0.627   4.706  12.314 -0.6095 -3.0402 -0.8577
 5982TIP3   OH239436   2.635   6.477   0.970 -0.1249  0.0280 -0.1045
 5982TIP3    H139437   2.551   6.481   0.925 -0.9550  1.0903  1.4548
 5982TIP3    H239438   2.700   6.487   0.900 -1.2680 -0.5846 -1.3103
 5983TIP3   OH239439   1.866   1.744   0.979  0.2902 -0.1400  0.1507
 5983TIP3    H139440   1.885   1.830   1.016  0.2365 -0.2844  0.5175
 5983TIP3    H239441   1.873   1.757   0.884  0.3871  0.2419  0.2069
 5984TIP3   OH239442   6.350   5.897   0.293 -0.0883 -0.6734  0.3987
 5984TIP3    H139443   6.425   5.838   0.289 -0.3028 -0.9805  0.7722
 5984TIP3    H239444   6.288   5.861   0.228 -0.0295 -0.5839  0.2919
 5985TIP3   OH239445   5.411   2.376  14.292 -0.3399  0.3717  0.0436
 5985TIP3    H139446   5.341   2.405  14.350 -0.5027  0.8628 -0.3871
 5985TIP3    H239447   5.490   2.385  14.344 -0.1860  2.9513 -0.4593
 5986TIP3   OH239448   1.509   5.491   1.023  0.3672  0.3054  0.4324
 5986TIP3    H139449   1.589   5.537   0.998  0.2829  0.5261  0.5607
 5986TIP3    H239450   1.450   5.502   0.948 -1.1316  3.8578  1.9218
 5987TIP3   OH239451   3.276   4.811  14.480 -0.0845 -0.5339  0.9604
 5987TIP3    H139452   3.298   4.720  14.496  1.7836 -0.4785 -0.9177
 5987TIP3    H239453   3.234   4.811  14.394 -0.2845  0.3525  1.0469
 5988TIP3   OH239454   4.928   5.123   1.162 -0.2942  0.0514 -0.3050
 5988TIP3    H139455   4.966   5.046   1.205 -1.0305  0.4164  1.0262
 5988TIP3    H239456   4.844   5.092   1.129 -1.1819  0.5759  1.3598
 5989TIP3   OH239457   6.250   1.475  17.160 -0.4478  0.1398 -0.2003
 5989TIP3    H139458   6.259   1.570  17.148 -0.3626  0.1751  0.1225
 5989TIP3    H239459   6.216   1.443  17.076 -0.5670  0.4680 -0.2797
 5990TIP3   OH239460   6.798   4.900   3.747 -0.5292  0.9339 -0.4939
 5990TIP3    H139461   6.855   4.827   3.773  0.5130  1.4917 -1.1585
 5990TIP3    H239462   6.733   4.860   3.690 -0.5561  0.3641 -0.0817
 5991TIP3   OH239463   4.886   5.023   1.531  0.1854  0.5081  0.0947
 5991TIP3    H139464   4.808   5.035   1.477 -1.4954 -0.4829  2.1398
 5991TIP3    H239465   4.921   5.112   1.544 -0.7156  0.9895 -0.6752
 5992TIP3   OH239466   1.403   0.082   0.505 -0.4249  0.1428 -0.3800
 5992TIP3    H139467   1.488   0.076   0.549 -0.3321 -0.7280 -0.6506
 5992TIP3    H239468   1.341   0.102   0.575 -0.1218 -0.1024 -0.0384
 5993TIP3   OH239469   1.608   0.142  10.903 -0.1093  0.2524  0.1883
 5993TIP3    H139470   1.672   0.201  10.863  0.1263  0.4054  0.7840
 5993TIP3    H239471   1.569   0.193  10.974 -0.2345 -0.1512  0.4117
 5994TIP3   OH239472   0.095   4.282   4.827  0.1817  0.1193 -0.1451
 5994TIP3    H139473   0.064   4.246   4.744 -1.9748  0.2973  0.5324
 5994TIP3    H239474   0.191   4.279   4.820  0.0626 -2.0691 -1.6553
 5995TIP3   OH239475   4.396   2.609   2.413  0.2113 -0.6927  0.3346
 5995TIP3    H139476   4.363   2.696   2.391 -1.7643 -1.2302  0.9502
 5995TIP3    H239477   4.452   2.586   2.339 -0.0662  0.6650 -0.3485
 5996TIP3   OH239478   6.596   4.142  15.929 -0.0815  0.0214  0.7077
 5996TIP3    H139479   6.657   4.069  15.936 -0.7637 -0.8782 -1.6939
 5996TIP3    H239480   6.510   4.104  15.948 -0.6295 -0.2333 -1.8608
 5997TIP3   OH239481   3.066   0.484   1.271  0.0685 -0.1398  0.2928
 5997TIP3    H139482   3.122   0.430   1.325 -0.2686  1.7429  2.6807
 5997TIP3    H239483   3.106   0.481   1.184  0.8507 -2.9390  0.6579
 5998TIP3   OH239484   1.007   5.513  10.965  0.7562  0.0283  0.5379
 5998TIP3    H139485   0.998   5.469  10.881 -1.7021  0.3580  0.5602
 5998TIP3    H239486   0.958   5.458  11.026  0.1187  1.2321  1.1538
 5999TIP3   OH239487   4.921   3.842  11.246  0.3832 -0.1092 -0.1493
 5999TIP3    H139488   4.931   3.809  11.335 -0.9916  3.2041  1.4170
 5999TIP3    H239489   4.990   3.908  11.237  0.2177 -0.0787 -1.3728
 6000TIP3   OH239490   4.800   6.591  12.603 -0.0319 -0.1145 -0.1930
 6000TIP3    H139491   4.872   6.654  12.609 -0.2213  0.0437  0.5817
 6000TIP3    H239492   4.827   6.530  12.535  0.0846  0.8972 -1.0819
 6001TIP3   OH239493   5.595   6.174   3.945 -0.0870 -0.2577 -0.1314
 6001TIP3    H139494   5.503   6.185   3.919  0.2938  0.0956 -1.4009
 6001TIP3    H239495   5.613   6.251   3.999  0.8153  2.5325 -3.9749
 6002TIP3   OH239496   1.526   5.913  15.351  0.2627  0.2780  0.3097
 6002TIP3    H139497   1.434   5.927  15.327  0.7948  1.7936 -1.0287
 6002TIP3    H239498   1.522   5.877  15.439 -1.6226  0.2188  0.2510
 6003TIP3   OH239499   1.480   6.563   2.279 -0.0827 -0.5692  0.6492
 6003TIP3    H139500   1.565   6.604   2.261 -0.1229  0.4483  2.4722
 6003TIP3    H239501   1.501   6.487   2.333 -0.0778 -2.6586 -2.1101
 6004TIP3   OH239502   0.898   2.871  13.638  0.1462 -0.0392 -0.3580
 6004TIP3    H139503   0.900   2.936  13.568 -0.8674  2.8450  2.1088
 6004TIP3    H239504   0.807   2.841  13.640 -0.3242  1.3733  0.9161
 6005TIP3   OH239505   5.314   2.786  16.469 -0.5635 -0.3385  0.3536
 6005TIP3    H139506   5.277   2.844  16.402  2.4477  4.1679  2.0918
 6005TIP3    H239507   5.271   2.813  16.551  2.2766  1.1412  1.5168
 6006TIP3   OH239508   5.817   2.030   0.754 -0.6854 -0.3780  0.0447
 6006TIP3    H139509   5.787   2.035   0.663  2.2352 -0.1520 -1.0084
 6006TIP3    H239510   5.806   2.119   0.788  1.4901  0.5102 -1.3302
 6007TIP3   OH239511   3.547   1.007  12.273  0.4183  0.2707  0.4941
 6007TIP3    H139512   3.552   0.978  12.182 -0.1252  0.0771  0.5245
 6007TIP3    H239513   3.614   1.075  12.281  0.9202 -0.1768  0.1214
 6008TIP3   OH239514   4.364   3.358   1.698  0.2354  0.2182  0.2297
 6008TIP3    H139515   4.357   3.444   1.657 -0.0102  0.3574  0.5489
 6008TIP3    H239516   4.341   3.374   1.790  1.8681  0.1159  0.6817
 6009TIP3   OH239517   0.025   2.812  15.764 -0.6631 -0.2889 -0.1004
 6009TIP3    H139518  -0.022   2.893  15.741 -0.8593  0.0239  1.3429
 6009TIP3    H239519   0.099   2.810  15.702 -1.0192  0.6479 -0.5879
 6010TIP3   OH239520   1.741   3.588  12.712  0.1541 -0.0204 -0.1309
 6010TIP3    H139521   1.827   3.551  12.731  0.0626 -1.3237 -1.9233
 6010TIP3    H239522   1.681   3.539  12.767  0.5808  1.6183  1.9374
 6011TIP3   OH239523   1.116   3.484   5.264 -0.4943 -0.6376 -0.3069
 6011TIP3    H139524   1.069   3.545   5.320  0.2027  0.1898 -0.6135
 6011TIP3    H239525   1.105   3.399   5.308 -0.2578 -0.0706  0.9033
 6012TIP3   OH239526   6.017   0.025   4.336 -0.2535 -0.0601 -0.1151
 6012TIP3    H139527   5.928   0.037   4.367 -0.5165 -1.3856 -0.3035
 6012TIP3    H239528   6.033  -0.069   4.342  1.2076  0.1670  0.1012
 6013TIP3   OH239529   4.001   0.499   1.440 -0.1103 -0.0693  0.7566
 6013TIP3    H139530   4.071   0.476   1.501  0.6971  1.0350  0.2688
 6013TIP3    H239531   3.924   0.511   1.496  0.4280  0.1264  1.4648
 6014TIP3   OH239532   5.537   0.755   5.431 -0.0270 -0.2446  0.4467
 6014TIP3    H139533   5.531   0.842   5.469 -2.7292  0.0034 -0.3364
 6014TIP3    H239534   5.461   0.708   5.464  0.8206 -2.0013  0.0644
 6015TIP3   OH239535   1.017   4.843  12.538 -0.1460  0.2477 -0.4524
 6015TIP3    H139536   1.106   4.875  12.529 -0.3830  1.3404  0.8103
 6015TIP3    H239537   1.027   4.756  12.576  0.3785  0.9466  1.1156
 6016TIP3   OH239538   0.707   2.273  14.581 -0.5177 -0.2407 -0.1484
 6016TIP3    H139539   0.712   2.342  14.515  1.1857 -0.8327 -0.6976
 6016TIP3    H239540   0.624   2.229  14.564 -0.8786  0.6869 -0.8114
 6017TIP3   OH239541   3.925   0.999  15.512 -0.2092  0.2064  0.6435
 6017TIP3    H139542   3.894   0.992  15.422  0.1215  0.2677  0.5208
 6017TIP3    H239543   3.899   0.917  15.553  0.5024 -0.2436  0.2157
 6018TIP3   OH239544   3.522   5.817   6.308 -0.3393 -0.5388  0.4003
 6018TIP3    H139545   3.485   5.902   6.286 -1.2263 -0.8185  0.7486
 6018TIP3    H239546   3.592   5.836   6.371  1.2468  0.1362 -1.4721
 6019TIP3   OH239547   4.675   5.116  11.667  0.5702  0.0462 -0.2921
 6019TIP3    H139548   4.676   5.027  11.630 -0.4980  0.7062 -1.9994
 6019TIP3    H239549   4.723   5.107  11.750  1.2942 -1.9273 -0.8515
 6020TIP3   OH239550   1.840   1.554  12.626  0.4833  0.0658 -0.1852
 6020TIP3    H139551   1.835   1.490  12.555  1.6692 -0.1326 -0.1174
 6020TIP3    H239552   1.932   1.581  12.627  0.0884  1.4722  0.0582
 6021TIP3   OH239553   6.708   4.197   0.218  0.7138 -0.4490  0.2819
 6021TIP3    H139554   6.777   4.130   0.213  1.3828  0.2415  0.0509
 6021TIP3    H239555   6.637   4.155   0.266  1.4214 -1.0694  0.8106
 6022TIP3   OH239556   3.191   1.026  17.251  0.1128 -0.0131  0.0953
 6022TIP3    H139557   3.217   1.106  17.296 -1.5744  1.1418 -0.9099
 6022TIP3    H239558   3.241   1.027  17.169  0.0566  0.0216  0.0622
 6023TIP3   OH239559   4.365   2.569  14.828  0.0123 -0.2965 -0.3012
 6023TIP3    H139560   4.339   2.657  14.801 -0.6035 -0.0195  1.0816
 6023TIP3    H239561   4.287   2.515  14.810  0.3519 -0.5498 -1.0473
 6024TIP3   OH239562   6.306   4.195  15.511 -0.3697  0.6727 -0.6482
 6024TIP3    H139563   6.260   4.237  15.584 -1.7722 -1.5989 -0.1226
 6024TIP3    H239564   6.274   4.105  15.511  1.1749  0.0385 -2.7932
 6025TIP3   OH239565   5.374   3.204  15.686 -0.4471 -0.1252 -0.4811
 6025TIP3    H139566   5.284   3.236  15.685 -0.7562 -0.9261  0.2965
 6025TIP3    H239567   5.404   3.221  15.776  0.1622  0.0669 -0.7134
 6026TIP3   OH239568   1.645   1.770  10.889 -0.1592 -0.6289 -0.7747
 6026TIP3    H139569   1.554   1.783  10.917  0.8433  0.9949  2.2637
 6026TIP3    H239570   1.689   1.737  10.968  2.1104 -0.1770 -1.7771
 6027TIP3   OH239571   4.030   3.420  14.475 -0.2624  0.0145 -0.2169
 6027TIP3    H139572   4.097   3.464  14.423  1.1188  0.5332  1.8749
 6027TIP3    H239573   3.960   3.485  14.483  0.2474  0.5541 -0.0594
 6028TIP3   OH239574   2.913   5.659   2.233  0.5300 -0.4330 -0.4472
 6028TIP3    H139575   2.843   5.714   2.197 -0.4796 -1.1856  0.2947
 6028TIP3    H239576   2.873   5.572   2.238  1.2127 -0.6795  0.8812
 6029TIP3   OH239577   1.264   3.726  13.711 -0.1431 -0.4891 -0.0857
 6029TIP3    H139578   1.262   3.797  13.647  0.4953 -1.1182 -0.8241
 6029TIP3    H239579   1.338   3.747  13.768 -0.4183 -0.1760  0.1579
 6030TIP3   OH239580   2.174   1.905  12.575  0.3472  0.6557 -0.2111
 6030TIP3    H139581   2.172   1.986  12.625 -1.0074  0.8888 -0.6047
 6030TIP3    H239582   2.128   1.925  12.494  1.8730  0.0806 -1.2796
 6031TIP3   OH239583   5.836   3.615  11.388 -0.4697 -0.2153  0.5877
 6031TIP3    H139584   5.910   3.629  11.447  0.2562 -0.4673 -0.2362
 6031TIP3    H239585   5.835   3.692  11.332  0.0111 -0.8025 -0.2597
 6032TIP3   OH239586   3.614   4.217   5.258 -0.6819 -0.2162 -0.4338
 6032TIP3    H139587   3.677   4.212   5.330 -2.2682  1.8366  1.2172
 6032TIP3    H239588   3.636   4.298   5.212 -1.2388 -0.1985 -0.6781
 6033TIP3   OH239589   4.239   1.602   3.938 -0.2206 -0.5076 -0.3036
 6033TIP3    H139590   4.177   1.669   3.908 -0.6882 -0.4776  0.6684
 6033TIP3    H239591   4.220   1.593   4.032 -0.2106 -2.0446 -0.4323
 6034TIP3   OH239592   2.042   3.522   5.888 -0.2555  0.0073  0.3305
 6034TIP3    H139593   2.127   3.563   5.869 -0.1606  0.8495  2.3601
 6034TIP3    H239594   2.054   3.430   5.861  1.9107 -0.3161  2.0833
 6035TIP3   OH239595   4.985   0.643   4.509 -0.6691 -0.6661 -0.0153
 6035TIP3    H139596   5.073   0.629   4.544 -1.9110 -1.9472  2.9916
 6035TIP3    H239597   4.974   0.738   4.509  0.6135 -0.4968 -0.2726
 6036TIP3   OH239598   1.746   0.534  12.330 -0.1271  0.3721  0.1998
 6036TIP3    H139599   1.792   0.453  12.352  0.6760  0.8706  0.4135
 6036TIP3    H239600   1.687   0.550  12.404  0.0102  0.1962  0.3478
 6037TIP3   OH239601   3.810   2.065   3.573 -0.2649  0.2631 -0.6651
 6037TIP3    H139602   3.794   2.057   3.667  1.6163 -1.3788 -0.4128
 6037TIP3    H239603   3.843   2.154   3.562 -1.5961  0.8793  0.0036
 6038TIP3   OH239604   0.824   1.916   1.259  0.1313  0.2806 -0.3759
 6038TIP3    H139605   0.799   1.850   1.324  0.0541 -1.1432 -1.7904
 6038TIP3    H239606   0.741   1.949   1.226  0.1273  2.5025  1.6089
 6039TIP3   OH239607   5.981   0.342  10.706  0.6265  0.6733 -0.4112
 6039TIP3    H139608   6.010   0.286  10.778 -0.0002  1.6628  0.6358
 6039TIP3    H239609   5.922   0.405  10.747  0.6379  1.5644 -1.7168
 6040TIP3   OH239610   6.012   2.794   5.536 -0.1459 -0.3161  0.0067
 6040TIP3    H139611   6.026   2.880   5.574 -1.9507 -0.5451  1.3164
 6040TIP3    H239612   5.946   2.809   5.467  0.1627 -0.5301 -0.3412
 6041TIP3   OH239613   3.237   2.446   3.003  0.4708  0.2714 -0.0082
 6041TIP3    H139614   3.236   2.355   3.031 -1.4670 -0.2346 -1.4637
 6041TIP3    H239615   3.145   2.466   2.983  0.7949  2.6490  0.5598
 6042TIP3   OH239616   5.620   0.199   2.490 -0.6880 -0.6582 -0.5534
 6042TIP3    H139617   5.579   0.275   2.448 -1.3254 -1.7188 -1.9402
 6042TIP3    H239618   5.673   0.159   2.421  3.5901  1.1352  1.3595
 6043TIP3   OH239619   4.275   1.754  15.878  0.5469 -0.4417  0.3190
 6043TIP3    H139620   4.228   1.697  15.818  0.9139 -0.6398  0.2174
 6043TIP3    H239621   4.218   1.762  15.954  0.1941 -0.3955  0.0514
 6044TIP3   OH239622   3.377   0.894  13.330 -0.9932 -0.0579 -0.2981
 6044TIP3    H139623   3.321   0.862  13.401 -0.3630 -1.5612 -0.4361
 6044TIP3    H239624   3.361   0.988  13.327 -0.6604  0.1416  2.1927
 6045TIP3   OH239625   0.845   6.799   3.850  0.3364 -0.0021  0.1133
 6045TIP3    H139626   0.880   6.712   3.868  0.6141  0.0937  0.0448
 6045TIP3    H239627   0.769   6.783   3.794 -1.6125 -0.4389  2.7063
 6046TIP3   OH239628   3.425   3.325   0.574  0.5065 -0.1501 -0.2526
 6046TIP3    H139629   3.495   3.386   0.598 -2.1134  2.1460  2.3351
 6046TIP3    H239630   3.374   3.371   0.508  0.0795 -0.7450 -0.3506
 6047TIP3   OH239631   3.160   4.400  13.016  0.2317 -0.0342  0.0413
 6047TIP3    H139632   3.254   4.411  13.028  0.1263  0.2085  0.7054
 6047TIP3    H239633   3.123   4.486  13.037 -0.2593 -0.5296  1.3604
 6048TIP3   OH239634   3.947   3.678   2.207 -0.5021 -0.1933 -0.0267
 6048TIP3    H139635   3.883   3.655   2.139  0.4156 -0.0148 -0.9774
 6048TIP3    H239636   3.913   3.636   2.286 -1.0501 -1.3085 -0.8101
 6049TIP3   OH239637   5.674   1.266   0.288  0.8065 -0.3309 -0.3721
 6049TIP3    H139638   5.707   1.248   0.200  0.3437  1.0450 -0.8655
 6049TIP3    H239639   5.613   1.195   0.307 -0.2880  0.1632 -1.8407
 6050TIP3   OH239640   0.109   6.457   4.852 -0.0075  0.1231 -0.2633
 6050TIP3    H139641   0.090   6.547   4.879 -0.5999  0.6632 -2.3277
 6050TIP3    H239642   0.046   6.405   4.902 -0.0640  0.8998  0.5157
 6051TIP3   OH239643   1.935   3.278  11.855  0.3435  0.2485 -1.2136
 6051TIP3    H139644   2.021   3.259  11.815  0.3899 -0.4658 -0.7867
 6051TIP3    H239645   1.955   3.291  11.948  0.1124  1.0392 -1.2680
 6052TIP3   OH239646   3.931   1.307   5.132 -0.4530 -0.2042  0.2636
 6052TIP3    H139647   3.990   1.301   5.058  0.3238 -1.3955  0.9593
 6052TIP3    H239648   3.897   1.218   5.144 -0.3840 -0.0834  1.4715
 6053TIP3   OH239649   3.951   5.187   5.373 -0.1121 -0.5349 -0.5077
 6053TIP3    H139650   4.020   5.241   5.333  1.8768 -2.3209  0.2988
 6053TIP3    H239651   3.918   5.241   5.445  1.5316 -0.1357  0.0154
 6054TIP3   OH239652   5.160   6.589  15.900 -0.0571  0.5079  0.4220
 6054TIP3    H139653   5.081   6.626  15.938 -0.5830  0.4246 -0.5714
 6054TIP3    H239654   5.171   6.504  15.943 -1.1889 -0.0181 -0.2921
 6055TIP3   OH239655   2.238   1.366   4.684 -0.0667 -1.2160  0.1929
 6055TIP3    H139656   2.326   1.359   4.722 -0.2330  1.9899  1.4753
 6055TIP3    H239657   2.204   1.276   4.687  2.4375 -2.2270  1.4615
 6056TIP3   OH239658   3.249   4.606  14.782 -0.3146  0.7314 -0.1896
 6056TIP3    H139659   3.337   4.602  14.744 -0.2094 -0.3947  0.1422
 6056TIP3    H239660   3.262   4.589  14.875 -1.0036 -0.6563 -0.3266
 6057TIP3   OH239661   0.753   3.451  14.801 -0.1795  0.5247 -0.7384
 6057TIP3    H139662   0.759   3.423  14.893  3.3622  2.3302 -0.2452
 6057TIP3    H239663   0.819   3.399  14.756 -0.8362  0.7485 -1.9862
 6058TIP3   OH239664   5.354   3.053  13.881  0.5745 -0.2090  0.7534
 6058TIP3    H139665   5.284   3.020  13.937 -1.1745  1.0368 -0.5922
 6058TIP3    H239666   5.348   3.001  13.801 -0.2254  1.2619 -0.1872
 6059TIP3   OH239667   3.889   1.496  16.729 -0.6222 -0.1382  0.0955
 6059TIP3    H139668   3.880   1.523  16.820  0.2020  1.5491 -0.2961
 6059TIP3    H239669   3.917   1.404  16.734 -0.1075  0.0758  1.5475
 6060TIP3   OH239670   5.373   6.696   1.495 -0.2567  0.2634 -0.5224
 6060TIP3    H139671   5.315   6.740   1.557 -3.1431 -1.8430 -1.5232
 6060TIP3    H239672   5.385   6.758   1.424  1.7417  2.0662  1.2271
 6061TIP3   OH239673   3.277   1.755  17.181  0.0442  0.0243 -0.1517
 6061TIP3    H139674   3.335   1.730  17.252 -0.5291 -0.4833  0.1537
 6061TIP3    H239675   3.324   1.731  17.101 -0.1571 -1.3189  0.1147
 6062TIP3   OH239676   2.673   0.419  13.463 -0.1283 -0.6521 -0.6098
 6062TIP3    H139677   2.612   0.490  13.441  0.5493 -0.4216 -1.8063
 6062TIP3    H239678   2.723   0.454  13.537 -1.6345 -0.9804  0.6312
 6063TIP3   OH239679   2.841   0.404  11.920  0.3431  0.3356 -0.1285
 6063TIP3    H139680   2.932   0.423  11.943  1.2119 -1.1474 -2.0686
 6063TIP3    H239681   2.795   0.403  12.003  2.4868 -0.7723  1.1279
 6064TIP3   OH239682   5.529   4.347   4.190  0.1085  1.0774  0.1214
 6064TIP3    H139683   5.545   4.266   4.239 -0.9369  0.9787  0.3273
 6064TIP3    H239684   5.560   4.417   4.248 -1.5394  0.9946  1.1784
 6065TIP3   OH239685   1.875   1.080  13.053  0.4476 -0.4271 -0.1454
 6065TIP3    H139686   1.890   1.163  13.008 -0.5109 -0.7508 -1.1138
 6065TIP3    H239687   1.908   1.014  12.994  2.2944 -0.7156  1.1322
 6066TIP3   OH239688   0.634   5.574   0.465  0.2099  0.5430  0.0209
 6066TIP3    H139689   0.576   5.622   0.524  0.6634 -0.3008  1.1880
 6066TIP3    H239690   0.717   5.620   0.471 -0.1420  1.3515 -1.1333
 6067TIP3   OH239691   6.402   6.278   4.622 -0.5429 -0.6955  0.1048
 6067TIP3    H139692   6.395   6.342   4.692  1.6281 -1.6238  1.2533
 6067TIP3    H239693   6.318   6.231   4.625 -1.6820  1.2322  0.0249
 6068TIP3   OH239694   4.424   4.349  12.290 -0.1461  0.1171  0.1352
 6068TIP3    H139695   4.391   4.301  12.366  1.1179  0.7606  1.1265
 6068TIP3    H239696   4.463   4.428  12.327  1.5294 -0.0991 -1.0754
 6069TIP3   OH239697   6.535   6.216   3.773  0.0906  0.2848 -0.1620
 6069TIP3    H139698   6.541   6.152   3.702 -1.6227 -0.0476 -0.0299
 6069TIP3    H239699   6.623   6.217   3.811  0.8257 -0.1212 -1.7584
 6070TIP3   OH239700   6.763   3.397  17.185  0.1180  0.2639 -0.0402
 6070TIP3    H139701   6.677   3.428  17.212  0.0335  0.6629 -0.7555
 6070TIP3    H239702   6.746   3.311  17.145  0.1084  0.1516  0.2044
 6071TIP3   OH239703   2.560   4.319   2.162 -0.1332  0.1832  0.2310
 6071TIP3    H139704   2.503   4.242   2.165  0.7126 -0.4280  1.3156
 6071TIP3    H239705   2.515   4.380   2.102 -0.9404 -1.0353 -0.4503
 6072TIP3   OH239706   1.050   5.932  17.282 -0.1847 -0.5545 -0.2468
 6072TIP3    H139707   1.044   5.937  17.187 -3.1230 -2.3980 -0.2782
 6072TIP3    H239708   0.998   6.006  17.314  0.7019 -0.0046 -0.0525
 6073TIP3   OH239709   0.316   6.237  12.921 -0.1284 -0.3133  0.7817
 6073TIP3    H139710   0.276   6.160  12.962 -0.9214 -0.4881 -0.2925
 6073TIP3    H239711   0.321   6.216  12.828  1.7995  0.0129  0.7666
 6074TIP3   OH239712   4.544   1.611  10.673  0.5025 -0.1661  0.2927
 6074TIP3    H139713   4.631   1.571  10.676  1.5121  1.7943 -0.7107
 6074TIP3    H239714   4.554   1.694  10.719 -1.1328 -0.3287  1.0200
 6075TIP3   OH239715   3.900   0.186  15.372 -0.3369 -0.7628  0.7501
 6075TIP3    H139716   3.864   0.136  15.298  0.5311  0.8541 -0.8410
 6075TIP3    H239717   3.826   0.194  15.432 -1.0394 -2.2420  0.1560
 6076TIP3   OH239718   0.567   6.228  14.427 -0.6203  0.6675  0.2380
 6076TIP3    H139719   0.638   6.287  14.403 -0.1775 -0.1669 -0.5600
 6076TIP3    H239720   0.521   6.212  14.345 -0.9938  0.2371  0.5316
 6077TIP3   OH239721   3.261   5.138  15.390 -0.2919  0.0423  0.3796
 6077TIP3    H139722   3.200   5.190  15.338 -0.6359 -0.1810  0.5517
 6077TIP3    H239723   3.322   5.101  15.326  0.0051  0.7151  0.2685
 6078TIP3   OH239724   6.039   3.906  12.905 -0.5894  0.4056  0.0020
 6078TIP3    H139725   6.064   3.814  12.899 -3.5454 -0.4634 -0.6850
 6078TIP3    H239726   6.038   3.936  12.814  0.0493  1.0496  0.2006
 6079TIP3   OH239727   3.986   0.598   5.928 -0.4215 -0.5157  0.2137
 6079TIP3    H139728   4.045   0.522   5.932  0.6892  0.1440 -2.1899
 6079TIP3    H239729   4.027   0.663   5.985  0.5959 -0.4730 -0.5443
 6080TIP3   OH239730   4.151   3.439  16.683  0.1102 -0.4200 -0.1137
 6080TIP3    H139731   4.195   3.410  16.763  0.0683  0.5907  0.2977
 6080TIP3    H239732   4.149   3.362  16.627 -0.3022 -1.3009  1.0582
 6081TIP3   OH239733   2.668   0.540   1.689  0.0396 -0.4793 -0.3298
 6081TIP3    H139734   2.740   0.525   1.628  0.8770 -0.5747  0.6805
 6081TIP3    H239735   2.654   0.455   1.732 -0.2915 -0.3081 -0.0938
 6082TIP3   OH239736   2.891   4.662   5.978 -0.4809 -0.1530  0.3418
 6082TIP3    H139737   2.976   4.705   5.963  0.6016 -1.7221  1.5577
 6082TIP3    H239738   2.832   4.733   6.003  0.4611  0.9831 -0.5509
 6083TIP3   OH239739   6.543   4.668  17.018  0.4480 -0.6874 -0.1100
 6083TIP3    H139740   6.605   4.722  17.067  2.8798 -2.0388 -1.5480
 6083TIP3    H239741   6.489   4.626  17.085  0.6268  1.0152  1.1532
 6084TIP3   OH239742   5.709   2.685  15.868  0.1343  0.0576  0.5021
 6084TIP3    H139743   5.674   2.691  15.957 -1.6601 -0.6950 -0.0999
 6084TIP3    H239744   5.684   2.768  15.827  0.5159  0.1901  0.5272
 6085TIP3   OH239745   1.570   1.016  17.301 -0.4560 -0.4935 -0.2704
 6085TIP3    H139746   1.648   0.964  17.321 -2.0238 -2.7759  0.3840
 6085TIP3    H239747   1.579   1.039  17.208  1.5257  0.3347  0.0964
 6086TIP3   OH239748   2.179   0.583   1.068 -0.3507  0.5750  0.0200
 6086TIP3    H139749   2.214   0.629   0.992 -0.4466  1.2589  0.3794
 6086TIP3    H239750   2.239   0.607   1.139 -0.3950  0.1288  0.2083
 6087TIP3   OH239751   2.610   4.260  11.340 -0.2107 -0.2269 -0.0952
 6087TIP3    H139752   2.637   4.224  11.425  0.7310 -1.7583 -0.9918
 6087TIP3    H239753   2.532   4.210  11.317 -0.6590  0.4179  0.0126
 6088TIP3   OH239754   6.512   4.377   0.101  0.3986  1.0893 -0.4359
 6088TIP3    H139755   6.563   4.318   0.046  1.1845 -0.0058  1.3886
 6088TIP3    H239756   6.542   4.464   0.077 -0.4197  0.7848 -2.8171
 6089TIP3   OH239757   3.289   5.895   1.981 -0.2659  0.1137  0.1176
 6089TIP3    H139758   3.236   5.956   2.034 -0.8582 -0.0406 -0.2893
 6089TIP3    H239759   3.365   5.947   1.954 -1.3245  1.0421 -1.1856
 6090TIP3   OH239760   0.181   6.708  14.759 -0.2857 -0.1966 -0.6544
 6090TIP3    H139761   0.151   6.652  14.687 -0.1830  1.2560 -1.8944
 6090TIP3    H239762   0.242   6.654  14.808 -2.5407 -2.2224  0.1249
 6091TIP3   OH239763   2.317   1.436   4.332  0.5339 -0.4731  0.2325
 6091TIP3    H139764   2.375   1.492   4.383  0.3936  1.5487 -1.6596
 6091TIP3    H239765   2.334   1.461   4.241 -0.6581 -2.4806 -0.6158
 6092TIP3   OH239766   3.537   6.657   3.257 -0.4314  0.3586 -0.7229
 6092TIP3    H139767   3.556   6.678   3.348 -1.9053 -0.7083 -0.1365
 6092TIP3    H239768   3.621   6.666   3.213  0.1250  1.8307  0.5339
 6093TIP3   OH239769   3.704   0.328  16.089 -0.4715  0.2365  0.2408
 6093TIP3    H139770   3.671   0.377  16.013 -0.1130  0.0973 -0.0065
 6093TIP3    H239771   3.677   0.238  16.072  0.5910  0.0073 -0.2844
 6094TIP3   OH239772   6.033   0.918  11.946  0.3615  0.3873  0.0502
 6094TIP3    H139773   6.063   0.877  12.027  0.0147 -2.8012 -1.2801
 6094TIP3    H239774   6.097   0.891  11.880 -0.8224  0.5952 -1.2274
 6095TIP3   OH239775   4.081   5.314   2.088 -0.2687 -0.3813 -0.2140
 6095TIP3    H139776   4.131   5.363   2.023 -0.7210  1.0798  0.4900
 6095TIP3    H239777   4.107   5.223   2.075  1.7021  0.1932 -0.6123
 6096TIP3   OH239778   0.661   1.988   2.135  0.0631 -0.2518 -0.0753
 6096TIP3    H139779   0.642   1.969   2.044  0.5888  0.0350 -0.2468
 6096TIP3    H239780   0.614   2.070   2.153 -1.4227 -1.1651  0.3983
 6097TIP3   OH239781   5.714   4.612  14.225  0.1785  0.1117  0.3029
 6097TIP3    H139782   5.798   4.576  14.197  0.3341 -0.5066  1.5355
 6097TIP3    H239783   5.731   4.651  14.311 -0.9657 -0.7452  0.9453
 6098TIP3   OH239784   5.688   5.551   3.254 -0.7606  0.2511  0.7224
 6098TIP3    H139785   5.713   5.470   3.298 -1.4627 -0.7777 -0.7028
 6098TIP3    H239786   5.743   5.618   3.295 -0.6068 -0.8135  2.3732
 6099TIP3   OH239787   4.259   2.762   1.902 -0.5833  0.1513 -0.9916
 6099TIP3    H139788   4.245   2.852   1.873 -0.2839  0.9800  1.2372
 6099TIP3    H239789   4.333   2.768   1.962 -0.8841 -1.5013 -0.4197
 6100TIP3   OH239790   1.779   5.881  14.377 -0.6094 -0.0496 -0.1733
 6100TIP3    H139791   1.758   5.788  14.382  3.2029 -1.0519  0.0881
 6100TIP3    H239792   1.842   5.888  14.305 -0.1387  2.1696  0.3789
 6101TIP3   OH239793   2.005   5.911   0.595  0.0323  0.2025  0.0858
 6101TIP3    H139794   2.016   5.910   0.690  0.6002  1.5392  0.0676
 6101TIP3    H239795   2.013   6.004   0.572 -0.1491 -0.0994 -1.2595
 6102TIP3   OH239796   1.144   4.294  13.648  0.1351  0.0153 -0.4362
 6102TIP3    H139797   1.184   4.251  13.574  0.4974  0.9955 -0.8260
 6102TIP3    H239798   1.203   4.366  13.670 -1.4704  1.6655 -1.1950
 6103TIP3   OH239799   2.074   2.952   0.969  0.1166 -0.0242 -0.2206
 6103TIP3    H139800   2.039   2.863   0.964  0.4031 -0.3712  2.5528
 6103TIP3    H239801   2.153   2.949   0.916  0.0670 -1.3996 -0.2650
 6104TIP3   OH239802   6.435   2.679   5.355 -0.0638 -0.1410 -0.1218
 6104TIP3    H139803   6.524   2.643   5.359  0.1716  0.3643 -0.7242
 6104TIP3    H239804   6.447   2.773   5.358 -0.6728 -0.0762  1.2257
 6105TIP3   OH239805   2.584   4.941   2.981  0.4671 -0.1847  0.2641
 6105TIP3    H139806   2.658   4.899   3.025  0.0855  0.2108  1.2971
 6105TIP3    H239807   2.601   4.926   2.888  1.7511 -0.2523  0.4864
 6106TIP3   OH239808   1.459   1.787  16.928  0.0351  0.1899  0.3455
 6106TIP3    H139809   1.415   1.711  16.890 -1.4738  0.4498  1.4762
 6106TIP3    H239810   1.429   1.789  17.019  0.1971  2.0369  0.3937
 6107TIP3   OH239811   5.251   0.705   2.134  0.3747 -0.1499  0.2172
 6107TIP3    H139812   5.339   0.672   2.114  0.7212  0.2652  1.0096
 6107TIP3    H239813   5.241   0.691   2.228  0.0821  0.9595  0.3559
 6108TIP3   OH239814   2.640   6.269  16.427  0.2075 -0.0483 -0.2361
 6108TIP3    H139815   2.711   6.271  16.362  0.1453  0.6157 -0.2967
 6108TIP3    H239816   2.680   6.233  16.505  1.4540  2.9348  0.6530
 6109TIP3   OH239817   5.374   1.311  16.542  0.2927  0.1598  0.4754
 6109TIP3    H139818   5.452   1.365  16.528 -0.1185  0.3746 -1.2525
 6109TIP3    H239819   5.306   1.373  16.567 -0.2486  0.5602 -1.7756
 6110TIP3   OH239820   2.168   6.467   0.396  0.3229 -0.0489 -0.2704
 6110TIP3    H139821   2.144   6.534   0.460  1.3210  0.3580 -0.3066
 6110TIP3    H239822   2.217   6.515   0.328 -0.0109 -0.6094 -0.9197
 6111TIP3   OH239823   6.570   4.639   4.365  0.4415 -0.4395  0.5537
 6111TIP3    H139824   6.489   4.588   4.364 -0.3014  0.7012  0.1413
 6111TIP3    H239825   6.549   4.717   4.314  2.5135 -1.1644 -1.6062
 6112TIP3   OH239826   4.630   5.494   4.011  0.6544 -0.2596  0.0297
 6112TIP3    H139827   4.665   5.408   3.988  2.0626 -0.4139  2.3873
 6112TIP3    H239828   4.560   5.475   4.074  0.0151  0.3044 -0.4878
 6113TIP3   OH239829   2.192   3.504  14.594  0.1418  0.0930  0.7901
 6113TIP3    H139830   2.140   3.458  14.660  0.6413 -1.7830 -0.0479
 6113TIP3    H239831   2.178   3.454  14.514  0.1949  1.8386 -0.3575
 6114TIP3   OH239832   6.679   4.360   4.498  0.0440 -0.7686 -0.7983
 6114TIP3    H139833   6.724   4.439   4.469 -0.6271 -0.4258 -0.9463
 6114TIP3    H239834   6.625   4.335   4.423 -0.7682 -0.5853 -0.2858
 6115TIP3   OH239835   2.615   4.011   1.394 -0.0697 -0.0182  0.5171
 6115TIP3    H139836   2.525   4.023   1.364 -0.1013  2.5294  1.4094
 6115TIP3    H239837   2.661   3.974   1.318 -1.5110  0.1849 -0.4827
 6116TIP3   OH239838   3.329   4.203   6.200 -0.0085 -0.1459  0.4506
 6116TIP3    H139839   3.343   4.125   6.254 -0.7575 -0.7842 -0.2572
 6116TIP3    H239840   3.339   4.172   6.110  0.9546  0.8523  0.1945
 6117TIP3   OH239841   0.323   3.037  13.730 -0.0430 -0.1933  0.4602
 6117TIP3    H139842   0.275   2.997  13.658 -0.4061 -1.5379  1.3940
 6117TIP3    H239843   0.343   3.125  13.700 -0.1597 -0.7179 -1.2750
 6118TIP3   OH239844   0.909   1.896   2.215  0.2720 -0.1315  0.1132
 6118TIP3    H139845   0.835   1.943   2.178  0.8539  0.7772  0.0720
 6118TIP3    H239846   0.870   1.831   2.275 -0.5443  0.2908  0.0405
 6119TIP3   OH239847   5.510   5.183   0.199 -0.1081 -0.3171 -0.0803
 6119TIP3    H139848   5.567   5.154   0.128  2.7437  0.6229  1.6469
 6119TIP3    H239849   5.518   5.278   0.200 -0.2594 -0.2954  1.3576
 6120TIP3   OH239850   0.133   4.147   0.962 -0.1108 -0.5660  0.7191
 6120TIP3    H139851   0.050   4.176   0.923  1.1129  1.1309 -0.8338
 6120TIP3    H239852   0.115   4.139   1.055 -1.4943  1.9716  0.7594
 6121TIP3   OH239853   0.326   6.295  15.562  0.3616  0.3652 -0.4608
 6121TIP3    H139854   0.407   6.286  15.613  0.1287  0.6655 -0.0292
 6121TIP3    H239855   0.352   6.346  15.486  0.7829 -0.3602 -0.8141
 6122TIP3   OH239856   0.746   3.118  14.210 -0.6658  0.1700 -0.1317
 6122TIP3    H139857   0.706   3.148  14.291 -2.3187 -0.3725 -0.7169
 6122TIP3    H239858   0.676   3.120  14.146  0.2795 -0.6707 -1.2437
 6123TIP3   OH239859   3.770   2.672   4.222 -0.2391  0.0600 -0.0687
 6123TIP3    H139860   3.801   2.714   4.141  1.0259 -2.2246 -0.8590
 6123TIP3    H239861   3.847   2.667   4.277 -0.6160 -0.2885  0.4325
 6124TIP3   OH239862   3.090   0.233   1.817  0.3598 -0.2038 -0.0698
 6124TIP3    H139863   3.164   0.268   1.866  0.0980 -1.8576  1.5915
 6124TIP3    H239864   3.012   0.262   1.866  0.0495 -1.0293 -0.0611
 6125TIP3   OH239865   2.803   5.087  11.551  0.4386  0.6164  0.3668
 6125TIP3    H139866   2.784   4.993  11.552 -0.3300  0.7600  2.1258
 6125TIP3    H239867   2.851   5.100  11.469 -1.0674 -0.9806 -0.8520
 6126TIP3   OH239868   0.098   6.530   1.327 -0.0016 -0.2712  0.3500
 6126TIP3    H139869   0.175   6.558   1.278  0.6449 -0.3667  1.3000
 6126TIP3    H239870   0.095   6.435   1.314 -0.3040 -0.1960 -0.1651
 6127TIP3   OH239871   2.490   3.116   5.448 -0.4717  0.0788  0.2502
 6127TIP3    H139872   2.496   3.132   5.542 -2.9311 -1.4224  0.7771
 6127TIP3    H239873   2.400   3.140   5.426 -0.5333 -1.3912 -1.2886
 6128TIP3   OH239874   6.062   1.834   2.632 -0.1104  0.0313  0.0194
 6128TIP3    H139875   6.015   1.754   2.656 -0.3463  0.2900  0.4458
 6128TIP3    H239876   6.032   1.854   2.544 -1.8279  0.9077  0.7582
 6129TIP3   OH239877   1.434   6.141   5.985  0.5191 -0.6152  0.2734
 6129TIP3    H139878   1.435   6.052   5.949 -2.3219 -0.5493 -0.2273
 6129TIP3    H239879   1.372   6.137   6.057 -0.6689  1.1988 -0.5727
 6130TIP3   OH239880   1.412   0.857  14.096  0.2562  0.3099 -0.2556
 6130TIP3    H139881   1.342   0.794  14.080  1.1035 -1.1048  1.3467
 6130TIP3    H239882   1.403   0.879  14.189  2.1193 -0.1521  0.0652
 6131TIP3   OH239883   4.794   3.590  14.894 -0.6390 -0.1306 -0.8858
 6131TIP3    H139884   4.748   3.542  14.824 -1.2491  0.7349 -1.0865
 6131TIP3    H239885   4.876   3.618  14.853 -1.0078  0.4003 -1.2785
 6132TIP3   OH239886   1.021   2.297   1.261  0.2692  0.4135  0.9154
 6132TIP3    H139887   1.112   2.318   1.237  0.6208 -1.3910  0.4721
 6132TIP3    H239888   1.028   2.213   1.306 -1.2774 -0.3227 -0.1390
 6133TIP3   OH239889   3.402   2.012  14.583 -0.1130 -0.0524  0.3995
 6133TIP3    H139890   3.410   2.051  14.670  0.0111 -0.1110  0.4156
 6133TIP3    H239891   3.468   1.943  14.582  2.5469  2.3027 -1.0249
 6134TIP3   OH239892   5.128   2.699   0.893 -0.1166  0.1007 -0.3025
 6134TIP3    H139893   5.042   2.704   0.851  1.2851 -1.6802 -3.8142
 6134TIP3    H239894   5.130   2.611   0.930  0.7132 -0.5265 -1.7482
 6135TIP3   OH239895   1.523   2.228  16.843  0.1711  0.4241 -0.0231
 6135TIP3    H139896   1.524   2.312  16.889  0.3771  0.9656 -0.9807
 6135TIP3    H239897   1.601   2.230  16.787 -0.3391  0.0128 -0.7726
 6136TIP3   OH239898   2.996   2.014   4.719  0.0714 -0.2494  0.1757
 6136TIP3    H139899   2.919   2.065   4.744  1.6804  2.1724  0.5541
 6136TIP3    H239900   3.019   2.047   4.632  1.5850  0.3042  0.7398
 6137TIP3   OH239901   4.482   3.716   6.294 -0.0359  0.3663 -0.0235
 6137TIP3    H139902   4.551   3.749   6.236  0.9118 -0.5742  0.5312
 6137TIP3    H239903   4.529   3.682   6.370 -1.2605  1.8124  1.4537
 6138TIP3   OH239904   4.732   5.973  15.157 -0.0356 -0.2216  0.1641
 6138TIP3    H139905   4.778   5.891  15.141 -0.9765 -0.4672 -1.5541
 6138TIP3    H239906   4.651   5.948  15.201  0.3652 -0.0399  1.0210
 6139TIP3   OH239907   2.205   2.849  12.844  0.6626  0.6331 -0.9836
 6139TIP3    H139908   2.243   2.820  12.927  0.6861 -0.8661 -1.4836
 6139TIP3    H239909   2.196   2.769  12.792 -1.2057  1.2276 -1.6811
 6140TIP3   OH239910   4.684   4.620  12.923 -0.7272 -0.3734  0.1271
 6140TIP3    H139911   4.775   4.625  12.952 -0.6729  0.9417 -0.2313
 6140TIP3    H239912   4.661   4.709  12.899 -1.9753 -0.7700 -0.2368
 6141TIP3   OH239913   1.883   2.987  15.285 -0.0208  0.5416  0.6097
 6141TIP3    H139914   1.823   2.942  15.226 -0.9197  1.0479  1.1216
 6141TIP3    H239915   1.852   3.078  15.285  1.2312  0.9927  0.2692
 6142TIP3   OH239916   1.554   6.488   4.190 -0.0063 -0.3243  0.0120
 6142TIP3    H139917   1.528   6.554   4.254  0.1376  0.0460 -0.3076
 6142TIP3    H239918   1.543   6.531   4.105  0.3630 -0.6156 -0.1851
 6143TIP3   OH239919   2.358   0.470  11.834 -0.1686  0.1666  0.5363
 6143TIP3    H139920   2.335   0.511  11.917  0.5161 -1.2038  1.4417
 6143TIP3    H239921   2.437   0.516  11.805  0.4533 -0.3136  1.4221
 6144TIP3   OH239922   5.908   5.080  14.138  0.1763 -0.4890 -0.2724
 6144TIP3    H139923   5.853   5.004  14.115  0.6190 -0.9720  0.2410
 6144TIP3    H239924   5.846   5.144  14.172 -0.2520 -0.4694 -1.0676
 6145TIP3   OH239925   4.019   1.635   1.867 -0.5686 -0.5889  0.1656
 6145TIP3    H139926   4.006   1.717   1.914  1.2854  0.1252 -0.4860
 6145TIP3    H239927   3.973   1.647   1.784 -1.6747 -0.8608  0.7266
 6146TIP3   OH239928   0.169   2.840   0.226  0.6279 -0.4778  0.1540
 6146TIP3    H139929   0.117   2.820   0.304  0.2173  1.0469  0.2949
 6146TIP3    H239930   0.152   2.767   0.167 -0.3745 -0.8230  0.8401
 6147TIP3   OH239931   2.568   5.343   4.366  0.1768 -0.2946  0.2426
 6147TIP3    H139932   2.621   5.338   4.445 -1.3186  1.4769  1.4375
 6147TIP3    H239933   2.606   5.415   4.316 -0.6235  0.4944  0.7523
 6148TIP3   OH239934   0.446   1.781  16.044 -0.1410 -0.0572  0.3152
 6148TIP3    H139935   0.445   1.688  16.021  0.6109 -0.2544  1.0462
 6148TIP3    H239936   0.365   1.816  16.007  0.1718 -0.7304 -1.0592
 6149TIP3   OH239937   5.876   1.438  15.878 -0.3272  0.3970 -0.5486
 6149TIP3    H139938   5.855   1.347  15.858  1.3591 -0.1799  0.1454
 6149TIP3    H239939   5.907   1.475  15.795  2.3270 -0.7112 -0.1598
 6150TIP3   OH239940   0.490   0.092  12.185  0.6263  0.5191 -0.0632
 6150TIP3    H139941   0.477  -0.001  12.202 -0.3720  0.9101  1.5663
 6150TIP3    H239942   0.553   0.095  12.113 -0.3585 -1.4141 -1.0879
 6151TIP3   OH239943   6.117   0.913   1.504  0.2884 -0.2854  0.3350
 6151TIP3    H139944   6.054   0.879   1.441 -0.2115  0.6121  0.3320
 6151TIP3    H239945   6.180   0.842   1.516  0.3629 -0.4820 -1.1198
 6152TIP3   OH239946   0.373   3.659  11.387 -0.3189 -0.2487  0.0322
 6152TIP3    H139947   0.296   3.666  11.444 -1.7909  0.9197 -1.9686
 6152TIP3    H239948   0.375   3.568  11.360  0.1023 -0.7012  1.4813
 6153TIP3   OH239949   5.410   4.848  11.469  0.1427  0.1935  0.5315
 6153TIP3    H139950   5.457   4.918  11.516 -1.0819  1.1866  0.3362
 6153TIP3    H239951   5.319   4.877  11.468 -0.4650 -1.5935  0.7387
 6154TIP3   OH239952   1.621   5.593  13.092  0.4968 -0.0585 -0.1707
 6154TIP3    H139953   1.623   5.680  13.132  1.3580  0.1063 -0.5555
 6154TIP3    H239954   1.597   5.535  13.164 -0.7698  0.5636 -0.0607
 6155TIP3   OH239955   4.437   2.011   0.202 -0.5510 -0.5727 -0.4391
 6155TIP3    H139956   4.524   2.022   0.165 -0.6106  0.0647 -0.4023
 6155TIP3    H239957   4.378   2.050   0.137 -0.8221 -1.1264 -0.5302
 6156TIP3   OH239958   0.822   6.505   2.579 -0.2365  0.2817 -0.1222
 6156TIP3    H139959   0.851   6.464   2.660  0.1838 -1.6259 -1.1654
 6156TIP3    H239960   0.900   6.510   2.524 -0.2572  2.6372 -0.0383
 6157TIP3   OH239961   3.434   4.915  14.651 -0.2188  0.0020  0.1377
 6157TIP3    H139962   3.349   4.906  14.606  0.3052  1.9831 -1.4058
 6157TIP3    H239963   3.469   4.826  14.653 -1.1936 -0.4837 -1.6091
 6158TIP3   OH239964   4.707   2.807   5.193 -0.1150  0.3130 -0.2307
 6158TIP3    H139965   4.710   2.764   5.279 -0.7864 -2.6614 -1.5765
 6158TIP3    H239966   4.687   2.737   5.132  0.5113  2.3037 -2.8954
 6159TIP3   OH239967   2.657   4.717  16.735 -0.0721 -0.2215 -0.1694
 6159TIP3    H139968   2.697   4.802  16.722 -1.0591  0.5078  1.2668
 6159TIP3    H239969   2.644   4.682  16.647  0.0517  1.2562 -0.7971
 6160TIP3   OH239970   5.948   5.563  14.166 -0.0433  0.1820 -0.2317
 6160TIP3    H139971   5.992   5.596  14.245 -0.4386 -0.0000  0.0705
 6160TIP3    H239972   5.973   5.471  14.162 -1.3499 -0.2489  0.6355
 6161TIP3   OH239973   2.458   6.404  14.880 -0.0469  0.5266  0.0696
 6161TIP3    H139974   2.451   6.494  14.912 -0.7254  0.8488 -0.9553
 6161TIP3    H239975   2.369   6.370  14.887  0.2578 -0.1572  0.6910
 6162TIP3   OH239976   2.986   5.008   1.417 -0.1455 -0.3853  0.1459
 6162TIP3    H139977   2.972   5.007   1.512 -0.5007 -0.6953  0.0933
 6162TIP3    H239978   2.906   4.971   1.381  0.0861 -0.4933 -0.2645
 6163TIP3   OH239979   6.612   3.652   3.339 -0.2892 -0.0093 -0.5241
 6163TIP3    H139980   6.617   3.746   3.355  1.5510 -0.0621 -0.5850
 6163TIP3    H239981   6.519   3.634   3.329 -1.0552  1.2612  2.7959
 6164TIP3   OH239982   3.535   0.342  14.613 -0.2034  0.3331  0.6499
 6164TIP3    H139983   3.557   0.249  14.613 -1.5085 -0.0027  0.9812
 6164TIP3    H239984   3.569   0.375  14.696 -0.4113 -0.0244  0.8792
 6165TIP3   OH239985   0.457   3.355  14.389 -0.5305  0.4373  0.1557
 6165TIP3    H139986   0.476   3.267  14.422  0.6956  0.1487 -1.1810
 6165TIP3    H239987   0.525   3.410  14.427  0.5972  0.1903 -1.3954
 6166TIP3   OH239988   0.235   1.829   1.825 -0.3684 -0.1980 -0.0789
 6166TIP3    H139989   0.208   1.803   1.736 -1.7645  1.1833 -0.0877
 6166TIP3    H239990   0.188   1.769   1.882 -2.1380  1.0227 -0.1749
 6167TIP3   OH239991   6.821   3.447  11.188  0.6508  0.8981  0.8129
 6167TIP3    H139992   6.908   3.455  11.148  0.9901  0.7452  1.5193
 6167TIP3    H239993   6.761   3.450  11.113  1.2191  1.6732  0.3696
 6168TIP3   OH239994   5.040   6.009  14.384  0.3710 -0.3014 -0.1855
 6168TIP3    H139995   5.005   5.953  14.315  1.4390  0.0770 -1.0599
 6168TIP3    H239996   5.004   6.096  14.365  2.1714  0.2200 -1.4422
 6169TIP3   OH239997   4.506   1.171   3.291 -0.0451  0.1528 -0.1983
 6169TIP3    H139998   4.588   1.174   3.241  0.5123  1.7295  0.7454
 6169TIP3    H239999   4.502   1.255   3.335 -2.4666  0.3313 -0.6376
 6170TIP3   OH240000   3.427   1.865  10.777 -0.1417 -0.5671  0.4892
 6170TIP3    H140001   3.401   1.919  10.851 -1.3096 -0.7826  0.2553
 6170TIP3    H240002   3.376   1.899  10.703  0.8385 -0.5002 -0.1717
 6171TIP3   OH240003   4.378   3.289  11.366 -0.6828  0.0805 -0.2934
 6171TIP3    H140004   4.335   3.248  11.441 -0.9672  2.1600  0.7416
 6171TIP3    H240005   4.423   3.364  11.402  1.0238 -0.1081 -1.9177
 6172TIP3   OH240006   5.445   2.898  11.165  0.1963  0.7247  0.2701
 6172TIP3    H140007   5.353   2.890  11.138  0.4684 -0.7915 -0.2943
 6172TIP3    H240008   5.445   2.874  11.258  0.2485 -0.9914 -0.1536
 6173TIP3   OH240009   6.712   0.203   6.124  0.0044 -0.6103  0.0162
 6173TIP3    H140010   6.713   0.112   6.094  0.3024 -1.1695  1.6328
 6173TIP3    H240011   6.780   0.207   6.191 -0.6093  0.5953  0.5912
 6174TIP3   OH240012   3.529   3.909  13.150  0.0338  0.0913 -0.2013
 6174TIP3    H140013   3.615   3.951  13.146 -0.3494  0.8437 -0.9055
 6174TIP3    H240014   3.542   3.822  13.112  0.3254  0.5091 -1.0937
 6175TIP3   OH240015   4.739   2.389   5.171 -0.8623  0.0751 -0.2323
 6175TIP3    H140016   4.807   2.325   5.190 -0.0926  0.4609 -1.5470
 6175TIP3    H240017   4.677   2.381   5.244 -1.1715 -2.6367 -0.6782
 6176TIP3   OH240018   4.945   4.784   2.622  0.0727  0.1328  0.3050
 6176TIP3    H140019   4.881   4.718   2.647  0.7546 -0.2345  1.1398
 6176TIP3    H240020   4.917   4.864   2.666  0.1158  0.0001  0.5763
 6177TIP3   OH240021   2.357   1.142  12.411 -0.0103  0.0625  0.2242
 6177TIP3    H140022   2.394   1.054  12.413 -0.3765 -0.0876  0.5965
 6177TIP3    H240023   2.421   1.194  12.362 -0.0528 -0.5248 -0.4632
 6178TIP3   OH240024   2.701   3.111   5.225 -0.0522 -0.0457  0.0637
 6178TIP3    H140025   2.639   3.109   5.299  0.1103 -1.9360  0.2125
 6178TIP3    H240026   2.712   3.019   5.202  1.3252  0.3949 -1.1423
 6179TIP3   OH240027   3.239   1.420  14.696  0.1122  0.3821 -0.4703
 6179TIP3    H140028   3.239   1.446  14.788 -0.3734  0.3739 -0.4649
 6179TIP3    H240029   3.229   1.325  14.698  0.3009  0.3606 -0.5279
 6180TIP3   OH240030   5.823   3.256   5.052  0.1518  0.4376 -0.0069
 6180TIP3    H140031   5.790   3.205   5.126  0.1053 -0.2529 -0.5036
 6180TIP3    H240032   5.894   3.204   5.015 -0.2105  0.4971 -0.8090
 6181TIP3   OH240033   1.848   5.899   2.926  0.4069 -0.4006  0.0533
 6181TIP3    H140034   1.855   5.825   2.986 -0.9192 -0.2684  0.3901
 6181TIP3    H240035   1.756   5.903   2.903  0.3712  1.3887  0.3573
 6182TIP3   OH240036   5.603   4.761   4.061 -0.0448 -0.4749  0.6000
 6182TIP3    H140037   5.531   4.720   4.014 -0.5869  0.7451  0.3358
 6182TIP3    H240038   5.677   4.759   3.999  0.1171 -1.5624  0.8087
 6183TIP3   OH240039   2.136   0.472   2.182  0.2698 -0.7647 -0.5157
 6183TIP3    H140040   2.179   0.465   2.097  1.8490 -1.2424  0.2864
 6183TIP3    H240041   2.122   0.381   2.210 -1.5328 -0.6338 -0.8480
 6184TIP3   OH240042   1.778   5.134   2.584 -0.1246 -0.1884 -0.0197
 6184TIP3    H140043   1.834   5.177   2.649  1.5318 -1.3927 -0.5659
 6184TIP3    H240044   1.832   5.129   2.505 -1.9951  0.9826 -1.4392
 6185TIP3   OH240045   5.108   3.359   3.561 -0.3665  0.2571  0.1925
 6185TIP3    H140046   5.070   3.289   3.508 -1.6251  0.6338  0.5544
 6185TIP3    H240047   5.046   3.370   3.633  0.4317  0.9362  0.7958
 6186TIP3   OH240048   1.776   1.006   2.870 -0.5697  0.2539  0.4965
 6186TIP3    H140049   1.858   1.045   2.900  0.3074 -0.0729 -1.3225
 6186TIP3    H240050   1.804   0.938   2.809 -2.1657 -1.0157  1.1072
 6187TIP3   OH240051   4.062   4.265  11.011  0.1638  0.4736 -0.2296
 6187TIP3    H140052   3.976   4.250  11.050  0.1659 -0.2329 -0.4897
 6187TIP3    H240053   4.046   4.327  10.940  0.2679  2.3831  1.3187
 6188TIP3   OH240054   5.493   2.256  11.855  0.0716  0.1828 -0.3820
 6188TIP3    H140055   5.578   2.254  11.900 -0.8319  0.1561  1.4385
 6188TIP3    H240056   5.449   2.334  11.890 -1.2503 -0.6651 -0.0820
 6189TIP3   OH240057   1.748   0.090  11.945 -0.4332 -0.4334  0.1287
 6189TIP3    H140058   1.728  -0.002  11.962  0.3435 -0.5196  0.6425
 6189TIP3    H240059   1.811   0.089  11.874  0.2367 -0.3544  0.7115
 6190TIP3   OH240060   4.266   1.855   2.308  0.4408 -0.7691  0.7174
 6190TIP3    H140061   4.175   1.833   2.327 -0.0792 -0.4412 -1.2075
 6190TIP3    H240062   4.262   1.943   2.270  1.6304 -0.5296  1.1015
 6191TIP3   OH240063   2.798   0.579  16.746 -0.0560  0.0454 -0.5091
 6191TIP3    H140064   2.772   0.652  16.802 -0.4647 -0.1520 -0.4410
 6191TIP3    H240065   2.892   0.594  16.730 -0.0944  0.4823 -0.3460
 6192TIP3   OH240066   1.704   6.794  14.996  0.3124  0.0387  0.0539
 6192TIP3    H140067   1.726   6.710  15.036 -0.4842 -0.1345  0.1401
 6192TIP3    H240068   1.788   6.839  14.988  0.4885  0.1298  2.0195
 6193TIP3   OH240069   2.737   4.734  12.324  0.1949  0.1234  0.3368
 6193TIP3    H140070   2.817   4.787  12.315 -0.5265  1.3438  0.9420
 6193TIP3    H240071   2.666   4.797  12.320 -0.7554 -0.9506 -0.1312
 6194TIP3   OH240072   4.433   6.728   0.820 -0.6964  0.0078  0.0403
 6194TIP3    H140073   4.496   6.776   0.766  0.9010 -0.4282  1.4314
 6194TIP3    H240074   4.486   6.691   0.891 -2.3758 -1.2375  0.7014
 6195TIP3   OH240075   0.888   0.844  13.969  0.1511  0.4632 -0.2813
 6195TIP3    H140076   0.917   0.909  14.034  0.6593  0.7822 -0.8120
 6195TIP3    H240077   0.882   0.894  13.888  0.2956 -0.1066 -0.6445
 6196TIP3   OH240078   4.784   6.686  13.395  0.1826 -0.3130  0.3440
 6196TIP3    H140079   4.700   6.719  13.362  0.7618  1.1401  0.2575
 6196TIP3    H240080   4.766   6.595  13.419 -1.7558  0.2997  1.4947
 6197TIP3   OH240081   2.775   0.130  16.781 -0.0349  0.0063 -0.1272
 6197TIP3    H140082   2.868   0.121  16.761  0.2861 -2.2623  1.9030
 6197TIP3    H240083   2.731   0.086  16.708  0.6471 -0.9234 -0.0121
 6198TIP3   OH240084   3.550   5.393   0.345 -0.3680 -0.5020 -0.6501
 6198TIP3    H140085   3.627   5.446   0.364 -0.3637 -0.2692 -1.2866
 6198TIP3    H240086   3.476   5.447   0.370 -0.3543 -0.2936 -1.0440
 6199TIP3   OH240087   6.127   6.219  12.490  0.5450  0.2877  0.0088
 6199TIP3    H140088   6.203   6.177  12.449  0.8317  1.8842 -1.1861
 6199TIP3    H240089   6.076   6.253  12.416  1.1057  3.3205  0.8928
 6200TIP3   OH240090   1.472   5.561  16.903  0.3260 -0.1602  0.0784
 6200TIP3    H140091   1.554   5.531  16.944  0.0506 -0.7272  0.2229
 6200TIP3    H240092   1.480   5.657  16.901  0.0423 -0.0440  2.1597
 6201TIP3   OH240093   4.027   2.482   4.989  0.1479 -0.1680  0.4544
 6201TIP3    H140094   4.030   2.401   4.938 -0.4618  0.0866  0.0014
 6201TIP3    H240095   3.977   2.542   4.935  1.5649  0.8894  0.2709
 6202TIP3   OH240096   1.540   1.964  12.295 -0.0311  0.1687 -0.3194
 6202TIP3    H140097   1.515   1.874  12.317 -0.8357  0.4254 -0.1762
 6202TIP3    H240098   1.624   1.954  12.251 -0.8828 -0.8287 -1.8300
 6203TIP3   OH240099   1.463   0.155   2.876  0.0420  0.4605 -0.6239
 6203TIP3    H140100   1.497   0.103   2.949 -0.2605  1.4983  0.2833
 6203TIP3    H240101   1.425   0.090   2.816  1.3296 -0.5075 -0.4371
 6204TIP3   OH240102   4.932   3.010  16.589  0.4726  0.0083  0.1153
 6204TIP3    H140103   4.905   3.087  16.538 -1.2004  1.4957  2.9632
 6204TIP3    H240104   5.027   3.011  16.584  0.4263 -0.4096 -3.4509
 6205TIP3   OH240105   1.931   2.741   0.846  0.4467  0.0452  0.2170
 6205TIP3    H140106   1.873   2.800   0.798 -0.2327  0.2049  1.1939
 6205TIP3    H240107   1.981   2.696   0.779  0.5053  1.2537 -0.5730
 6206TIP3   OH240108   2.295   5.683  15.831 -0.1283 -0.1995 -0.1539
 6206TIP3    H140109   2.220   5.735  15.861 -0.4586 -1.1657  0.7389
 6206TIP3    H240110   2.297   5.697  15.736 -0.6590  0.8428 -0.0261
 6207TIP3   OH240111   0.980   6.218   2.107  0.4088 -0.0665  0.2554
 6207TIP3    H140112   0.916   6.156   2.073  1.3992 -1.1053  0.2135
 6207TIP3    H240113   0.966   6.219   2.202  1.1213 -1.2526  0.3954
 6208TIP3   OH240114   5.364   3.832   2.684  0.2071  0.0255  0.2612
 6208TIP3    H140115   5.292   3.885   2.651  0.0622  0.4876  1.2867
 6208TIP3    H240116   5.441   3.864   2.635 -0.0473  0.4788  0.1473
 6209TIP3   OH240117   6.023   4.920  11.869 -0.4301 -0.1362  0.1568
 6209TIP3    H140118   6.008   4.933  11.962 -0.1519  1.5272 -0.0044
 6209TIP3    H240119   6.026   4.824  11.858  1.1961 -0.3755  2.1091
 6210TIP3   OH240120   5.466   4.769   0.458  0.0964 -0.4816  0.0100
 6210TIP3    H140121   5.536   4.785   0.395  1.3850 -1.0099  1.2478
 6210TIP3    H240122   5.396   4.829   0.431  1.4910  0.9948 -0.5305
 6211TIP3   OH240123   4.159   2.803  16.663  0.4647  0.0497  0.1591
 6211TIP3    H140124   4.234   2.809  16.721  1.1040  1.0333 -0.7307
 6211TIP3    H240125   4.101   2.874  16.690 -0.4123 -1.0059  1.1640
 6212TIP3   OH240126   3.770   2.869  16.288 -0.4888 -0.2015  0.4654
 6212TIP3    H140127   3.726   2.954  16.291 -1.9859 -0.5965 -3.9717
 6212TIP3    H240128   3.859   2.889  16.260 -0.1205 -0.0130  1.6903
 6213TIP3   OH240129   4.737   3.962  11.817  0.2078 -0.5993  0.4140
 6213TIP3    H140130   4.759   3.986  11.728  1.4173 -0.3886  0.7549
 6213TIP3    H240131   4.642   3.975  11.823  0.1795 -0.2331 -0.7076
 6214TIP3   OH240132   4.441   4.155  13.006 -0.1340 -0.0539 -0.0740
 6214TIP3    H140133   4.430   4.178  13.099 -0.2676 -1.0149  0.1662
 6214TIP3    H240134   4.532   4.127  12.999 -0.6565 -2.0437  0.2818
 6215TIP3   OH240135   5.589   1.713  13.539 -0.8599 -0.4989 -0.1935
 6215TIP3    H140136   5.515   1.653  13.540  0.1589 -1.8000  0.5053
 6215TIP3    H240137   5.652   1.674  13.600  0.1853  0.8364 -0.3817
 6216TIP3   OH240138   6.778   1.862   4.927 -0.2068 -0.0576  0.4328
 6216TIP3    H140139   6.846   1.832   4.865  0.0239  0.7085  0.3101
 6216TIP3    H240140   6.824   1.922   4.985 -1.2720  2.4607 -1.1810
 6217TIP3   OH240141   4.048   4.707   3.354 -1.2018 -0.2334 -0.0696
 6217TIP3    H140142   4.089   4.767   3.416 -1.9819 -0.5489  0.7662
 6217TIP3    H240143   4.068   4.620   3.387 -2.5531 -0.3965  0.3990
 6218TIP3   OH240144   3.281   0.184  16.512  0.3176 -0.6791 -0.1793
 6218TIP3    H140145   3.280   0.137  16.428 -0.6210 -0.6512 -0.1936
 6218TIP3    H240146   3.367   0.166  16.548  1.5151  0.8963 -2.0386
 6219TIP3   OH240147   6.747   0.448  13.400 -0.5719 -0.0047 -0.2891
 6219TIP3    H140148   6.829   0.458  13.351  0.1364 -0.5179  0.7494
 6219TIP3    H240149   6.771   0.466  13.491 -1.4764 -0.7616  0.1178
 6220TIP3   OH240150   3.549   1.864   3.841  0.1806 -0.0760 -0.4795
 6220TIP3    H140151   3.456   1.879   3.825  0.2679 -0.9691 -2.0453
 6220TIP3    H240152   3.556   1.771   3.859  0.8593 -0.1798 -1.2099
 6221TIP3   OH240153   5.760   1.035  10.878 -0.1365  0.1837  0.2416
 6221TIP3    H140154   5.715   0.951  10.870 -0.0049  0.1754 -0.4971
 6221TIP3    H240155   5.851   1.012  10.898 -0.3773  0.1940  1.4467
 6222TIP3   OH240156   0.350   0.118  11.793  0.1351 -0.7092 -0.3242
 6222TIP3    H140157   0.255   0.110  11.799  0.0736  0.5503  1.1549
 6222TIP3    H240158   0.380   0.034  11.759 -1.4837 -1.2220 -0.5347
 6223TIP3   OH240159   5.867   4.899  14.498 -0.5442  0.5499  0.2806
 6223TIP3    H140160   5.947   4.878  14.547  0.5011  3.1004 -0.1394
 6223TIP3    H240161   5.818   4.817  14.495  0.6573 -0.3891  3.1154
 6224TIP3   OH240162   0.159   4.155  13.628  0.0853 -0.0725 -0.0971
 6224TIP3    H140163   0.186   4.119  13.544  2.3928 -0.7935  0.8929
 6224TIP3    H240164   0.208   4.105  13.693  1.4327  3.0099  1.4844
 6225TIP3   OH240165   3.064   2.889   1.602 -0.5166 -0.0300  0.8863
 6225TIP3    H140166   3.085   2.918   1.691  2.3507  0.1897  0.2283
 6225TIP3    H240167   3.120   2.814   1.586 -1.1346 -0.2131 -0.6684
 6226TIP3   OH240168   0.368   0.641   3.986  0.2235  0.1953 -0.5830
 6226TIP3    H140169   0.424   0.719   3.984  0.5007  0.0533  0.6822
 6226TIP3    H240170   0.429   0.568   3.997 -0.1213 -0.0877 -0.5293
 6227TIP3   OH240171   3.962   2.247   3.967  0.7455  0.3324 -0.2109
 6227TIP3    H140172   3.990   2.323   3.916 -0.9523  0.2249 -1.3768
 6227TIP3    H240173   3.942   2.283   4.054  0.5666  1.1038 -0.5613
 6228TIP3   OH240174   4.897   4.733   6.232 -0.3687  0.7641 -0.1506
 6228TIP3    H140175   4.886   4.734   6.327  0.7970 -1.1828  0.0570
 6228TIP3    H240176   4.992   4.730   6.219 -0.5377 -0.2494 -1.3398
 6229TIP3   OH240177   3.620   2.648  16.680 -0.0570 -0.3727 -0.3437
 6229TIP3    H140178   3.692   2.671  16.621 -0.4889  2.3185  0.0440
 6229TIP3    H240179   3.569   2.582  16.632  0.3095  0.8092 -2.4757
 6230TIP3   OH240180   2.099   0.228  16.109  0.0839  0.5081 -0.4905
 6230TIP3    H140181   2.112   0.216  16.203 -0.5664  1.3996 -0.2768
 6230TIP3    H240182   2.188   0.229  16.072  0.3205 -2.3378 -0.2453
 6231TIP3   OH240183   1.602   5.452  16.152  0.0952  0.1849 -0.4038
 6231TIP3    H140184   1.690   5.467  16.188 -0.4438 -1.3191  1.7131
 6231TIP3    H240185   1.547   5.518  16.195 -0.2386 -0.5006  0.2493
 6232TIP3   OH240186   0.949   4.226   2.685  0.2764  0.1851  0.4558
 6232TIP3    H140187   1.003   4.149   2.666  0.0553 -0.0200  0.6555
 6232TIP3    H240188   0.881   4.193   2.743 -2.0848 -0.3507 -2.3924
 6233TIP3   OH240189   4.842   6.505  12.964 -0.6360 -0.8528  0.2082
 6233TIP3    H140190   4.837   6.494  12.869 -4.9232 -2.6039  0.4089
 6233TIP3    H240191   4.884   6.424  12.995  0.4539 -0.4311 -0.1246
 6234TIP3   OH240192   5.176   5.647  14.340  0.2378  0.1441  0.3667
 6234TIP3    H140193   5.157   5.696  14.261  0.3462  1.5633  1.1883
 6234TIP3    H240194   5.213   5.564  14.309 -1.0584  0.0724 -1.0735
 6235TIP3   OH240195   3.167   4.683  17.104 -0.6700 -0.2817  0.4004
 6235TIP3    H140196   3.130   4.701  17.191 -1.3885 -1.3423  0.3299
 6235TIP3    H240197   3.095   4.698  17.044 -0.2871  0.0398  0.0169
 6236TIP3   OH240198   5.199   0.994  14.198 -0.0112 -0.3017 -0.1593
 6236TIP3    H140199   5.195   0.900  14.216  0.9736 -0.9474 -2.8346
 6236TIP3    H240200   5.291   1.011  14.178 -0.1271  1.3092  0.5271
 6237TIP3   OH240201   4.253   1.220   0.490 -0.2082  0.1093 -0.1308
 6237TIP3    H140202   4.237   1.298   0.438  1.4174 -0.1342 -1.0619
 6237TIP3    H240203   4.175   1.165   0.477 -2.2660  2.2711  2.0345
 6238TIP3   OH240204   4.764   1.729   6.196  0.2076  0.1716  0.6822
 6238TIP3    H140205   4.780   1.637   6.172  1.3625  0.8919 -1.6414
 6238TIP3    H240206   4.786   1.778   6.117 -3.2982  2.2811  0.8502
 6239TIP3   OH240207   0.028   2.615   1.482 -0.3065 -0.0331  0.0666
 6239TIP3    H140208   0.121   2.597   1.498 -0.0008  0.3082 -1.1609
 6239TIP3    H240209  -0.016   2.590   1.563  0.9574  0.6450  1.0105
 6240TIP3   OH240210   5.304   5.333   1.141 -0.6940 -0.1650 -0.2442
 6240TIP3    H140211   5.385   5.384   1.142  0.7109 -2.2948 -0.8558
 6240TIP3    H240212   5.260   5.360   1.060  0.4924 -0.6086 -1.0582
 6241TIP3   OH240213   4.017   4.996  15.242 -0.2387  0.5404 -0.4529
 6241TIP3    H140214   4.036   5.090  15.244 -0.3411  0.5658 -0.6470
 6241TIP3    H240215   3.969   4.983  15.160  1.2605  0.0300 -1.2802
 6242TIP3   OH240216   3.464   6.660  13.506  0.2499 -0.1138  0.0600
 6242TIP3    H140217   3.533   6.677  13.571  0.6017 -1.8084  0.1807
 6242TIP3    H240218   3.460   6.565  13.500 -0.3109 -0.0170 -1.8602
 6243TIP3   OH240219   0.325   4.284   3.727  0.8055  0.2063  0.2935
 6243TIP3    H140220   0.388   4.238   3.671  0.4289  0.5995 -0.4707
 6243TIP3    H240221   0.374   4.305   3.807  1.3312 -0.4272  0.1385
 6244TIP3   OH240222   6.506   3.145   3.666 -0.3592 -1.0067 -0.4929
 6244TIP3    H140223   6.441   3.203   3.627  0.6311 -0.1604 -0.9518
 6244TIP3    H240224   6.468   3.119   3.750 -0.5419  0.9292  0.0780
 6245TIP3   OH240225   2.898   2.002   2.754 -0.0617  0.0513  0.0110
 6245TIP3    H140226   2.813   2.026   2.791  0.5734  1.6446  0.4853
 6245TIP3    H240227   2.877   1.949   2.677 -1.4732  0.6044  0.0023
 6246TIP3   OH240228   3.086   2.658   0.124 -0.2386  0.0324  0.2574
 6246TIP3    H140229   3.156   2.622   0.070  0.0253  1.1804 -0.1981
 6246TIP3    H240230   3.101   2.621   0.211  0.6160 -0.1485  0.0440
 6247TIP3   OH240231   4.523   3.248   3.019  0.2214 -0.1135 -0.4993
 6247TIP3    H140232   4.576   3.308   2.967  1.3439 -0.0792  0.6449
 6247TIP3    H240233   4.578   3.224   3.093 -0.5886 -1.7440 -0.3677
 6248TIP3   OH240234   2.293   3.669   3.846  0.2070  0.4333  0.7063
 6248TIP3    H140235   2.204   3.640   3.825  0.8085 -0.9678 -0.0724
 6248TIP3    H240236   2.315   3.623   3.927  0.0847  1.0744  1.1027
 6249TIP3   OH240237   3.271   2.790  16.770 -0.5283 -0.6652  0.2316
 6249TIP3    H140238   3.318   2.820  16.848 -0.3404  3.2522 -1.1995
 6249TIP3    H240239   3.180   2.819  16.784 -0.3375  0.7862 -1.2360
 6250TIP3   OH240240   2.710   4.035   4.052 -0.3100  0.5959  0.0566
 6250TIP3    H140241   2.728   3.982   3.974  0.5722  1.0970 -0.0942
 6250TIP3    H240242   2.785   4.095   4.058 -1.2254  1.7319  0.3085
 6251TIP3   OH240243   4.599   3.498  14.436 -0.3383  0.2611  0.3412
 6251TIP3    H140244   4.569   3.582  14.399 -1.7733 -1.0435 -1.6720
 6251TIP3    H240245   4.568   3.432  14.374  3.6391 -1.5826 -0.0152
 6252TIP3   OH240246   1.133   4.805  11.090  0.6468  0.1291  0.4416
 6252TIP3    H140247   1.066   4.846  11.036  0.6549  1.0708  1.1117
 6252TIP3    H240248   1.192   4.877  11.114  2.0419 -0.7202 -0.3148
 6253TIP3   OH240249   0.513   2.881  16.422  0.1908  0.3230  0.3601
 6253TIP3    H140250   0.485   2.870  16.513 -4.3261 -0.4492 -0.8766
 6253TIP3    H240251   0.512   2.976  16.408 -3.7733  0.4354  0.1428
 6254TIP3   OH240252   4.597   2.478  16.469  0.4092 -0.1857 -0.5520
 6254TIP3    H140253   4.542   2.555  16.463  0.1496 -0.0216  2.4249
 6254TIP3    H240254   4.686   2.512  16.470  0.3916 -0.1091 -1.1383
 6255TIP3   OH240255   1.759   3.744  11.560 -0.1725  0.4923  0.0864
 6255TIP3    H140256   1.841   3.695  11.548 -0.3573  0.0340  0.6485
 6255TIP3    H240257   1.754   3.800  11.483  0.1574 -0.2193 -0.4689
 6256TIP3   OH240258   6.071   5.861  13.495 -0.5178  0.6224  0.1677
 6256TIP3    H140259   6.105   5.933  13.442  0.0948 -0.4170 -0.9136
 6256TIP3    H240260   6.111   5.783  13.457 -1.6098 -0.3451  0.9420
 6257TIP3   OH240261   6.551   2.804  15.787 -0.2483  0.0999 -0.0840
 6257TIP3    H140262   6.600   2.813  15.868 -1.4163 -1.0685  0.7824
 6257TIP3    H240263   6.589   2.728  15.743 -1.2447 -0.8258  0.6026
 6258TIP3   OH240264   4.264   5.526  13.035  0.0062 -0.3285  0.3824
 6258TIP3    H140265   4.356   5.514  13.009  0.4818  2.1192  0.6978
 6258TIP3    H240266   4.216   5.460  12.985  1.5720  0.4267 -2.3095
 6259TIP3   OH240267   4.470   5.107  11.861 -0.2954 -0.1331 -0.1774
 6259TIP3    H140268   4.545   5.166  11.851 -0.9232  0.3523 -2.9199
 6259TIP3    H240269   4.398   5.152  11.815 -1.1016 -2.4972 -1.3790
 6260TIP3   OH240270   0.712   6.737  12.797  0.0192 -0.1118 -0.4875
 6260TIP3    H140271   0.733   6.700  12.882  0.9217  0.0720 -0.6213
 6260TIP3    H240272   0.739   6.670  12.734  1.1669  0.5432 -0.7067
 6261TIP3   OH240273   1.130   4.663   2.068 -0.0342  0.7413  0.0997
 6261TIP3    H140274   1.038   4.658   2.095 -0.3180  0.8386 -0.8269
 6261TIP3    H240275   1.138   4.747   2.022  0.6228  0.9287  0.5357
 6262TIP3   OH240276   4.927   5.841  14.184 -0.2442 -0.1454  0.4136
 6262TIP3    H140277   5.004   5.818  14.131 -0.2736 -0.3532  0.4603
 6262TIP3    H240278   4.866   5.769  14.170 -0.5392  0.1460  0.1674
 6263TIP3   OH240279   5.944   2.213   0.267  0.0997 -0.3586 -0.6478
 6263TIP3    H140280   5.943   2.204   0.172  0.7568 -0.2508 -0.6652
 6263TIP3    H240281   6.010   2.150   0.297  0.4144  0.1236 -0.3193
 6264TIP3   OH240282   0.342   3.851  14.198  0.6159  0.1306 -0.0867
 6264TIP3    H140283   0.342   3.942  14.228  0.9190  0.3884 -0.8213
 6264TIP3    H240284   0.435   3.825  14.199  0.4573 -0.4246  0.8392
 6265TIP3   OH240285   3.526   3.906   2.963  0.6134 -0.0864 -0.0160
 6265TIP3    H140286   3.524   3.842   2.892  2.1609 -0.5523  0.3150
 6265TIP3    H240287   3.526   3.991   2.918  0.4815 -0.3596 -0.5395
 6266TIP3   OH240288   1.376   0.328  14.904 -0.3706  0.5653  0.2757
 6266TIP3    H140289   1.429   0.263  14.951 -1.1226 -0.3882 -0.1446
 6266TIP3    H240290   1.438   0.372  14.846 -0.1919 -1.3546 -1.0872
 6267TIP3   OH240291   0.022   6.510   2.911  0.4039  0.3261  0.1346
 6267TIP3    H140292   0.090   6.486   2.847 -0.5991  0.8415 -1.1658
 6267TIP3    H240293   0.047   6.597   2.942 -0.2041  0.9712 -1.1366
 6268TIP3   OH240294   0.131   4.716   1.698  0.0728  0.1991 -0.3967
 6268TIP3    H140295   0.182   4.679   1.625  0.4830 -0.0302 -0.0033
 6268TIP3    H240296   0.082   4.642   1.733  0.6208  0.0822  0.1652
 6269TIP3   OH240297   0.035   4.766  13.553  0.3309  0.2062 -0.2738
 6269TIP3    H140298   0.001   4.854  13.566  0.2396  0.0874  0.3291
 6269TIP3    H240299   0.128   4.778  13.536  0.6936  0.3159  1.6243
 6270TIP3   OH240300   1.219   6.377  12.404 -0.1853 -0.1577 -0.3472
 6270TIP3    H140301   1.253   6.394  12.317 -0.0934 -0.3893 -0.3577
 6270TIP3    H240302   1.294   6.387  12.462 -0.1908 -0.2479 -0.3230
 6271TIP3   OH240303   5.730   5.054  12.247  0.7554  0.0721  0.1391
 6271TIP3    H140304   5.646   5.041  12.291 -0.0025 -0.2144 -1.3245
 6271TIP3    H240305   5.793   5.066  12.318 -0.5783  0.6865  1.2615
 6272TIP3   OH240306   0.669   4.177  12.479 -0.5145  0.2414  0.2573
 6272TIP3    H140307   0.620   4.258  12.462  2.7084  2.6932  1.4997
 6272TIP3    H240308   0.643   4.118  12.408 -4.1853  1.7004  0.1594
 6273TIP3   OH240309   3.471   2.994   5.054  0.7237 -0.1821 -0.5025
 6273TIP3    H140310   3.440   3.048   5.127  1.9091 -0.9589  0.6120
 6273TIP3    H240311   3.411   3.015   4.982 -0.7026  0.3351  0.7801
 6274TIP3   OH240312   1.737   3.573   5.154 -0.4803  0.5397 -0.0977
 6274TIP3    H140313   1.657   3.543   5.111 -0.2236  0.2400 -0.3757
 6274TIP3    H240314   1.781   3.493   5.182 -1.4633  0.7608  2.2884
 6275TIP3   OH240315   1.310   4.800  10.527 -0.1065  0.0454 -0.2310
 6275TIP3    H140316   1.365   4.764  10.457 -2.4787  0.2979 -2.3734
 6275TIP3    H240317   1.220   4.792  10.493 -1.3813  0.1366  2.8476
 6276TIP3   OH240318   0.498   2.282  16.776 -0.8985 -0.3384 -0.4751
 6276TIP3    H140319   0.409   2.318  16.779 -1.2933 -1.3065 -0.2878
 6276TIP3    H240320   0.500   2.216  16.845  0.1589  0.0756 -0.0806
 6277TIP3   OH240321   0.615   0.987   1.143 -0.2672 -0.0853  0.2414
 6277TIP3    H140322   0.572   1.004   1.059  0.3008  1.1742  0.1853
 6277TIP3    H240323   0.618   0.892   1.149  0.8282 -0.2378 -1.7876
 6278TIP3   OH240324   1.925   1.076  11.419 -0.7120  0.1647  0.0142
 6278TIP3    H140325   1.909   1.099  11.328  0.7691 -1.9621 -0.8715
 6278TIP3    H240326   1.839   1.080  11.461 -1.4359  1.0710 -1.4822
 6279TIP3   OH240327   2.774   5.082  11.839  0.0024 -0.6230 -0.0852
 6279TIP3    H140328   2.844   5.033  11.882  0.0915 -1.5850 -1.2504
 6279TIP3    H240329   2.788   5.067  11.745 -1.2746 -0.1593 -0.3799
 6280TIP3   OH240330   4.786   5.066  11.919  0.1909  0.4454  0.2384
 6280TIP3    H140331   4.750   4.984  11.954  0.5699 -0.3929 -1.2420
 6280TIP3    H240332   4.851   5.093  11.983  0.4920 -0.7413  0.4548
 6281TIP3   OH240333   1.518   6.413  15.483  0.2454 -0.0874  0.3273
 6281TIP3    H140334   1.475   6.394  15.399 -1.0834  1.7300  0.5336
 6281TIP3    H240335   1.608   6.435  15.459 -0.2313  0.8768 -0.7127
 6282TIP3   OH240336   0.633   5.473  11.632 -0.2829  0.2932 -0.9241
 6282TIP3    H140337   0.570   5.543  11.649  0.6686  0.9743 -0.0809
 6282TIP3    H240338   0.689   5.472  11.709 -0.5137 -1.6873 -0.7342
 6283TIP3   OH240339   5.429   1.179  12.203  0.1463 -0.3396 -0.4598
 6283TIP3    H140340   5.464   1.090  12.192  2.3786  0.6300 -1.8451
 6283TIP3    H240341   5.359   1.186  12.139 -0.0898 -1.1047 -0.2960
 6284TIP3   OH240342   2.867   0.329  12.843  0.5146  0.0850 -0.3531
 6284TIP3    H140343   2.941   0.380  12.876  0.5516 -0.0892 -0.1634
 6284TIP3    H240344   2.816   0.391  12.791  1.6264 -0.1517 -1.8120
 6285TIP3   OH240345   3.742   6.750  11.892  0.5676 -0.0632  0.1799
 6285TIP3    H140346   3.713   6.836  11.922  0.2098  0.2123 -0.9176
 6285TIP3    H240347   3.726   6.692  11.966 -3.5983 -0.1221 -0.5007
 6286TIP3   OH240348   0.363   1.049   1.247  0.5795 -0.2390  0.7069
 6286TIP3    H140349   0.338   1.136   1.216  0.2267 -0.1861  1.1230
 6286TIP3    H240350   0.457   1.043   1.229  0.4057 -0.1850 -0.2812
 6287TIP3   OH240351   3.948   0.798   4.761 -0.3504  0.1861 -0.3060
 6287TIP3    H140352   4.008   0.729   4.788  0.7244  2.0660  2.6740
 6287TIP3    H240353   3.948   0.795   4.666  1.3365 -2.4599 -0.3142
 6288TIP3   OH240354   6.172   2.147  13.652 -0.2606  0.4069  0.1480
 6288TIP3    H140355   6.152   2.221  13.710 -0.4565 -0.1802  0.8501
 6288TIP3    H240356   6.086   2.118  13.621 -0.1858  0.4600 -0.1096
 6289TIP3   OH240357   3.962   4.798  13.432  0.3434 -0.2204  0.6996
 6289TIP3    H140358   3.973   4.757  13.517  0.1800  0.0943  0.8748
 6289TIP3    H240359   3.947   4.890  13.452 -1.2934 -0.4017  0.4288
 6290TIP3   OH240360   3.441   0.821  17.094 -0.3648 -0.3438 -0.1832
 6290TIP3    H140361   3.351   0.796  17.077 -0.5580  0.6398 -0.7136
 6290TIP3    H240362   3.464   0.879  17.022 -0.0130  1.1038  1.0300
 6291TIP3   OH240363   3.335   5.339  12.436 -0.2390  0.2462 -0.5501
 6291TIP3    H140364   3.302   5.346  12.347  0.1491 -0.3562 -0.7521
 6291TIP3    H240365   3.430   5.329  12.426 -0.3280 -1.2168 -0.1623
 6292TIP3   OH240366   0.294   3.621   5.642 -0.0137 -0.1639  0.3884
 6292TIP3    H140367   0.247   3.576   5.711 -0.4163  0.9775  0.8697
 6292TIP3    H240368   0.316   3.552   5.579 -0.9492 -0.9589  0.9177
 6293TIP3   OH240369   4.317   3.715   1.513 -0.2619 -0.1121 -0.1571
 6293TIP3    H140370   4.299   3.637   1.461  0.6956  0.3191 -1.1640
 6293TIP3    H240371   4.373   3.769   1.458 -1.3849  1.5902  0.2668
 6294TIP3   OH240372   1.959   2.206  13.132  0.7140  0.0771  0.2051
 6294TIP3    H140373   1.906   2.175  13.059 -0.0071  2.3066 -0.3045
 6294TIP3    H240374   1.902   2.198  13.209 -0.2041  1.7804 -0.2283
 6295TIP3   OH240375   1.971   1.863  15.042 -0.0388 -0.1537  0.4956
 6295TIP3    H140376   1.954   1.901  14.955  1.1502  0.0712  0.3478
 6295TIP3    H240377   1.934   1.775  15.037 -2.3406  0.7430  0.6556
 6296TIP3   OH240378   0.578   1.426  12.035 -0.1147 -0.2873  0.3856
 6296TIP3    H140379   0.584   1.513  12.075  1.4007  0.2868 -0.9626
 6296TIP3    H240380   0.516   1.437  11.963  1.7514  0.3412 -1.2128
 6297TIP3   OH240381   1.882   1.776  15.412 -0.3013 -0.0603  0.3254
 6297TIP3    H140382   1.840   1.861  15.395  1.2413  0.8392  0.8577
 6297TIP3    H240383   1.847   1.718  15.344 -0.8319  1.1904 -0.4942
 6298TIP3   OH240384   4.950   1.755  13.518 -0.5078 -0.9498 -0.0863
 6298TIP3    H140385   5.033   1.793  13.489  0.3736 -0.0754  3.1599
 6298TIP3    H240386   4.883   1.805  13.471  0.7422  0.0032 -0.9279
 6299TIP3   OH240387   5.786   0.859  14.553 -0.0302 -0.0388  0.5110
 6299TIP3    H140388   5.824   0.942  14.579 -0.5825  0.2513  0.4171
 6299TIP3    H240389   5.755   0.873  14.463 -0.6087 -0.1695  0.6798
 6300TIP3   OH240390   4.241   6.545   0.687 -0.5100 -0.2208  0.3791
 6300TIP3    H140391   4.308   6.595   0.734 -1.3182 -1.1530  2.6665
 6300TIP3    H240392   4.158   6.583   0.715 -1.0245  0.3107 -1.7024
 6301TIP3   OH240393   1.353   0.643   2.338  0.4017 -0.1771  0.7170
 6301TIP3    H140394   1.278   0.593   2.370 -1.3686  1.0574 -1.1812
 6301TIP3    H240395   1.339   0.731   2.374 -0.1163  0.5166 -1.0773
 6302TIP3   OH240396   6.638   5.817   4.228 -0.0114 -0.0538 -0.1786
 6302TIP3    H140397   6.714   5.850   4.180  1.1915 -1.7659  0.4566
 6302TIP3    H240398   6.645   5.722   4.222 -0.7861 -0.3008  1.8860
 6303TIP3   OH240399   0.535   4.672   5.119 -0.1539  0.2489  0.8296
 6303TIP3    H140400   0.578   4.734   5.060 -0.3018 -0.2267  0.2022
 6303TIP3    H240401   0.550   4.706   5.206  1.1380  0.3166  0.5905
 6304TIP3   OH240402   6.125   3.046   1.655 -0.2001  0.1622 -0.2554
 6304TIP3    H140403   6.118   3.052   1.560  0.0604 -0.8630 -0.3497
 6304TIP3    H240404   6.139   2.953   1.673 -1.7886  0.0854  0.8772
 6305TIP3   OH240405   6.664   5.850   2.084  0.0905  0.0859  0.2819
 6305TIP3    H140406   6.710   5.811   2.159  0.1761  0.0201  0.1968
 6305TIP3    H240407   6.622   5.776   2.042  0.2418  0.0867  0.1267
 6306TIP3   OH240408   5.408   4.420   1.122  0.0339  0.1890 -0.3314
 6306TIP3    H140409   5.437   4.340   1.079 -1.3330  0.6230 -2.2174
 6306TIP3    H240410   5.457   4.490   1.078  1.8125  0.4330  1.8293
 6307TIP3   OH240411   4.483   1.300  11.771 -0.5973 -0.6091 -0.2163
 6307TIP3    H140412   4.412   1.363  11.757 -1.7461 -1.8613 -0.2716
 6307TIP3    H240413   4.547   1.321  11.703 -0.9028  0.5604 -0.1612
 6308TIP3   OH240414   4.659   2.235  16.806  0.0665 -0.3371 -0.7428
 6308TIP3    H140415   4.685   2.323  16.833 -0.1701 -0.9053  1.5432
 6308TIP3    H240416   4.569   2.245  16.775 -1.0509 -0.1131  2.2093
 6309TIP3   OH240417   6.563   1.976  17.140 -0.6482 -0.3217 -0.0630
 6309TIP3    H140418   6.519   2.049  17.097 -1.6007 -0.1186  1.1995
 6309TIP3    H240419   6.625   1.943  17.075 -3.0478 -0.9839 -2.1502
 6310TIP3   OH240420   4.908   1.202   5.153 -0.4083  0.2490 -0.2330
 6310TIP3    H140421   4.950   1.187   5.238 -0.6217  0.2282 -0.1322
 6310TIP3    H240422   4.890   1.296   5.151 -1.3510  0.0850  0.1825
 6311TIP3   OH240423   0.895   3.846  10.694  0.2913 -0.7414  0.3209
 6311TIP3    H140424   0.890   3.893  10.611 -0.0409  0.0349  0.7651
 6311TIP3    H240425   0.969   3.887  10.740 -0.3303 -0.2717  0.9278
 6312TIP3   OH240426   3.522   3.987  14.147 -0.0748  0.3289 -0.0230
 6312TIP3    H140427   3.606   4.033  14.152 -0.2882  0.7536 -0.2910
 6312TIP3    H240428   3.539   3.912  14.090  0.4549 -0.3330  0.9826
 6313TIP3   OH240429   0.928   1.521   5.668 -0.2560  0.0774 -0.7111
 6313TIP3    H140430   0.887   1.482   5.745  0.7021 -0.2601 -0.3601
 6313TIP3    H240431   0.872   1.493   5.595 -1.7032  1.1675 -0.0686
 6314TIP3   OH240432   3.257   2.360  16.880  0.3098  0.0393  0.0507
 6314TIP3    H140433   3.329   2.335  16.822 -0.1777  0.9301 -0.9858
 6314TIP3    H240434   3.182   2.374  16.821 -0.3936  0.2905  0.9724
 6315TIP3   OH240435   1.849   3.263  11.152 -0.0890 -0.7302  0.0274
 6315TIP3    H140436   1.852   3.318  11.073 -0.6090  0.4002  0.7757
 6315TIP3    H240437   1.829   3.175  11.118 -1.7312 -0.0174 -1.0120
 6316TIP3   OH240438   6.348   1.277   0.396 -0.0101 -0.6571  0.1374
 6316TIP3    H140439   6.417   1.343   0.387  0.3448 -0.2490  4.2290
 6316TIP3    H240440   6.358   1.222   0.318  1.5976  2.3076 -1.9508
 6317TIP3   OH240441   4.796   4.766   5.881  0.0316 -0.2815 -0.3862
 6317TIP3    H140442   4.857   4.698   5.912  0.0069 -0.2232 -0.2069
 6317TIP3    H240443   4.789   4.826   5.955 -0.2851 -0.3158 -0.3873
 6318TIP3   OH240444   5.778   6.634  12.391  0.1006  0.5312  0.9579
 6318TIP3    H140445   5.777   6.728  12.411  1.0707  0.9631 -0.8445
 6318TIP3    H240446   5.852   6.600  12.441 -0.2053  0.7349  1.5571
 6319TIP3   OH240447   4.388   5.625   5.356 -0.0482 -0.1110  0.0810
 6319TIP3    H140448   4.466   5.603   5.306 -1.3389  0.8774 -2.5083
 6319TIP3    H240449   4.329   5.665   5.293 -2.2400  0.2018  2.1888
 6320TIP3   OH240450   4.626   1.582  13.860 -0.7142  0.0889  0.0900
 6320TIP3    H140451   4.594   1.672  13.864 -0.5437  0.1198  0.8217
 6320TIP3    H240452   4.578   1.535  13.928  0.3864  0.0134  0.8349
 6321TIP3   OH240453   3.457   4.609   0.694 -0.2112  0.0223 -0.2866
 6321TIP3    H140454   3.416   4.533   0.653  0.2384 -0.8354  0.8058
 6321TIP3    H240455   3.389   4.645   0.751 -0.9129  1.3485 -1.8528
 6322TIP3   OH240456   2.300   4.146  14.674 -0.2990 -0.1625  0.2457
 6322TIP3    H140457   2.346   4.107  14.748 -0.3619 -0.5168  0.0956
 6322TIP3    H240458   2.329   4.097  14.598 -0.9249 -0.3898  0.1496
 6323TIP3   OH240459   3.058   2.846  17.026 -0.7714  0.7581  0.6293
 6323TIP3    H140460   3.007   2.806  17.096 -0.6231  1.7655  1.3326
 6323TIP3    H240461   3.051   2.941  17.042 -1.0226  1.0304 -0.9090
 6324TIP3   OH240462   0.284   1.414  16.261  0.3904 -0.2262  0.6473
 6324TIP3    H140463   0.198   1.374  16.248  0.2079  0.3616  0.0267
 6324TIP3    H240464   0.336   1.387  16.185  0.2927  0.6274  0.2634
 6325TIP3   OH240465   5.790   2.506  16.710  0.6947  0.6511 -0.1310
 6325TIP3    H140466   5.823   2.573  16.650 -0.5165 -0.5077 -2.1973
 6325TIP3    H240467   5.734   2.555  16.771  0.5268  1.6560 -1.0514
 6326TIP3   OH240468   1.989   1.081  15.162  0.1318  0.5391 -0.7191
 6326TIP3    H140469   2.079   1.065  15.193 -0.6653 -0.4986  1.2560
 6326TIP3    H240470   1.977   1.018  15.091  1.1086  1.0431 -1.3583
 6327TIP3   OH240471   0.205   2.819   1.586  0.4367  0.3637  0.6446
 6327TIP3    H140472   0.206   2.816   1.490  0.9755  3.4344  0.4457
 6327TIP3    H240473   0.261   2.746   1.613 -0.2706 -0.9911 -1.3119
 6328TIP3   OH240474   6.322   4.829   0.945  0.0108 -0.3687 -0.1515
 6328TIP3    H140475   6.237   4.789   0.926 -0.8250  1.2422  0.0268
 6328TIP3    H240476   6.380   4.755   0.964 -1.4616 -1.4775  0.1766
 6329TIP3   OH240477   4.999   1.209   2.738  0.1344  0.5089  0.5143
 6329TIP3    H140478   4.914   1.245   2.714 -0.8601 -2.3392 -0.7888
 6329TIP3    H240479   5.053   1.221   2.660  1.0384  2.4211  1.3808
 6330TIP3   OH240480   6.528   3.453  15.065  0.2267 -0.0568  0.1666
 6330TIP3    H140481   6.542   3.495  14.980  0.1234 -1.4050 -0.5448
 6330TIP3    H240482   6.570   3.367  15.057  0.4707 -0.1055  1.5911
 6331TIP3   OH240483   5.943   0.853   2.184 -0.3422 -1.0929  0.2408
 6331TIP3    H140484   5.973   0.906   2.258  0.1487 -0.0066 -0.7281
 6331TIP3    H240485   5.877   0.907   2.140  0.5861 -1.0091 -1.0987
 6332TIP3   OH240486   6.316   3.807  16.767 -0.3244 -0.0634  0.5559
 6332TIP3    H140487   6.325   3.746  16.693  1.7549 -0.8502  1.3817
 6332TIP3    H240488   6.275   3.755  16.835  0.7016 -0.3335  0.9884
 6333TIP3   OH240489   6.635   4.041   2.164  0.2483 -0.2623 -0.4546
 6333TIP3    H140490   6.555   4.080   2.197 -0.4358 -1.2980 -0.8188
 6333TIP3    H240491   6.679   4.112   2.117 -1.1096  0.0188 -1.3817
 6334TIP3   OH240492   4.092   5.605   0.821  0.2580  0.5435  0.0977
 6334TIP3    H140493   4.113   5.512   0.817 -1.5131 -0.0930  2.8385
 6334TIP3    H240494   4.123   5.633   0.907 -2.6717  1.4244  1.0033
 6335TIP3   OH240495   5.084   3.323   5.758 -0.0993  0.2159  0.2309
 6335TIP3    H140496   5.012   3.315   5.695  0.3094  1.5660 -0.4369
 6335TIP3    H240497   5.078   3.413   5.790  0.4913 -0.0648  1.1701
 6336TIP3   OH240498   3.872   5.219   3.943 -0.1470  0.6359  0.5779
 6336TIP3    H140499   3.848   5.311   3.935  1.2657  1.0526  0.8749
 6336TIP3    H240500   3.886   5.207   4.037  1.4056  0.6036  0.3685
 6337TIP3   OH240501   5.135   4.376  16.178 -0.4703  0.2117 -0.1518
 6337TIP3    H140502   5.173   4.463  16.165  1.9502 -0.9210 -1.3924
 6337TIP3    H240503   5.080   4.363  16.101  1.5284 -0.4216 -1.5685
 6338TIP3   OH240504   3.556   3.711  11.249 -0.3024  0.1918 -0.2139
 6338TIP3    H140505   3.474   3.679  11.213 -0.4175  1.0597 -0.7556
 6338TIP3    H240506   3.532   3.785  11.304 -0.0285 -0.5378  0.9353
 6339TIP3   OH240507   6.597   3.486  11.946  0.0957 -0.1469  0.8087
 6339TIP3    H140508   6.540   3.562  11.932  1.7469  0.8731 -0.6726
 6339TIP3    H240509   6.616   3.454  11.858  1.2527 -0.8886  1.3112
 6340TIP3   OH240510   4.082   5.834  13.598 -0.1724  0.0447 -0.1568
 6340TIP3    H140511   4.105   5.743  13.617 -1.4426  0.0377  1.5764
 6340TIP3    H240512   4.106   5.846  13.506  0.8450 -1.7585 -0.1786
 6341TIP3   OH240513   6.405   2.490  13.429  0.2015 -0.1860 -0.0353
 6341TIP3    H140514   6.327   2.540  13.407 -0.3447 -1.2414 -0.6144
 6341TIP3    H240515   6.376   2.398  13.425  0.7040 -0.5552  2.6314
 6342TIP3   OH240516   6.401   4.532  14.507 -0.0770  0.6412  0.2512
 6342TIP3    H140517   6.426   4.613  14.464  1.1606 -0.1061 -0.4994
 6342TIP3    H240518   6.312   4.515  14.476 -0.0925  1.3564 -0.1062
 6343TIP3   OH240519   2.677   0.004   1.114 -0.1309  0.1419 -0.3958
 6343TIP3    H140520   2.685   0.021   1.208 -1.3648  2.1463 -0.5782
 6343TIP3    H240521   2.746   0.058   1.075 -1.5447  1.7650 -0.7686
 6344TIP3   OH240522   0.167   6.633   5.251  0.2468 -0.0039 -0.1688
 6344TIP3    H140523   0.196   6.550   5.214  0.9349 -0.2904  0.9719
 6344TIP3    H240524   0.165   6.618   5.345 -2.6935  0.2967 -0.0775
 6345TIP3   OH240525   1.726   0.986   5.867 -0.0182  1.1385  0.2084
 6345TIP3    H140526   1.732   1.082   5.875 -4.5845  1.5106  2.8921
 6345TIP3    H240527   1.670   0.960   5.941 -0.1278 -3.4944 -1.2113
 6346TIP3   OH240528   0.392   3.316  13.120  0.6656 -0.0084  0.0903
 6346TIP3    H140529   0.406   3.301  13.214  1.5464 -2.2593 -0.3247
 6346TIP3    H240530   0.475   3.353  13.090  0.6646 -0.0191  0.0750
 6347TIP3   OH240531   4.924   0.430  11.454  0.3496  0.1453  0.1410
 6347TIP3    H140532   4.972   0.432  11.371 -1.0117  0.9772 -0.6654
 6347TIP3    H240533   4.859   0.499  11.445  0.4063  0.4981  2.0731
 6348TIP3   OH240534   3.570   4.296   2.825  0.0622  0.1656  0.4480
 6348TIP3    H140535   3.539   4.386   2.816 -0.9524  0.0602  2.4522
 6348TIP3    H240536   3.511   4.245   2.769  0.7350  0.7062 -0.8147
 6349TIP3   OH240537   5.884   0.952   4.844 -0.5652  0.8655 -0.0992
 6349TIP3    H140538   5.847   1.007   4.775 -1.8891  1.0768  0.7353
 6349TIP3    H240539   5.860   0.997   4.925  0.3835  0.2782  0.5280
 6350TIP3   OH240540   4.808   4.479  15.833 -0.2339  0.3337 -0.1380
 6350TIP3    H140541   4.787   4.431  15.753 -1.1161 -0.8673  0.7716
 6350TIP3    H240542   4.873   4.424  15.877 -0.2641  0.6467  0.2995
 6351TIP3   OH240543   0.563   2.382   2.785  0.1473  0.2817 -0.3990
 6351TIP3    H140544   0.577   2.437   2.862 -1.0784  0.0646  0.0001
 6351TIP3    H240545   0.468   2.381   2.773  0.2199 -0.9039 -1.0221
 6352TIP3   OH240546   0.527   6.141  14.158 -0.6165 -0.0615 -0.4361
 6352TIP3    H140547   0.577   6.059  14.156  0.4572  0.5344  0.3299
 6352TIP3    H240548   0.574   6.199  14.098  0.8419  1.1290  1.7251
 6353TIP3   OH240549   5.151   5.057   6.369  0.1897  0.4611  0.1782
 6353TIP3    H140550   5.240   5.070   6.404  0.4870 -0.7825 -0.0582
 6353TIP3    H240551   5.142   5.125   6.302  1.5267 -0.2497 -0.7880
 6354TIP3   OH240552   6.347   3.515  13.966  0.3227  0.0649 -0.0936
 6354TIP3    H140553   6.365   3.609  13.968  0.7061 -0.0172  1.5322
 6354TIP3    H240554   6.431   3.475  13.944  0.6279  0.0217  1.0921
 6355TIP3   OH240555   3.559   1.824  16.618 -0.4287  0.0409  0.1232
 6355TIP3    H140556   3.491   1.881  16.581 -1.0686 -0.7517  0.0626
 6355TIP3    H240557   3.639   1.851  16.573 -0.8820  0.2953 -0.5458
 6356TIP3   OH240558   2.386   2.623  11.448  0.3173  0.1067 -0.6478
 6356TIP3    H140559   2.432   2.632  11.532  0.9902  1.1338 -1.1054
 6356TIP3    H240560   2.433   2.553  11.403 -0.1273 -0.5382 -0.1184
 6357TIP3   OH240561   0.622   2.992  12.348  0.1296  0.4517 -0.5398
 6357TIP3    H140562   0.642   3.080  12.380  1.6000 -0.6386  1.8431
 6357TIP3    H240563   0.634   2.935  12.424  1.3117 -2.0779 -2.4452
 6358TIP3   OH240564   2.178   5.648   4.202  0.4310  0.0485  0.0575
 6358TIP3    H140565   2.238   5.575   4.186 -1.4566 -1.7399  0.6086
 6358TIP3    H240566   2.154   5.678   4.114 -1.5329 -2.4940 -0.4037
 6359TIP3   OH240567   4.221   1.199  13.813 -0.2092 -0.3088 -0.0262
 6359TIP3    H140568   4.154   1.259  13.779  0.1518 -0.8397 -1.7803
 6359TIP3    H240569   4.304   1.240  13.787  0.1252 -0.2777  1.0554
 6360TIP3   OH240570   3.158   5.632  12.265 -0.4441  0.3644 -0.1689
 6360TIP3    H140571   3.158   5.686  12.344 -1.1200  2.2801 -1.4062
 6360TIP3    H240572   3.087   5.570  12.279  1.5888 -1.6271  2.1135
 6361TIP3   OH240573   6.611   2.797  15.027  0.7049  0.3847  0.3552
 6361TIP3    H140574   6.575   2.716  15.062 -2.0892  1.3364 -0.0836
 6361TIP3    H240575   6.631   2.850  15.104  1.5193 -0.2985  0.6176
 6362TIP3   OH240576   4.786   3.398  17.079 -0.7841 -0.9023  0.0825
 6362TIP3    H140577   4.804   3.322  17.023  0.6949 -1.7540  1.6294
 6362TIP3    H240578   4.700   3.428  17.052 -0.7344 -2.1698 -1.6406
 6363TIP3   OH240579   6.250   5.847  14.182  0.0692  0.7751 -0.3786
 6363TIP3    H140580   6.194   5.922  14.161 -1.1773 -0.1953 -0.6519
 6363TIP3    H240581   6.281   5.816  14.097 -1.8652 -0.8139 -0.5700
 6364TIP3   OH240582   6.686   1.137  12.296  0.5334  0.1992  0.0850
 6364TIP3    H140583   6.707   1.123  12.388  0.8062 -1.3854 -0.1874
 6364TIP3    H240584   6.616   1.074  12.277 -1.2790  2.1777 -0.2152
 6365TIP3   OH240585   5.051   4.462   0.856 -0.3935 -0.2950  0.1760
 6365TIP3    H140586   5.146   4.459   0.845 -0.6018  0.2535 -2.2122
 6365TIP3    H240587   5.027   4.553   0.841 -1.3891 -0.5965 -0.1593
 6366TIP3   OH240588   0.940   1.239   2.573 -0.1869 -0.3281 -1.1397
 6366TIP3    H140589   1.009   1.196   2.623  0.1238  0.7038 -0.6546
 6366TIP3    H240590   0.907   1.171   2.515  1.4734 -0.7736 -1.6304
 6367TIP3   OH240591   2.870   0.547   4.545 -0.0671  0.3414 -0.0902
 6367TIP3    H140592   2.952   0.596   4.541 -0.5185  1.1767  0.5615
 6367TIP3    H240593   2.869   0.508   4.632  0.3936 -1.0378 -0.6845
 6368TIP3   OH240594   4.312   3.023  15.553  0.3611 -0.2415  0.6629
 6368TIP3    H140595   4.394   3.069  15.535  0.8903 -0.8075  1.5525
 6368TIP3    H240596   4.258   3.088  15.598  0.2141  0.2117 -0.1487
 6369TIP3   OH240597   4.811   3.862  13.949 -0.3053  0.3230 -0.6435
 6369TIP3    H140598   4.861   3.925  13.898  0.1213 -0.3827 -1.1131
 6369TIP3    H240599   4.833   3.777  13.911 -2.1193  0.0025 -1.1116
 6370TIP3   OH240600   5.714   3.937   3.516 -0.3719 -0.1961 -0.0598
 6370TIP3    H140601   5.653   3.864   3.514 -1.7807  0.8980 -2.5315
 6370TIP3    H240602   5.673   4.001   3.575 -0.8310 -0.1349 -0.4306
 6371TIP3   OH240603   3.127   2.983   4.418  0.5923 -0.0058  0.1687
 6371TIP3    H140604   3.096   2.985   4.328 -1.7277 -1.6757  0.8409
 6371TIP3    H240605   3.221   3.002   4.412  0.5016 -0.1117 -2.5692
 6372TIP3   OH240606   2.137   4.202   6.402  0.2510  0.0027 -0.0327
 6372TIP3    H140607   2.095   4.129   6.355 -1.3918  0.1721  1.0859
 6372TIP3    H240608   2.184   4.160   6.474  1.9536 -0.1692 -1.1736
 6373TIP3   OH240609   6.682   5.902  14.034 -0.1975 -0.1327 -0.2809
 6373TIP3    H140610   6.696   5.817  14.076 -0.7727 -0.4049 -0.6277
 6373TIP3    H240611   6.596   5.931  14.066  0.5571  0.9491  0.8780
 6374TIP3   OH240612   2.366   3.067   6.094 -0.2019 -0.0740  0.6961
 6374TIP3    H140613   2.402   3.005   6.157 -2.3865 -0.3382  1.7810
 6374TIP3    H240614   2.311   3.126   6.146  0.7807  2.0335 -0.4890
 6375TIP3   OH240615   0.966   0.214  10.888  0.0238  0.3699  0.6114
 6375TIP3    H140616   1.027   0.282  10.860 -0.5285  0.5511 -0.1664
 6375TIP3    H240617   0.902   0.207  10.817 -1.1173  0.4784  1.5918
 6376TIP3   OH240618   3.372   3.085  17.279  0.2648  0.0069  0.1000
 6376TIP3    H140619   3.384   3.158  17.339  1.8533 -0.3709  0.2893
 6376TIP3    H240620   3.371   3.125  17.192 -1.6150  0.5097  0.3081
 6377TIP3   OH240621   1.569   5.448  11.709  0.1637 -0.3918  0.4980
 6377TIP3    H140622   1.602   5.477  11.625 -2.6978  1.5798 -0.1164
 6377TIP3    H240623   1.576   5.352  11.707  1.1957 -0.3087 -1.4935
 6378TIP3   OH240624   3.411   4.016   4.827  0.0417  0.5399 -0.5506
 6378TIP3    H140625   3.375   4.012   4.916  3.5701  1.1529  1.0625
 6378TIP3    H240626   3.393   3.929   4.791 -0.4738 -0.1260  1.1974
 6379TIP3   OH240627   4.918   3.800  16.170 -0.2151  0.0380 -0.4227
 6379TIP3    H140628   4.961   3.800  16.256 -0.3004  0.8242 -0.3698
 6379TIP3    H240629   4.917   3.892  16.144 -0.8429 -0.1069 -0.9440
 6380TIP3   OH240630   6.447   5.228  15.197 -0.3205  0.7036 -0.5459
 6380TIP3    H140631   6.379   5.182  15.246 -0.0213 -0.9148 -1.5670
 6380TIP3    H240632   6.506   5.158  15.167  0.0151  1.7259 -2.3749
 6381TIP3   OH240633   6.431   3.196  16.415 -1.0717 -0.3415 -0.1180
 6381TIP3    H140634   6.441   3.118  16.361  1.4061 -1.1143  1.3077
 6381TIP3    H240635   6.466   3.267  16.362 -1.3417 -0.5587 -0.5980
 6382TIP3   OH240636   2.973   5.327   3.100 -0.6001  0.1362 -0.8611
 6382TIP3    H140637   2.948   5.316   3.192 -0.7666  1.7271 -0.6951
 6382TIP3    H240638   3.065   5.304   3.098 -0.6072  0.0327 -0.3015
 6383TIP3   OH240639   6.659   6.033   1.887  0.1084 -0.3355  0.0348
 6383TIP3    H140640   6.672   5.962   1.950  1.0420 -0.7823 -0.6356
 6383TIP3    H240641   6.648   5.989   1.803 -0.0753  0.2908 -0.2765
 6384TIP3   OH240642   6.252   1.700   3.364 -0.3383  0.1582 -0.0535
 6384TIP3    H140643   6.305   1.767   3.406 -1.2384  1.1972 -0.5404
 6384TIP3    H240644   6.316   1.643   3.320  0.5103 -0.0546  1.3838
 6385TIP3   OH240645   2.646   3.226   3.429  0.3554 -0.3162  0.1631
 6385TIP3    H140646   2.674   3.214   3.519  0.6150 -0.0706  0.1175
 6385TIP3    H240647   2.672   3.316   3.407 -2.9684  1.0157  1.0307
 6386TIP3   OH240648   4.033   4.519   6.106  0.0657  0.1616  0.0943
 6386TIP3    H140649   4.029   4.590   6.042 -0.0435 -0.5297 -0.6846
 6386TIP3    H240650   3.961   4.536   6.166 -0.3365  0.3811 -0.4456
 6387TIP3   OH240651   3.281   5.407   1.695 -0.1714  0.5983 -0.1290
 6387TIP3    H140652   3.264   5.454   1.777 -1.0913  0.6755 -0.3585
 6387TIP3    H240653   3.304   5.475   1.632 -3.3063  1.0280 -0.9564
 6388TIP3   OH240654   0.355   0.935   0.807  0.1754 -0.2071  0.3959
 6388TIP3    H140655   0.283   0.908   0.751  1.2493 -1.1065 -0.6082
 6388TIP3    H240656   0.356   1.031   0.800 -0.9270 -0.1841  0.4490
 6389TIP3   OH240657   1.122   3.165  12.913  0.1907  0.3296  0.3167
 6389TIP3    H140658   1.094   3.257  12.912 -0.7962  0.0306 -0.0540
 6389TIP3    H240659   1.173   3.156  12.832  1.5198  0.9079  1.0622
 6390TIP3   OH240660   6.171   2.756   1.256  0.3695 -0.0387 -0.2171
 6390TIP3    H140661   6.199   2.744   1.347 -0.7327 -1.9822 -0.0746
 6390TIP3    H240662   6.247   2.731   1.204  0.1984 -1.4460  0.1797
 6391TIP3   OH240663   6.494   0.126   0.855  0.2783  0.0982 -0.3733
 6391TIP3    H140664   6.488   0.137   0.760  1.3232 -0.8191 -0.5760
 6391TIP3    H240665   6.432   0.056   0.875  3.5270 -3.4275 -1.2263
 6392TIP3   OH240666   4.561   2.287   4.793  0.3853  0.3041  0.2391
 6392TIP3    H140667   4.473   2.324   4.792 -0.0190 -0.4209  2.2468
 6392TIP3    H240668   4.595   2.302   4.706 -1.9156  0.1712 -0.7612
 6393TIP3   OH240669   1.985   1.702  11.133  0.0744  0.3992 -0.4362
 6393TIP3    H140670   2.022   1.704  11.044  0.3620  1.3826 -0.3109
 6393TIP3    H240671   1.955   1.792  11.148  3.3642  1.3236  1.8092
 6394TIP3   OH240672   1.783   0.718   3.756  0.0817 -0.2488  0.0736
 6394TIP3    H140673   1.821   0.752   3.675 -1.1292  0.5244 -0.1969
 6394TIP3    H240674   1.694   0.692   3.731  0.3206 -1.8325  0.7249
 6395TIP3   OH240675   5.503   6.560  11.612  0.1877  0.0729  0.4562
 6395TIP3    H140676   5.415   6.533  11.584  0.7350 -1.0575 -0.2050
 6395TIP3    H240677   5.491   6.650  11.643 -1.2655 -0.1762  0.6858
 6396TIP3   OH240678   0.418   6.062   0.346 -0.6580  0.5188  0.2154
 6396TIP3    H140679   0.383   6.100   0.265  2.1463 -1.2381 -2.0185
 6396TIP3    H240680   0.381   5.973   0.348 -0.4842  0.4558  0.7504
 6397TIP3   OH240681   4.320   5.371  16.600  0.2255 -0.6608 -0.6160
 6397TIP3    H140682   4.272   5.415  16.670 -2.8996  0.0081 -2.9403
 6397TIP3    H240683   4.409   5.404  16.608 -0.5689  1.2958  1.5066
 6398TIP3   OH240684   2.300   2.168  14.168 -0.1806 -0.5649  0.2324
 6398TIP3    H140685   2.350   2.246  14.144 -1.3746 -0.0143 -0.5221
 6398TIP3    H240686   2.226   2.167  14.108 -1.5994 -0.8464  1.9120
 6399TIP3   OH240687   0.068   5.628   1.564 -0.1481 -0.1432 -0.0482
 6399TIP3    H140688   0.098   5.658   1.478 -1.0001  0.2209 -0.2397
 6399TIP3    H240689   0.001   5.693   1.588 -1.5845 -1.5222 -0.1717
 6400TIP3   OH240690   5.729   0.303  14.444 -0.3629  0.1528 -0.7116
 6400TIP3    H140691   5.714   0.224  14.392 -0.1929 -0.0138 -0.5078
 6400TIP3    H240692   5.661   0.364  14.416 -0.1524  0.1343 -1.2774
 6401TIP3   OH240693   0.678   3.367  15.776 -0.1443  0.0411 -0.2346
 6401TIP3    H140694   0.701   3.460  15.787  0.1197  0.0675 -0.9553
 6401TIP3    H240695   0.600   3.368  15.721  0.0343 -0.1755 -0.4933
 6402TIP3   OH240696   3.916   1.816  13.543 -0.1758 -0.0112  0.1061
 6402TIP3    H140697   3.824   1.828  13.518  0.2756  0.0254 -1.6948
 6402TIP3    H240698   3.963   1.884  13.495  0.9736 -0.9927 -0.2149
 6403TIP3   OH240699   5.744   6.298   2.336  0.4309  0.8437 -0.4820
 6403TIP3    H140700   5.663   6.315   2.385  0.5823  0.4575 -0.0931
 6403TIP3    H240701   5.808   6.359   2.373  0.8366 -0.1714  0.5628
 6404TIP3   OH240702   6.298   2.571   4.390  0.3868  0.3207  0.0000
 6404TIP3    H140703   6.222   2.514   4.401  0.5153  0.0719 -0.3776
 6404TIP3    H240704   6.274   2.631   4.320  0.5920  0.1440 -0.2253
 6405TIP3   OH240705   1.746   4.686   4.872 -0.4018 -0.3518 -0.1791
 6405TIP3    H140706   1.716   4.607   4.826 -1.6627 -0.2279  0.3944
 6405TIP3    H240707   1.673   4.747   4.865 -0.2390  0.0253  1.1559
 6406TIP3   OH240708   1.905   0.122  17.043  0.3831 -0.1793 -0.3464
 6406TIP3    H140709   1.982   0.177  17.029  1.3850 -1.6371 -0.7943
 6406TIP3    H240710   1.882   0.091  16.955 -1.1050  0.6899 -0.3058
 6407TIP3   OH240711   5.437   4.557  17.144 -0.1776  0.3908  0.4739
 6407TIP3    H140712   5.385   4.486  17.181 -0.5203 -0.9576 -2.2754
 6407TIP3    H240713   5.517   4.515  17.114 -0.1947  1.2183 -0.8183
 6408TIP3   OH240714   3.095   3.131   5.277  0.3298  0.7829  0.4731
 6408TIP3    H140715   3.109   3.226   5.283  0.7882  0.7031  0.6406
 6408TIP3    H240716   3.181   3.095   5.256  0.1093  0.4224  0.1688
 6409TIP3   OH240717   5.762   0.553   1.265  0.5144 -0.6650  0.5345
 6409TIP3    H140718   5.685   0.588   1.221  0.8950 -0.3079  0.1509
 6409TIP3    H240719   5.778   0.469   1.222  1.0148 -0.2190 -0.1693
 6410TIP3   OH240720   1.243   5.653  11.914  0.2080  0.7257 -0.3504
 6410TIP3    H140721   1.240   5.617  12.002  1.0302  0.9744 -0.2140
 6410TIP3    H240722   1.274   5.743  11.925  0.6473  0.6520 -0.9131
 6411TIP3   OH240723   4.162   4.560   1.027  0.2401  0.2775  0.4370
 6411TIP3    H140724   4.136   4.649   1.004 -2.3382 -0.4961  0.0811
 6411TIP3    H240725   4.162   4.512   0.944 -1.6791 -0.7705  0.9800
 6412TIP3   OH240726   4.213   6.072  13.685  0.1824  0.2180 -0.0611
 6412TIP3    H140727   4.163   5.996  13.656  2.5318 -1.1196 -0.8527
 6412TIP3    H240728   4.229   6.056  13.778  0.7447 -0.3027 -0.2470
 6413TIP3   OH240729   5.044   4.875   0.067  0.7817  0.1406  0.4017
 6413TIP3    H140730   5.084   4.933   0.002 -0.8575 -0.8682 -1.6183
 6413TIP3    H240731   5.056   4.921   0.151  2.8866  1.5395 -0.5621
 6414TIP3   OH240732   4.074   5.468   2.667  0.3951  0.0331  0.0219
 6414TIP3    H140733   4.068   5.400   2.734 -1.5118 -0.9628 -1.0897
 6414TIP3    H240734   4.136   5.432   2.602 -1.2074 -1.0853 -0.9637
 6415TIP3   OH240735   4.783   2.538  16.192 -0.1292 -0.1444  0.6308
 6415TIP3    H140736   4.787   2.609  16.127  1.9425  0.4983  1.3739
 6415TIP3    H240737   4.743   2.465  16.145 -0.7368  0.9802 -0.6768
 6416TIP3   OH240738   1.202   2.454  14.736 -0.0966  0.0882  0.0001
 6416TIP3    H140739   1.257   2.533  14.737  0.4755 -0.3035 -0.0032
 6416TIP3    H240740   1.137   2.472  14.668  1.1654 -0.1783 -1.3569
 6417TIP3   OH240741   2.670   1.872  12.801  0.2798 -0.7687  0.0221
 6417TIP3    H140742   2.626   1.879  12.886 -1.5461 -0.4816 -0.8843
 6417TIP3    H240743   2.598   1.862  12.738  1.3874  1.3522 -1.7385
 6418TIP3   OH240744   0.410   0.429   6.246  0.8781 -0.4402  0.0870
 6418TIP3    H140745   0.444   0.359   6.189  0.4199 -0.6540  0.0770
 6418TIP3    H240746   0.489   0.469   6.283  1.2014 -0.1305 -0.9008
 6419TIP3   OH240747   2.357   6.473  14.000 -0.4400  0.0669  0.2197
 6419TIP3    H140748   2.307   6.392  13.994 -0.4775  0.1008  0.0810
 6419TIP3    H240749   2.299   6.540  13.962  0.0239 -0.0301 -0.6737
 6420TIP3   OH240750   1.376   6.365   2.014  0.3565 -0.3611  0.1579
 6420TIP3    H140751   1.445   6.338   1.954  0.4332 -1.2379  0.6245
 6420TIP3    H240752   1.407   6.339   2.101 -1.7378 -3.5228  0.1445
 6421TIP3   OH240753   5.230   3.627  12.337  0.1306 -0.3493  0.1482
 6421TIP3    H140754   5.193   3.546  12.374 -1.4877  0.2120 -0.1506
 6421TIP3    H240755   5.167   3.652  12.269  1.1610  0.6052 -0.4675
 6422TIP3   OH240756   6.776   0.461  12.501  0.0090  0.0223 -0.2351
 6422TIP3    H140757   6.722   0.419  12.433 -2.1292 -1.1171  2.0124
 6422TIP3    H240758   6.750   0.554  12.497 -1.0978 -0.2669 -0.1243
 6423TIP3   OH240759   6.498   1.861  16.596  0.2891 -0.9784  0.0360
 6423TIP3    H140760   6.412   1.838  16.560 -0.3991  1.4420 -0.0843
 6423TIP3    H240761   6.559   1.802  16.552 -0.7592  0.2780 -3.4925
 6424TIP3   OH240762   6.788   0.512  11.492 -0.1467 -0.4075 -0.0030
 6424TIP3    H140763   6.745   0.434  11.528 -2.8435  0.0574 -1.9459
 6424TIP3    H240764   6.805   0.491  11.401  0.6711  0.6949 -0.1302
 6425TIP3   OH240765   3.616   1.864  12.099  0.2736  0.4854  0.2387
 6425TIP3    H140766   3.635   1.930  12.032 -0.4312  0.3190 -0.1362
 6425TIP3    H240767   3.672   1.888  12.173 -0.4701  1.9462  0.3792
 6426TIP3   OH240768   0.320   4.328   0.570  0.2155 -0.1914  0.3350
 6426TIP3    H140769   0.256   4.312   0.500  0.1738  1.5399 -0.0674
 6426TIP3    H240770   0.390   4.266   0.553 -0.1208 -0.2746 -0.8468
 6427TIP3   OH240771   1.929   1.109   6.119  0.5100  0.7028 -0.3681
 6427TIP3    H140772   1.969   1.171   6.181  0.3219  0.1862  0.2850
 6427TIP3    H240773   1.882   1.164   6.057  1.1567  1.2607 -0.3799
 6428TIP3   OH240774   2.858   0.813  11.419 -0.2221 -0.4410  0.0530
 6428TIP3    H140775   2.816   0.789  11.501  0.8114 -0.6314  0.5299
 6428TIP3    H240776   2.887   0.904  11.432 -2.8503  0.7265 -1.2437
 6429TIP3   OH240777   6.181   0.923   5.936 -0.1845 -0.0678  0.2413
 6429TIP3    H140778   6.164   1.004   5.983  0.2846  0.9532 -1.2705
 6429TIP3    H240779   6.269   0.896   5.964  1.2388  1.9453 -1.8280
 6430TIP3   OH240780   6.062   4.246   3.020 -0.0417  0.1292 -0.3551
 6430TIP3    H140781   5.988   4.304   3.040 -0.3900 -0.6148  0.5454
 6430TIP3    H240782   6.121   4.255   3.095 -0.5385 -1.3684  0.2483
 6431TIP3   OH240783   5.817   2.297   0.846  0.3227  0.2429  0.4659
 6431TIP3    H140784   5.906   2.306   0.812  0.1463  1.1435  0.2260
 6431TIP3    H240785   5.761   2.311   0.769 -0.0790  2.0536  1.0395
 6432TIP3   OH240786   2.850   4.544   0.291  0.1664  0.5602  0.0611
 6432TIP3    H140787   2.924   4.604   0.304  0.5651  0.3173 -0.9980
 6432TIP3    H240788   2.888   4.469   0.245 -0.5940  0.0811  0.2031
 6433TIP3   OH240789   1.474   3.748  16.071 -0.3210  0.5245  0.6080
 6433TIP3    H140790   1.480   3.659  16.107 -2.1995 -0.1523 -0.5832
 6433TIP3    H240791   1.389   3.750  16.028  0.8945  1.9428 -1.9635
 6434TIP3   OH240792   2.558   4.708  10.861 -0.0039 -0.1748  0.1032
 6434TIP3    H140793   2.534   4.619  10.835 -1.6285  0.8253 -2.1081
 6434TIP3    H240794   2.476   4.748  10.889  0.6978  0.6674  1.0147
 6435TIP3   OH240795   1.817   3.274  13.893  0.0661 -0.3357 -0.1726
 6435TIP3    H140796   1.882   3.298  13.828 -1.1456 -0.6747 -1.5677
 6435TIP3    H240797   1.772   3.356  13.913  1.9744  0.2589  2.1131
 6436TIP3   OH240798   2.808   5.591  13.154  0.0427 -0.1595  0.7768
 6436TIP3    H140799   2.793   5.666  13.096 -0.3963 -0.7125  0.1477
 6436TIP3    H240800   2.880   5.618  13.211  0.0424  0.6504  0.4055
 6437TIP3   OH240801   1.203   5.481   0.661 -0.0907  0.4964  0.1647
 6437TIP3    H140802   1.209   5.459   0.754  2.7577  1.1994  0.2374
 6437TIP3    H240803   1.171   5.571   0.660 -0.3563  0.4095  0.4304
 6438TIP3   OH240804   2.756   6.324   2.370  0.5150  0.3968  0.0667
 6438TIP3    H140805   2.797   6.238   2.359  0.3467  0.5602 -2.4136
 6438TIP3    H240806   2.829   6.382   2.392  1.4125  0.3100 -2.3201
 6439TIP3   OH240807   3.317   0.957  11.251  0.4560  0.5685 -0.0687
 6439TIP3    H140808   3.287   0.868  11.237  0.2604  0.7757 -1.0977
 6439TIP3    H240809   3.317   0.996  11.163  0.7721  1.5021  0.3309
 6440TIP3   OH240810   4.918   5.922   1.463  0.2799  0.2677 -0.4713
 6440TIP3    H140811   4.865   5.843   1.449 -0.2923  0.7215 -0.9118
 6440TIP3    H240812   4.995   5.891   1.510 -0.6191 -0.3401  0.6652
 6441TIP3   OH240813   6.387   5.695  15.753 -0.4184 -0.1723 -0.0638
 6441TIP3    H140814   6.407   5.602  15.743  0.0426 -0.1437  0.5414
 6441TIP3    H240815   6.470   5.735  15.779 -0.6698  0.3726 -0.0681
 6442TIP3   OH240816   6.099   3.629  15.548 -0.2329 -0.6787  0.2399
 6442TIP3    H140817   6.069   3.582  15.470  0.4279 -0.5769 -0.0838
 6442TIP3    H240818   6.181   3.670  15.520 -0.1137 -0.4523  0.9241
 6443TIP3   OH240819   3.896   2.375  12.832 -0.2251  0.0555  0.6897
 6443TIP3    H140820   3.810   2.388  12.791 -1.6897  0.0907  3.5195
 6443TIP3    H240821   3.891   2.287  12.870  1.1527 -0.0794  0.6031
 6444TIP3   OH240822   1.349   1.456   5.043  0.1735  0.2529 -0.5757
 6444TIP3    H140823   1.351   1.543   5.083  0.9670 -0.0111 -0.0421
 6444TIP3    H240824   1.265   1.455   4.995  1.1532  2.1824 -2.5543
 6445TIP3   OH240825   3.379   0.399  16.003 -0.5402  0.0336 -0.5214
 6445TIP3    H140826   3.365   0.484  16.044  0.2222  0.7180 -1.6238
 6445TIP3    H240827   3.456   0.411  15.947  0.2043 -1.6677  0.0569
 6446TIP3   OH240828   3.949   6.591  10.873 -0.1732 -0.0876 -0.0986
 6446TIP3    H140829   3.969   6.649  10.800  0.6964 -0.9477 -0.5616
 6446TIP3    H240830   3.860   6.616  10.899 -0.7693 -0.2172 -1.8766
 6447TIP3   OH240831   0.055   3.104  17.131 -0.5650  0.5704  0.2297
 6447TIP3    H140832   0.137   3.107  17.179  0.1792  2.5183 -1.0402
 6447TIP3    H240833   0.021   3.016  17.146  2.8959 -1.1540 -1.0820
 6448TIP3   OH240834   1.734   3.361  14.328  0.4224 -0.4474  0.1825
 6448TIP3    H140835   1.726   3.400  14.415 -1.0781  0.2540 -0.2440
 6448TIP3    H240836   1.803   3.412  14.285  2.2559 -1.7717  1.4313
 6449TIP3   OH240837   5.133   6.310   3.413 -0.0859 -0.7165  0.3721
 6449TIP3    H140838   5.078   6.377   3.372  0.3448 -1.5393 -1.6669
 6449TIP3    H240839   5.072   6.241   3.439 -0.4887  0.2644  2.1601
 6450TIP3   OH240840   3.504   6.773   0.373  0.0966 -0.2578 -0.4278
 6450TIP3    H140841   3.510   6.783   0.278  0.4797  1.7114 -0.2250
 6450TIP3    H240842   3.423   6.819   0.397  0.9077  0.7916  0.3757
 6451TIP3   OH240843   1.669   0.583   1.252  0.3316 -0.2725  0.0414
 6451TIP3    H140844   1.746   0.638   1.266 -0.2116  0.7802 -0.9336
 6451TIP3    H240845   1.610   0.605   1.324 -0.3115  1.2692 -0.8816
 6452TIP3   OH240846   2.394   4.006   0.393 -0.0869 -0.1710 -0.0127
 6452TIP3    H140847   2.385   4.067   0.320  0.0789 -0.3055 -0.1470
 6452TIP3    H240848   2.309   3.963   0.400  0.1012 -0.6454 -0.5673
 6453TIP3   OH240849   1.441   6.672  14.663 -0.2438 -0.2140 -0.0543
 6453TIP3    H140850   1.460   6.693  14.754 -0.0824  1.2996 -0.4065
 6453TIP3    H240851   1.349   6.646  14.663 -1.1545  2.6684  0.1656
 6454TIP3   OH240852   2.282   0.107   4.105  0.3125 -0.2172 -0.2965
 6454TIP3    H140853   2.261   0.165   4.031  0.0413 -0.5627 -0.4933
 6454TIP3    H240854   2.219   0.035   4.097  0.1276 -0.1363  0.4141
 6455TIP3   OH240855   4.260   0.587  15.597 -0.4358  0.0822  0.3137
 6455TIP3    H140856   4.301   0.524  15.538  0.6419  1.4048 -0.4222
 6455TIP3    H240857   4.177   0.547  15.622  0.1208 -1.5205 -0.2709
 6456TIP3   OH240858   5.769   4.410  15.408  0.2669  0.1371  0.4856
 6456TIP3    H140859   5.826   4.337  15.386  1.6314  1.8991 -2.5727
 6456TIP3    H240860   5.707   4.414  15.335 -0.4585  1.3798  1.1358
 6457TIP3   OH240861   2.127   4.828   0.434 -0.2827  0.0939  0.5239
 6457TIP3    H140862   2.209   4.861   0.397 -1.5472  1.5530 -1.1529
 6457TIP3    H240863   2.109   4.747   0.386  0.3296 -0.4308  1.1574
 6458TIP3   OH240864   3.920   1.979   4.613  0.0323 -0.1888 -0.0570
 6458TIP3    H140865   3.947   1.893   4.581  2.8474  0.1886  0.9547
 6458TIP3    H240866   3.882   1.962   4.699 -0.5397 -0.5179 -0.3718
 6459TIP3   OH240867   2.760   6.552  12.011  0.8269  0.1405 -0.2919
 6459TIP3    H140868   2.844   6.533  12.051  1.0153 -1.6365 -1.4303
 6459TIP3    H240869   2.779   6.618  11.944  0.8968  1.4023  0.9321
 6460TIP3   OH240870   6.364   2.009   1.379 -0.2424 -0.2119 -0.0683
 6460TIP3    H140871   6.392   1.956   1.454 -1.2790 -0.0652  0.4409
 6460TIP3    H240872   6.382   1.953   1.303  0.2595 -0.6090  0.3320
 6461TIP3   OH240873   2.134   3.477  11.320  0.0272 -0.5267 -0.2528
 6461TIP3    H140874   2.123   3.502  11.228  0.4032  0.3472 -0.0760
 6461TIP3    H240875   2.229   3.472  11.332  0.0546  1.0440  0.4840
 6462TIP3   OH240876   3.839   0.874  10.486 -0.0655  0.2337 -0.3066
 6462TIP3    H140877   3.886   0.794  10.460  0.6127  0.8841 -1.1327
 6462TIP3    H240878   3.908   0.936  10.509 -0.5034  1.2149 -1.5569
 6463TIP3   OH240879   4.158   5.624  10.963  0.3010 -0.1375  0.1281
 6463TIP3    H140880   4.177   5.676  10.885 -1.2020 -1.2372 -1.0145
 6463TIP3    H240881   4.117   5.545  10.930 -2.0639  0.1404  2.1285
 6464TIP3   OH240882   3.295   1.598  12.228 -0.1904  0.1598  0.1545
 6464TIP3    H140883   3.282   1.553  12.312  2.2551 -1.2857 -0.1376
 6464TIP3    H240884   3.314   1.689  12.253 -0.6347  0.0070  1.0920
 6465TIP3   OH240885   5.184   3.366   1.037  0.3192  0.1148 -0.1438
 6465TIP3    H140886   5.176   3.353   0.942  2.3153  0.1185 -0.3631
 6465TIP3    H240887   5.116   3.429   1.059  1.4875  2.2278 -2.0812
 6466TIP3   OH240888   6.535   6.343  11.187  0.3367  0.5756 -0.3172
 6466TIP3    H140889   6.480   6.266  11.202  0.3870  0.8653  1.5128
 6466TIP3    H240890   6.505   6.378  11.103  0.2850 -1.4017 -1.1832
 6467TIP3   OH240891   2.385   0.835  11.200  0.0270  0.2277  0.5710
 6467TIP3    H140892   2.315   0.812  11.261 -0.3736  0.3275  0.1540
 6467TIP3    H240893   2.463   0.793  11.236 -0.8829 -3.0241 -0.8439
 6468TIP3   OH240894   6.382   2.663  15.537  1.3321 -0.8221  0.1012
 6468TIP3    H140895   6.351   2.729  15.599  2.0490  0.0019 -0.3999
 6468TIP3    H240896   6.478   2.669  15.542  1.4174 -0.3360 -1.4816
 6469TIP3   OH240897   3.181   2.636   1.700 -0.2258 -0.2562  0.9431
 6469TIP3    H140898   3.194   2.633   1.795  0.4913 -2.9374  0.8299
 6469TIP3    H240899   3.223   2.556   1.667 -1.7623 -0.1707 -1.4593
 6470TIP3   OH240900   5.899   2.357  12.742 -1.6511  0.4114 -0.3434
 6470TIP3    H140901   5.912   2.356  12.837 -2.1071 -1.8078 -0.2341
 6470TIP3    H240902   5.816   2.310  12.729 -0.2889 -1.7226 -1.9365
 6471TIP3   OH240903   3.408   3.063   0.701 -0.2429 -0.0499  0.6148
 6471TIP3    H140904   3.420   3.152   0.667  2.2087 -0.6446 -0.3027
 6471TIP3    H240905   3.403   3.074   0.796  1.1783  1.0254  0.6052
 6472TIP3   OH240906   5.282   0.596   0.468 -0.0110 -0.6900 -0.2915
 6472TIP3    H140907   5.373   0.617   0.487 -0.1856 -0.1664 -0.0139
 6472TIP3    H240908   5.284   0.560   0.379  0.4943 -0.9016 -0.1984
 6473TIP3   OH240909   2.520   1.761  16.826  0.2973  0.0096  0.5192
 6473TIP3    H140910   2.490   1.671  16.824  1.1066 -0.2503 -0.7448
 6473TIP3    H240911   2.607   1.757  16.864  1.0675  0.0005 -1.1602
 6474TIP3   OH240912   4.013   5.738   3.977 -0.1185 -0.2306 -0.2852
 6474TIP3    H140913   3.972   5.743   4.064  1.2524  3.4502  0.3595
 6474TIP3    H240914   4.107   5.748   3.995  0.1264  1.4103 -2.1639
 6475TIP3   OH240915   5.651   4.283   5.866  0.1961 -0.4812 -0.2112
 6475TIP3    H140916   5.664   4.274   5.960 -0.0973  0.9015 -0.0122
 6475TIP3    H240917   5.579   4.223   5.845  0.3857 -0.9276  0.3973
 6476TIP3   OH240918   1.391   2.361   3.517 -0.0091  0.0197  0.5442
 6476TIP3    H140919   1.435   2.416   3.453 -0.9507 -0.3061 -0.4010
 6476TIP3    H240920   1.463   2.317   3.564  0.6929  0.0560 -0.4611
 6477TIP3   OH240921   1.255   0.493   4.270 -0.4202 -0.1640 -0.2379
 6477TIP3    H140922   1.333   0.465   4.318 -0.6578  0.6990  0.6737
 6477TIP3    H240923   1.182   0.475   4.330 -0.7315  0.8024 -0.3030
 6478TIP3   OH240924   4.581   5.921   5.503  0.0916 -0.1019 -0.2552
 6478TIP3    H140925   4.616   6.004   5.471 -0.4310 -0.2327 -1.2109
 6478TIP3    H240926   4.605   5.918   5.596  0.0264  1.1628 -0.1852
 6479TIP3   OH240927   1.548   4.038   1.650 -0.5626 -0.5596  0.1033
 6479TIP3    H140928   1.503   4.011   1.730 -1.9942  0.4862 -0.3103
 6479TIP3    H240929   1.480   4.077   1.596  0.2773 -1.6349 -1.8381
 6480TIP3   OH240930   5.937   3.050  13.117  0.2920  0.0095 -0.1207
 6480TIP3    H140931   5.945   3.136  13.074 -0.4446  0.7194  1.1020
 6480TIP3    H240932   5.958   3.068  13.209 -0.9290 -0.9069  0.3548
 6481TIP3   OH240933   1.517   5.881  15.675  0.6436  0.2934 -0.0480
 6481TIP3    H140934   1.433   5.890  15.631 -0.7566  0.0466  2.3546
 6481TIP3    H240935   1.568   5.957  15.646 -1.1803  1.5952 -0.0599
 6482TIP3   OH240936   1.693   6.703  10.974 -0.1187 -0.7834  0.4550
 6482TIP3    H140937   1.597   6.703  10.969 -0.3202 -0.1751  2.8825
 6482TIP3    H240938   1.714   6.777  11.031  1.5991 -2.3807  2.0308
 6483TIP3   OH240939   3.079   0.921  11.003  0.2028 -0.2892  0.3250
 6483TIP3    H140940   3.057   0.888  11.090 -0.1647  1.0202  0.7655
 6483TIP3    H240941   2.995   0.927  10.957  0.3988 -1.0049 -0.1444
 6484TIP3   OH240942   1.697   0.047   5.282  0.5743  0.3046 -0.2002
 6484TIP3    H140943   1.724   0.039   5.190 -0.3063 -0.8257 -0.3730
 6484TIP3    H240944   1.771   0.090   5.324  1.4958 -0.2390 -1.2084
 6485TIP3   OH240945   3.812   0.715  10.778  0.4670  0.4351 -0.1641
 6485TIP3    H140946   3.877   0.777  10.811  0.3428  0.5619 -0.1544
 6485TIP3    H240947   3.793   0.744  10.689  0.6926  0.1809 -0.2974
 6486TIP3   OH240948   3.292   5.341  15.564  0.0019  0.1200 -0.0107
 6486TIP3    H140949   3.275   5.324  15.656  0.0122  2.6409  0.5303
 6486TIP3    H240950   3.283   5.256  15.521 -1.6056 -0.8210  2.0666
 6487TIP3   OH240951   1.165   3.744  16.028 -0.2019  0.0429  0.3610
 6487TIP3    H140952   1.075   3.771  16.009  0.4343  1.3971 -0.9987
 6487TIP3    H240953   1.190   3.690  15.953  0.3036  0.1623  0.4413
 6488TIP3   OH240954   3.330   4.317   2.424  0.1199 -0.3317  0.4142
 6488TIP3    H140955   3.247   4.272   2.407  0.4600 -0.9164  0.2819
 6488TIP3    H240956   3.359   4.348   2.338 -0.7748  1.3427  0.6717
 6489TIP3   OH240957   6.726   5.864   3.299 -0.3148  0.3527 -0.1178
 6489TIP3    H140958   6.719   5.956   3.274 -2.1258  0.8829  1.9966
 6489TIP3    H240959   6.657   5.821   3.249 -0.2322  0.3593 -0.2376
 6490TIP3   OH240960   6.810   5.290   6.480  0.7692 -0.2293 -0.0495
 6490TIP3    H140961   6.823   5.218   6.542  2.0193  0.4283  0.4866
 6490TIP3    H240962   6.771   5.248   6.403 -4.0369 -0.5782  2.2358
 6491TIP3   OH240963   1.436   4.049   5.963  0.1943 -0.3151 -0.2971
 6491TIP3    H140964   1.347   4.020   5.941 -0.4871  0.9734  0.6334
 6491TIP3    H240965   1.483   4.047   5.880 -0.1844 -2.6945 -0.5149
 6492TIP3   OH240966   3.980   1.021   2.877 -0.2698  0.1230  0.0622
 6492TIP3    H140967   4.016   1.004   2.791 -1.7260  2.1636 -1.0471
 6492TIP3    H240968   4.036   1.089   2.914 -0.1499 -0.1447  0.3819
 6493TIP3   OH240969   6.326   6.525  15.143  0.1709 -0.5784  0.1590
 6493TIP3    H140970   6.237   6.548  15.118 -0.0550  0.7178  1.8980
 6493TIP3    H240971   6.375   6.522  15.061 -1.2564 -0.2601 -0.7291
 6494TIP3   OH240972   0.641   0.720  14.167 -0.3981  0.1027 -0.3946
 6494TIP3    H140973   0.592   0.734  14.248 -0.2799 -0.3789 -0.2381
 6494TIP3    H240974   0.688   0.802  14.153 -0.8966  0.4101 -0.3069
 6495TIP3   OH240975   6.262   4.611  15.396 -0.0646  0.1750  0.6433
 6495TIP3    H140976   6.215   4.589  15.476 -0.5220  0.6221  0.4991
 6495TIP3    H240977   6.269   4.706  15.396 -1.0895  0.2745 -0.4054
 6496TIP3   OH240978   0.806   1.927  13.434 -0.3306 -0.2944  0.0043
 6496TIP3    H140979   0.776   1.948  13.346  1.8107 -0.8524 -0.9162
 6496TIP3    H240980   0.787   2.006  13.485  0.4276  0.8965 -1.4906
 6497TIP3   OH240981   2.519   2.200  15.060 -0.4485 -0.0021 -0.6182
 6497TIP3    H140982   2.446   2.138  15.063  0.1641 -0.7034  0.7789
 6497TIP3    H240983   2.594   2.147  15.034 -0.2743  0.5435 -1.2266
 6498TIP3   OH240984   5.723   3.293  13.304 -0.1247 -0.2290 -0.1857
 6498TIP3    H140985   5.783   3.230  13.343 -0.7538 -1.6841 -1.4403
 6498TIP3    H240986   5.654   3.239  13.265 -1.7356  1.3407  0.3524
 6499TIP3   OH240987   5.480   1.796   1.618  0.8566  0.3834 -0.3414
 6499TIP3    H140988   5.575   1.779   1.614  0.9400  1.0106 -1.4586
 6499TIP3    H240989   5.458   1.827   1.530 -0.3178  0.6367  0.0318
 6500TIP3   OH240990   4.971   2.887   2.474  0.4159  1.1360 -0.2027
 6500TIP3    H140991   4.889   2.892   2.425  0.4937  3.1413 -0.2339
 6500TIP3    H240992   4.944   2.896   2.566  0.3314 -1.9237  0.1713
 6501TIP3   OH240993   4.130   3.931  11.043  0.0763 -0.2163  0.4608
 6501TIP3    H140994   4.119   3.853  10.989 -1.4073  0.3024 -0.0375
 6501TIP3    H240995   4.115   4.004  10.983 -1.7029  0.3756  1.5436
 6502TIP3   OH240996   6.203   2.997   1.052  0.0413 -0.4499 -0.2338
 6502TIP3    H140997   6.118   2.968   1.018 -0.7537 -0.8676  1.9746
 6502TIP3    H240998   6.253   2.916   1.061  0.2619 -0.3340 -0.4019
 6503TIP3   OH240999   5.721   3.247   6.173  0.1960  0.2522 -0.0104
 6503TIP3    H141000   5.628   3.237   6.193  0.2108 -1.3809 -0.6298
 6503TIP3    H241001   5.735   3.342   6.168 -1.7091  0.5064 -1.2008
 6504TIP3   OH241002   4.325   4.863   1.363  0.3715  0.1280 -0.0079
 6504TIP3    H141003   4.333   4.900   1.275  2.7827 -1.4734 -0.5636
 6504TIP3    H241004   4.292   4.774   1.348 -2.5518  0.9316  1.0624
 6505TIP3   OH241005   0.279   2.084   5.875  0.0057  0.4585 -0.2909
 6505TIP3    H141006   0.345   2.120   5.815  0.7443  0.1413  0.3300
 6505TIP3    H241007   0.278   2.145   5.949 -0.2651  0.3551 -0.2078
 6506TIP3   OH241008   0.446   0.635   3.358 -0.4326  0.4330  0.1171
 6506TIP3    H141009   0.355   0.644   3.388 -0.5837 -2.0628  0.5984
 6506TIP3    H241010   0.439   0.590   3.274  0.3315  1.5924 -0.5951
 6507TIP3   OH241011   6.405   4.954   2.254 -0.1613 -0.7383  0.1843
 6507TIP3    H141012   6.369   4.871   2.284  0.0483 -0.6388  0.7282
 6507TIP3    H241013   6.499   4.941   2.255 -0.0138  0.0774  2.1012
 6508TIP3   OH241014   4.783   6.303   2.034 -0.0901  0.6816  0.0397
 6508TIP3    H141015   4.710   6.334   2.088 -0.2546 -0.0617  0.2612
 6508TIP3    H241016   4.793   6.211   2.059 -0.6368  0.1213 -1.7040
 6509TIP3   OH241017   5.313   4.833  13.668 -0.4650 -0.4990  0.1053
 6509TIP3    H141018   5.367   4.841  13.747 -4.0615 -0.4077  2.8269
 6509TIP3    H241019   5.255   4.909  13.671 -1.5897 -1.2089 -1.9251
 6510TIP3   OH241020   4.688   3.917   4.338  0.2395  0.5914  0.4893
 6510TIP3    H141021   4.597   3.902   4.365  0.0365 -0.0253 -0.4989
 6510TIP3    H241022   4.682   3.951   4.248  1.0388 -1.4709 -0.3992
 6511TIP3   OH241023   0.600   3.064  15.839 -0.3905  0.6507  0.0809
 6511TIP3    H141024   0.579   3.030  15.752  1.3043  0.1882 -0.1839
 6511TIP3    H241025   0.688   3.101  15.830  0.9238 -1.6601  2.1610
 6512TIP3   OH241026   2.139   3.750  13.611 -0.4566 -0.2686 -0.3255
 6512TIP3    H141027   2.223   3.714  13.638 -0.6757 -1.4966 -1.2337
 6512TIP3    H241028   2.082   3.737  13.687  0.0790  0.3279  0.1957
 6513TIP3   OH241029   2.783   4.934   3.428  0.7643 -0.0324 -0.0027
 6513TIP3    H141030   2.841   4.861   3.403  1.4915  0.1139  1.2038
 6513TIP3    H241031   2.775   4.986   3.348  3.0976  0.4718  0.0434
 6514TIP3   OH241032   1.217   3.891  10.306 -0.4208 -0.4324 -0.0068
 6514TIP3    H141033   1.127   3.907  10.336 -1.3825 -1.4911 -2.0512
 6514TIP3    H241034   1.256   3.838  10.374 -0.7069  1.5385  1.7821
 6515TIP3   OH241035   4.515   3.761   4.661  0.0669  0.7429  0.0542
 6515TIP3    H141036   4.499   3.721   4.576 -2.0785 -2.8606  1.8907
 6515TIP3    H241037   4.429   3.789   4.692  0.9152  2.7602  0.7521
 6516TIP3   OH241038   1.138   1.123  13.564  0.3258  0.0803  0.3191
 6516TIP3    H141039   1.107   1.178  13.493 -0.1566 -1.1275 -0.4258
 6516TIP3    H241040   1.149   1.183  13.638 -1.7615  0.9097  0.0144
 6517TIP3   OH241041   1.260   1.694   4.540 -0.3803 -0.3028  0.0325
 6517TIP3    H141042   1.321   1.675   4.612  1.5974 -2.1124 -1.9610
 6517TIP3    H241043   1.312   1.744   4.477 -1.1564 -1.2251 -1.3937
 6518TIP3   OH241044   2.606   5.583  14.040  0.1546 -0.2700 -0.0698
 6518TIP3    H141045   2.575   5.623  13.958 -2.0025 -2.2517 -0.3280
 6518TIP3    H241046   2.701   5.592  14.037 -0.0021  1.4610 -1.8317
 6519TIP3   OH241047   2.589   6.007  15.426 -0.0719  0.4696  0.2496
 6519TIP3    H141048   2.610   6.077  15.365 -1.5498  1.6157  1.0022
 6519TIP3    H241049   2.494   6.008  15.433 -0.2825 -2.4203 -0.6144
 6520TIP3   OH241050   4.180   5.033   4.150  0.0726 -0.3656  0.7355
 6520TIP3    H141051   4.096   4.992   4.170 -0.8523  0.5278 -1.0754
 6520TIP3    H241052   4.233   5.017   4.228 -2.0367 -0.2594  2.2928
 6521TIP3   OH241053   0.926   3.395  12.850 -0.3245 -0.0410 -0.0027
 6521TIP3    H141054   0.851   3.402  12.909  0.3584  0.7555  0.8155
 6521TIP3    H241055   0.933   3.482  12.810 -0.8565 -0.6113 -1.3847
 6522TIP3   OH241056   0.544   4.855   3.078 -0.2913 -0.0220  0.4504
 6522TIP3    H141057   0.580   4.770   3.103 -1.5989 -0.4503  0.9657
 6522TIP3    H241058   0.459   4.834   3.038  1.3344  0.6389 -3.9118
 6523TIP3   OH241059   3.822   1.630  10.542 -0.4230 -0.4277  0.0302
 6523TIP3    H141060   3.867   1.640  10.626 -0.4042  1.7322 -0.1718
 6523TIP3    H241061   3.864   1.555  10.500  0.1393 -1.0137  1.5860
 6524TIP3   OH241062   5.523   2.598   4.944  0.0815  0.0509  0.6141
 6524TIP3    H141063   5.559   2.589   4.856 -0.2721  1.2383  0.3315
 6524TIP3    H241064   5.599   2.621   4.998  0.0709  0.7412  0.3499
 6525TIP3   OH241065   1.024   2.897   1.036 -0.1251  0.1596 -0.2836
 6525TIP3    H141066   0.943   2.900   1.087  0.5378 -0.7955  0.8858
 6525TIP3    H241067   1.015   2.819   0.981 -0.5320  0.7800 -1.1103
 6526TIP3   OH241068   0.352   4.197   5.654 -0.0174  0.2255  0.1968
 6526TIP3    H141069   0.412   4.124   5.668  0.4123  0.0062 -2.3726
 6526TIP3    H241070   0.407   4.275   5.665  0.8356  0.0257 -2.1621
 6527TIP3   OH241071   2.587   1.131  10.568  0.1131  0.7551 -0.0373
 6527TIP3    H141072   2.633   1.048  10.559  1.2254  1.3181  0.3442
 6527TIP3    H241073   2.579   1.164  10.479 -1.4106 -0.3012 -0.3378
 6528TIP3   OH241074   3.267   0.333   4.799 -0.3978  0.5039  0.2822
 6528TIP3    H141075   3.238   0.253   4.755  0.5295  0.4681 -0.2889
 6528TIP3    H241076   3.341   0.306   4.852  0.8083  1.1995 -0.9662
 6529TIP3   OH241077   2.350   0.990  10.673  0.2909 -0.0938 -0.0328
 6529TIP3    H141078   2.357   0.959  10.763  0.5929 -0.6881 -0.2553
 6529TIP3    H241079   2.318   0.915  10.624  0.1794  0.2107 -0.4318
 6530TIP3   OH241080   1.600   3.969   1.369  0.0910 -0.2084 -0.0582
 6530TIP3    H141081   1.645   4.003   1.292  0.4752  2.3031  1.1422
 6530TIP3    H241082   1.543   4.041   1.397 -2.2686 -2.1075  0.3598
 6531TIP3   OH241083   5.788   3.995  15.298  0.2332  0.1211 -0.8141
 6531TIP3    H141084   5.863   4.025  15.350 -0.2676  0.1356 -0.0789
 6531TIP3    H241085   5.714   4.046  15.332 -0.3472 -0.8267 -0.6071
 6532TIP3   OH241086   1.617   6.348  14.800  0.0142  0.0452 -0.1992
 6532TIP3    H141087   1.653   6.376  14.715  3.1739 -1.7810  0.3957
 6532TIP3    H241088   1.662   6.402  14.864  0.8690 -1.5017  0.5312
 6533TIP3   OH241089   4.127   2.311   5.490 -0.5202  0.8974  0.1044
 6533TIP3    H141090   4.195   2.316   5.557 -0.0743  1.3137 -0.3708
 6533TIP3    H241091   4.173   2.328   5.408 -1.3476  2.1033 -0.1295
 6534TIP3   OH241092   0.797   3.240   0.199  0.2450 -0.2071  0.3731
 6534TIP3    H141093   0.876   3.187   0.191 -0.6864 -1.4212 -1.5449
 6534TIP3    H241094   0.730   3.180   0.230 -0.5380  0.1133 -0.6234
 6535TIP3   OH241095   5.659   0.805   5.766 -0.3770 -0.0151 -0.4771
 6535TIP3    H141096   5.632   0.885   5.721 -2.7569  0.1475  1.0501
 6535TIP3    H241097   5.700   0.836   5.847 -1.1646 -0.2996  0.0462
 6536TIP3   OH241098   1.359   6.438  10.455  0.0917 -1.0859  0.4391
 6536TIP3    H141099   1.348   6.343  10.465 -1.7182 -0.8700  0.9758
 6536TIP3    H241100   1.276   6.467  10.417  0.1766  0.4238  1.3570
 6537TIP3   OH241101   3.630   2.345   0.986 -0.3318 -0.4211 -0.1301
 6537TIP3    H141102   3.620   2.272   1.048  3.7397 -1.8931 -0.9131
 6537TIP3    H241103   3.631   2.423   1.042 -1.1102 -1.2842  1.1534
 6538TIP3   OH241104   4.429   1.983   0.478  0.1595  0.0578  0.0234
 6538TIP3    H141105   4.403   1.897   0.447 -0.7690  0.9915 -1.9479
 6538TIP3    H241106   4.425   2.039   0.401 -1.2223  2.3057  1.5896
 6539TIP3   OH241107   0.754   5.087  16.328 -0.2380  0.4067  0.2984
 6539TIP3    H141108   0.659   5.089  16.316 -0.0242 -0.1058 -1.9400
 6539TIP3    H241109   0.784   5.168  16.286  0.2056  1.9574  3.2899
 6540TIP3   OH241110   6.047   4.745   2.613 -0.3835  0.3629  0.0417
 6540TIP3    H141111   6.011   4.736   2.524 -1.6845 -0.4720  0.6190
 6540TIP3    H241112   6.125   4.691   2.612 -1.2173 -0.8871 -0.1877
 6541TIP3   OH241113   4.898   5.069   4.936  0.5002  0.3539 -0.3520
 6541TIP3    H141114   4.890   5.030   5.023 -1.3226  1.4998  0.0334
 6541TIP3    H241115   4.809   5.093   4.911  0.6031 -1.7522 -3.4289
 6542TIP3   OH241116   4.224   2.106  14.336  0.4092 -0.2431 -0.4354
 6542TIP3    H141117   4.279   2.178  14.303 -0.0418  0.1975 -0.2453
 6542TIP3    H241118   4.246   2.099  14.428  1.0598 -0.9154 -0.6350
 6543TIP3   OH241119   5.095   2.410  15.080 -0.4969 -0.2438 -0.0511
 6543TIP3    H141120   5.106   2.447  15.168 -1.1743 -2.6177  1.1365
 6543TIP3    H241121   5.170   2.351  15.070  0.2631  0.9432 -1.6367
 6544TIP3   OH241122   4.574   3.953   3.683  0.0904  0.1315 -0.0402
 6544TIP3    H141123   4.604   3.867   3.711 -0.3605 -0.3150 -0.8971
 6544TIP3    H241124   4.509   3.979   3.749 -2.6809 -1.9171 -1.7628
 6545TIP3   OH241125   0.730   6.449  14.286 -0.6690 -0.4610 -0.5141
 6545TIP3    H141126   0.825   6.449  14.279 -0.5780  1.5784  0.1570
 6545TIP3    H241127   0.699   6.464  14.196 -0.3330 -0.1413 -0.5768
 6546TIP3   OH241128   2.734   4.817  11.466 -0.5692  0.9595 -0.0021
 6546TIP3    H141129   2.796   4.815  11.394  0.2193  0.6753  0.6600
 6546TIP3    H241130   2.699   4.728  11.470 -0.2096  0.8284  0.2969
 6547TIP3   OH241131   1.777   0.700   5.700 -0.1232 -0.7435  0.1467
 6547TIP3    H141132   1.859   0.711   5.652 -0.6427 -2.1615 -1.1201
 6547TIP3    H241133   1.772   0.778   5.756  0.9330  0.5272 -1.4482
 6548TIP3   OH241134   3.925   2.287   1.748 -0.3813 -0.8189 -0.0451
 6548TIP3    H141135   3.886   2.252   1.827 -0.6439  2.0156  1.1862
 6548TIP3    H241136   3.853   2.294   1.686 -0.7235 -0.6176  0.3742
 6549TIP3   OH241137   0.941   2.348   5.433  0.3343 -0.1799 -0.8001
 6549TIP3    H141138   0.858   2.319   5.395  0.3422  0.4623 -1.2997
 6549TIP3    H241139   1.002   2.350   5.360  0.4751  0.5677 -0.6675
 6550TIP3   OH241140   0.167   3.371  14.636  0.1738  0.1212 -0.0567
 6550TIP3    H141141   0.163   3.303  14.569  1.2725  0.7886 -0.8101
 6550TIP3    H241142   0.192   3.324  14.716 -3.0502 -1.0280  0.4454
 6551TIP3   OH241143   6.002   1.627   5.021  0.0437  0.6173 -0.0624
 6551TIP3    H141144   6.088   1.605   5.056  1.2967  1.3767 -2.4984
 6551TIP3    H241145   5.945   1.556   5.053  2.0361 -1.1994 -0.2841
 6552TIP3   OH241146   2.300   2.598  14.773  0.4190  0.3035 -0.1002
 6552TIP3    H141147   2.379   2.641  14.805  0.1826  1.1809 -0.6636
 6552TIP3    H241148   2.296   2.515  14.821  1.8099  0.1282 -0.2584
 6553TIP3   OH241149   4.507   5.724  17.110 -0.4312 -0.2262  0.4679
 6553TIP3    H141150   4.597   5.747  17.133 -0.5976 -0.4010  1.3081
 6553TIP3    H241151   4.506   5.728  17.014  0.4525 -0.1609  0.4479
 6554TIP3   OH241152   0.537   2.262   3.102 -0.5800  0.1681 -0.3013
 6554TIP3    H141153   0.603   2.204   3.063 -0.1700  1.7159 -2.0574
 6554TIP3    H241154   0.580   2.347   3.107 -1.7364  0.7162  0.5831
 6555TIP3   OH241155   4.136   3.300   2.581 -0.5900 -0.2541 -0.0055
 6555TIP3    H141156   4.144   3.262   2.669 -1.3761  0.2322  0.2855
 6555TIP3    H241157   4.130   3.395   2.596  2.6911  0.2060 -0.7818
 6556TIP3   OH241158   1.505   1.054  15.208 -0.5234  0.3930  0.1864
 6556TIP3    H141159   1.504   1.038  15.113 -1.0028 -0.0433  0.2638
 6556TIP3    H241160   1.580   1.003  15.240 -1.3909 -0.8543  0.2788
 6557TIP3   OH241161   4.401   5.349   0.499  0.2826 -0.4898  0.1276
 6557TIP3    H141162   4.350   5.281   0.455 -0.0156 -1.7577  2.2833
 6557TIP3    H241163   4.487   5.311   0.510  0.7251  0.3095 -0.4340
 6558TIP3   OH241164   0.736   1.096   2.447 -0.2829 -0.5003  0.2694
 6558TIP3    H141165   0.667   1.124   2.507  0.6582  1.4868  0.5133
 6558TIP3    H241166   0.717   1.142   2.365  1.5320  1.3704  0.7961
 6559TIP3   OH241167   2.705   0.704   2.366  0.7578 -0.0273  0.3293
 6559TIP3    H141168   2.705   0.634   2.431 -0.5275  0.8239  1.2989
 6559TIP3    H241169   2.771   0.766   2.397  0.5492  0.1016  0.5193
 6560TIP3   OH241170   5.957   4.579  15.930 -0.2062 -0.2423 -0.3027
 6560TIP3    H141171   6.007   4.553  16.008 -3.4892 -1.2659  1.6994
 6560TIP3    H241172   5.927   4.496  15.892 -0.7156  0.3158 -1.1639
 6561TIP3   OH241173   4.031   6.085  12.985 -0.3579  0.4743 -0.0927
 6561TIP3    H141174   4.027   6.018  12.917  0.8863 -0.0769  0.3443
 6561TIP3    H241175   3.942   6.089  13.020 -0.2715 -1.6690  0.5219
 6562TIP3   OH241176   6.637   3.540  10.999 -0.5512  0.5981 -0.2002
 6562TIP3    H141177   6.657   3.632  10.984 -0.2518  0.6875  0.6834
 6562TIP3    H241178   6.607   3.508  10.914  2.4790  0.6872 -1.4524
 6563TIP3   OH241179   3.275   2.582  12.588 -0.2551  0.2243 -0.3413
 6563TIP3    H141180   3.343   2.566  12.653  0.7618  1.4804 -1.0648
 6563TIP3    H241181   3.243   2.670  12.607  0.0470  0.6032 -1.5231
 6564TIP3   OH241182   4.908   2.983  16.041 -0.1317 -0.1630 -0.5608
 6564TIP3    H141183   4.955   3.062  16.012 -0.2876  0.6239  1.1751
 6564TIP3    H241184   4.832   3.016  16.088  0.1041 -1.3065  0.7115
 6565TIP3   OH241185   1.261   3.949   4.657  0.0937  0.2868  0.7541
 6565TIP3    H141186   1.176   3.949   4.613  0.2247  0.8126  0.4953
 6565TIP3    H241187   1.323   3.924   4.589  0.2871  1.0190  0.6564
 6566TIP3   OH241188   5.134   0.231  13.178 -0.0072  0.2333 -0.4101
 6566TIP3    H141189   5.207   0.195  13.229 -1.2896 -3.1625 -0.6959
 6566TIP3    H241190   5.075   0.267  13.243  1.3583  2.0884 -0.1065
 6567TIP3   OH241191   0.895   1.839   3.850 -0.0696  0.2846  0.2281
 6567TIP3    H141192   0.976   1.842   3.798  1.7158 -3.1389  2.4861
 6567TIP3    H241193   0.836   1.785   3.799 -0.4991  1.6479 -0.7810
 6568TIP3   OH241194   5.034   0.535  13.088  0.0925  0.9838  0.2726
 6568TIP3    H141195   4.992   0.451  13.106  0.1419  0.9094  0.0373
 6568TIP3    H241196   4.977   0.600  13.130  0.7450  0.7309  1.6275
 6569TIP3   OH241197   4.349   6.803   3.460 -0.0502 -0.0607  0.2672
 6569TIP3    H141198   4.309   6.730   3.413  0.6205  0.6558 -1.4959
 6569TIP3    H241199   4.442   6.782   3.464  0.3870  1.3257 -1.5672
 6570TIP3   OH241200   0.701   4.700  11.561 -0.3905  0.0299  0.1220
 6570TIP3    H141201   0.686   4.789  11.530 -1.0658 -0.2450 -0.3602
 6570TIP3    H241202   0.633   4.686  11.627  0.5906  0.3592  1.2283
 6571TIP3   OH241203   0.058   2.763   4.029  0.5175  0.0333 -0.0759
 6571TIP3    H141204   0.106   2.837   4.066 -0.8422  0.7946  0.2508
 6571TIP3    H241205  -0.023   2.759   4.080 -0.0802 -0.7728 -1.0443
 6572TIP3   OH241206   0.387   4.583   0.667 -0.1526 -0.1423 -0.4911
 6572TIP3    H141207   0.334   4.651   0.625  2.0892  2.1256  0.1022
 6572TIP3    H241208   0.349   4.501   0.636 -2.0238  1.3555 -2.5146
 6573TIP3   OH241209   0.547   1.275   4.414 -0.1813  0.2719  0.5694
 6573TIP3    H141210   0.590   1.255   4.331 -0.5447  2.0700 -0.0812
 6573TIP3    H241211   0.468   1.220   4.413 -0.0393  0.0687 -0.1300
 6574TIP3   OH241212   5.254   3.998   0.289 -0.1226 -0.9902  0.2944
 6574TIP3    H141213   5.215   3.993   0.202 -0.9417 -0.3191  0.6029
 6574TIP3    H241214   5.206   3.932   0.340 -0.2433 -0.7866  0.4473
 6575TIP3   OH241215   5.402   2.905   4.293  0.0068 -0.4261  0.1107
 6575TIP3    H141216   5.353   2.832   4.330 -0.3020  0.4083  1.4020
 6575TIP3    H241217   5.337   2.958   4.247  0.2673 -1.0493 -1.0272
 6576TIP3   OH241218   6.078   6.028   5.509  0.4102  0.1859 -0.1387
 6576TIP3    H141219   6.036   6.097   5.560 -1.0887  0.3337 -1.4975
 6576TIP3    H241220   6.137   6.074   5.449 -0.6003  0.3150 -1.0546
 6577TIP3   OH241221   6.410   3.211   1.226 -0.0622 -0.3168 -0.2246
 6577TIP3    H141222   6.359   3.192   1.147 -0.5656  0.3279 -0.0676
 6577TIP3    H241223   6.424   3.306   1.222 -1.1959 -0.0649  1.0938
 6578TIP3   OH241224   1.354   2.095  12.729  0.2816 -0.3615 -0.2937
 6578TIP3    H141225   1.317   2.037  12.662 -2.4999  0.4518  0.3911
 6578TIP3    H241226   1.316   2.181  12.711  2.1413  0.6695  0.3537
 6579TIP3   OH241227   0.895   3.178   1.732 -0.3330 -0.0938 -0.4100
 6579TIP3    H141228   0.867   3.175   1.824 -1.4193  1.2566 -0.6678
 6579TIP3    H241229   0.842   3.247   1.693  1.7138  0.9293 -1.5359
 6580TIP3   OH241230   3.805   6.619  13.277  0.2213 -0.0356  0.0897
 6580TIP3    H141231   3.882   6.640  13.225  0.6431  2.6664  1.6028
 6580TIP3    H241232   3.840   6.598  13.364 -0.6587  0.5180  0.5999
 6581TIP3   OH241233   6.715   5.069  13.764 -0.0852  0.2987  0.0623
 6581TIP3    H141234   6.761   5.076  13.681  0.5072  2.0872  0.5100
 6581TIP3    H241235   6.665   4.987  13.757 -0.7724  0.8504 -2.4035
 6582TIP3   OH241236   3.440   0.488  11.525 -0.3117 -0.0353  0.2514
 6582TIP3    H141237   3.466   0.561  11.581 -1.4215  0.4335  0.1780
 6582TIP3    H241238   3.516   0.473  11.469 -0.1910  1.2983  0.0266
 6583TIP3   OH241239   6.214   4.683   4.803 -0.3878  0.2424  0.2406
 6583TIP3    H141240   6.221   4.678   4.707  1.1955  1.5242  0.2491
 6583TIP3    H241241   6.246   4.770   4.825 -0.3736 -0.1712  1.9891
 6584TIP3   OH241242   4.204   3.287   1.026 -0.0423 -0.5316  0.7381
 6584TIP3    H141243   4.280   3.231   1.043 -0.1104 -2.1468 -3.1913
 6584TIP3    H241244   4.133   3.226   1.009 -1.6799  0.9422  1.9426
 6585TIP3   OH241245   3.385   3.176  13.643 -0.1110 -0.4651 -0.3587
 6585TIP3    H141246   3.448   3.144  13.579 -0.8488  2.3501 -2.6731
 6585TIP3    H241247   3.339   3.247  13.599 -1.0816  1.2895  3.1042
 6586TIP3   OH241248   6.499   0.942  16.314 -0.1961 -0.0504 -0.6111
 6586TIP3    H141249   6.447   0.962  16.237  0.3924 -0.5600 -1.1522
 6586TIP3    H241250   6.474   1.009  16.378 -0.6893  0.3749 -1.2365
 6587TIP3   OH241251   2.784   5.975   4.439  0.5123 -0.2991 -0.0271
 6587TIP3    H141252   2.867   5.938   4.469  1.8225  0.4854 -2.4076
 6587TIP3    H241253   2.802   6.069   4.428 -0.2659 -0.3001 -1.6989
 6588TIP3   OH241254   5.214   3.301  16.499 -0.2529  0.1391  0.1157
 6588TIP3    H141255   5.135   3.347  16.468  0.4235  1.0523 -0.3057
 6588TIP3    H241256   5.234   3.342  16.583  0.8313  1.2686 -0.6418
 6589TIP3   OH241257   4.918   2.597   5.342 -0.0819 -0.4289 -0.1440
 6589TIP3    H141258   4.868   2.536   5.287 -0.0540 -0.1174 -0.5190
 6589TIP3    H241259   4.990   2.625   5.286  0.0878 -0.2967  0.1398
 6590TIP3   OH241260   0.451   1.493  12.503  0.3879 -0.3674 -0.5366
 6590TIP3    H141261   0.516   1.424  12.516  0.0097 -0.7957 -0.8695
 6590TIP3    H241262   0.466   1.523  12.413  0.7682  0.2209 -0.2844
 6591TIP3   OH241263   2.105   5.922  10.028  0.3020 -0.3413 -0.0165
 6591TIP3    H141264   2.151   5.878  10.099 -0.2941 -1.8506 -0.5309
 6591TIP3    H241265   2.012   5.917  10.054  0.0984 -0.7412 -0.8108
 6592TIP3   OH241266   0.850   0.014   4.218 -0.1664  0.2810  0.7852
 6592TIP3    H141267   0.932   0.012   4.167  0.8002 -1.0072  2.2861
 6592TIP3    H241268   0.820  -0.077   4.216 -0.8537  0.4940  1.3656
 6593TIP3   OH241269   2.029   6.430  13.416  0.2311 -0.1917 -0.3128
 6593TIP3    H141270   1.974   6.439  13.494 -0.1702  1.1168 -0.7308
 6593TIP3    H241271   2.099   6.370  13.443  0.9746  1.4137  1.5509
 6594TIP3   OH241272   1.166   0.824  15.341 -0.4738  0.1478  0.0266
 6594TIP3    H141273   1.072   0.803  15.343 -0.1430 -1.4617  0.7489
 6594TIP3    H241274   1.183   0.851  15.251 -1.6052  0.2791 -0.1585
 6595TIP3   OH241275   1.225   1.577  13.049  0.0965 -0.1208  0.1645
 6595TIP3    H141276   1.319   1.565  13.053 -0.2057 -3.2459  0.5642
 6595TIP3    H241277   1.199   1.538  12.966 -0.9689 -0.7073  0.7415
 6596TIP3   OH241278   6.759   6.768  14.544 -0.5723  0.4437 -0.0963
 6596TIP3    H141279   6.780   6.781  14.451 -0.6447 -0.5696 -0.2688
 6596TIP3    H241280   6.745   6.856  14.578  2.5063  1.1138 -0.2919
 6597TIP3   OH241281   6.185   4.647  12.724  0.2232 -0.4091  0.1057
 6597TIP3    H141282   6.113   4.605  12.676  0.4679 -1.9099  0.9763
 6597TIP3    H241283   6.166   4.629  12.816  0.7083  0.8641  0.4760
 6598TIP3   OH241284   2.741   6.508   2.035  0.3808  0.4855  0.0207
 6598TIP3    H141285   2.832   6.490   2.011  0.4042  2.3823 -1.5846
 6598TIP3    H241286   2.747   6.570   2.107  0.3470  0.1169  0.3426
 6599TIP3   OH241287   5.598   4.371   3.225 -0.3242  0.1277  0.2441
 6599TIP3    H141288   5.509   4.342   3.243 -0.8132  1.4404  0.0677
 6599TIP3    H241289   5.651   4.330   3.293 -1.4940  1.5520  2.1050
 6600TIP3   OH241290   3.324   5.525   3.296 -0.1098  0.2012 -0.1134
 6600TIP3    H141291   3.281   5.582   3.231 -0.3249  0.5014  0.2866
 6600TIP3    H241292   3.376   5.584   3.349  0.7314 -0.1534 -0.5281
 6601TIP3   OH241293   1.727   3.119  11.774  0.0757 -0.2698  0.3173
 6601TIP3    H141294   1.795   3.183  11.791 -0.3215 -0.0737  1.2182
 6601TIP3    H241295   1.694   3.142  11.687  0.7790 -0.0320  0.1059
 6602TIP3   OH241296   2.577   4.351   0.355  0.1197  0.0903  0.3713
 6602TIP3    H141297   2.558   4.420   0.418  0.9754 -0.3416  1.1232
 6602TIP3    H241298   2.650   4.303   0.393  0.3333 -0.4870 -0.7180
 6603TIP3   OH241299   5.018   5.861  15.680 -0.3164  0.6674  0.0323
 6603TIP3    H141300   5.033   5.861  15.585  1.4276  0.3678  0.2669
 6603TIP3    H241301   5.104   5.841  15.717 -1.1547 -0.1117  1.6539
 6604TIP3   OH241302   6.395   0.814  11.720 -0.1811 -0.1145  0.3477
 6604TIP3    H141303   6.457   0.793  11.650  1.1208  0.2642  1.3379
 6604TIP3    H241304   6.331   0.872  11.679  0.9093  0.6047 -0.3904
 6605TIP3   OH241305   2.485   1.666   5.300  0.1181  0.2814 -0.0947
 6605TIP3    H141306   2.473   1.626   5.213 -0.7224  0.1015  0.1009
 6605TIP3    H241307   2.522   1.596   5.354 -3.8750 -1.2284  1.0064
 6606TIP3   OH241308   2.874   0.223  11.534 -0.0907  0.8062 -0.2821
 6606TIP3    H141309   2.939   0.160  11.565  0.9586  1.4996 -0.9613
 6606TIP3    H241310   2.906   0.307  11.567 -0.6310  1.1683 -0.6639
 6607TIP3   OH241311   3.209   2.429   4.072  0.4304 -0.0387 -0.4004
 6607TIP3    H141312   3.256   2.351   4.103 -0.7216 -1.3289 -1.7766
 6607TIP3    H241313   3.214   2.424   3.977 -1.6981  0.2592 -0.5696
 6608TIP3   OH241314   0.455   0.416   4.843  0.2408 -0.4374 -0.2894
 6608TIP3    H141315   0.465   0.484   4.910  1.8732 -2.5361  1.7642
 6608TIP3    H241316   0.516   0.441   4.774  2.3529 -0.6801  1.3399
 6609TIP3   OH241317   0.748   3.633  12.951 -0.1467 -0.1451 -0.0337
 6609TIP3    H141318   0.810   3.682  13.005  0.3904 -1.3710  0.4959
 6609TIP3    H241319   0.740   3.685  12.871  0.6926  0.6083  0.3447
 6610TIP3   OH241320   3.037   2.472   1.445  0.0917 -0.1900 -0.0604
 6610TIP3    H141321   2.973   2.510   1.505 -1.3692 -0.0739 -1.6111
 6610TIP3    H241322   3.120   2.474   1.493 -1.0924 -0.5935  2.1271
 6611TIP3   OH241323   6.539   6.134   2.856 -0.2908 -0.3562  0.2908
 6611TIP3    H141324   6.626   6.119   2.892 -0.5684  0.9227  1.6238
 6611TIP3    H241325   6.532   6.230   2.848 -1.8607 -0.3530  1.0967
 6612TIP3   OH241326   3.403   3.700   1.704 -0.4327 -0.2263  0.0031
 6612TIP3    H141327   3.362   3.685   1.619  0.8282  0.2615 -0.7056
 6612TIP3    H241328   3.483   3.749   1.685 -0.5575  0.6519  1.5459
 6613TIP3   OH241329   5.401   3.689  15.914 -0.4347  0.4104 -0.5663
 6613TIP3    H141330   5.363   3.748  15.849 -1.2010 -0.3277 -0.8092
 6613TIP3    H241331   5.359   3.713  15.996  0.3253  1.1542 -0.3775
 6614TIP3   OH241332   1.164   6.114  16.551  0.1976  0.3200 -0.0776
 6614TIP3    H141333   1.230   6.183  16.553  0.9734 -0.4041 -0.1672
 6614TIP3    H241334   1.109   6.134  16.475 -0.2558  1.4351  0.5269
 6615TIP3   OH241335   2.347   4.204  16.707  0.6561  0.2919 -0.9818
 6615TIP3    H141336   2.314   4.229  16.793 -0.5115  0.4168 -1.4539
 6615TIP3    H241337   2.397   4.124  16.724 -1.1345 -0.7633 -0.4394
 6616TIP3   OH241338   5.099   3.574   5.450 -0.0144 -0.3930  0.4376
 6616TIP3    H141339   5.028   3.626   5.489  0.5809  1.5748 -0.9733
 6616TIP3    H241340   5.167   3.573   5.517 -0.2147  0.2491  0.6630
 6617TIP3   OH241341   3.674   1.555  16.551 -0.3709 -0.3716 -0.3502
 6617TIP3    H141342   3.633   1.637  16.579 -1.0410 -1.6080  2.6874
 6617TIP3    H241343   3.759   1.555  16.594 -0.4195 -1.2944 -0.2359
 6618TIP3   OH241344   0.103   0.631  15.720 -0.3527 -0.0126 -0.6929
 6618TIP3    H141345   0.009   0.627  15.738 -0.2925 -1.8985 -0.5134
 6618TIP3    H241346   0.116   0.569  15.648  0.4818  1.8098 -2.1823
 6619TIP3   OH241347   1.732   3.909  16.007 -0.0695 -0.0518 -0.2024
 6619TIP3    H141348   1.651   3.860  16.023 -0.1029  0.0895  0.0584
 6619TIP3    H241349   1.800   3.842  16.009  0.0241  0.0643  1.3595
 6620TIP3   OH241350   2.622   3.895  17.094  0.2024  0.1931  0.2714
 6620TIP3    H141351   2.615   3.907  17.189  1.5694  1.6036  0.2304
 6620TIP3    H241352   2.694   3.834  17.083  1.6441  1.8474  0.1171
 6621TIP3   OH241353   4.208   0.713   1.455 -0.1629  0.4063 -0.4454
 6621TIP3    H141354   4.255   0.795   1.442  0.5658  0.0078 -0.4006
 6621TIP3    H241355   4.117   0.739   1.469  0.3697  1.3466  1.6016
 6622TIP3   OH241356   4.188   0.427  17.305  0.6111  0.5724 -0.6111
 6622TIP3    H141357   4.185   0.380  17.222 -0.2046  1.1552 -0.9166
 6622TIP3    H241358   4.100   0.461  17.317  0.4632 -0.2420  0.9402
 6623TIP3   OH241359   0.351   0.115  15.012 -0.1080  0.3926 -0.0393
 6623TIP3    H141360   0.439   0.126  15.048 -0.9260  0.5334  2.0466
 6623TIP3    H241361   0.365   0.103  14.918  2.1926 -0.4103  0.3393
 6624TIP3   OH241362   2.789   4.638   4.122  0.3393  0.7381  0.2096
 6624TIP3    H141363   2.748   4.556   4.095  1.2083  0.4596 -0.2972
 6624TIP3    H241364   2.719   4.703   4.116 -1.4364 -0.4965  4.0208
 6625TIP3   OH241365   5.947   6.081   4.211  0.2257  0.0925 -0.6889
 6625TIP3    H141366   6.040   6.094   4.193 -0.2669  0.8087 -2.9848
 6625TIP3    H241367   5.905   6.077   4.125 -1.6810 -1.9008  0.2362
 6626TIP3   OH241368   3.471   6.816  15.151  0.1561  0.1187  0.2176
 6626TIP3    H141369   3.442   6.750  15.214  0.7190 -0.3628 -0.0169
 6626TIP3    H241370   3.452   6.777  15.065 -2.1359  1.4480  0.0465
 6627TIP3   OH241371   3.127   5.937   2.814 -0.1044  0.2133  0.1096
 6627TIP3    H141372   3.178   5.864   2.849 -0.0070 -0.9095 -2.1926
 6627TIP3    H241373   3.170   6.015   2.848  0.6145 -0.7569  1.5326
 6628TIP3   OH241374   5.454   1.129  16.734  0.4148  0.1999  0.9067
 6628TIP3    H141375   5.418   1.201  16.785 -2.9873  0.5493 -1.6262
 6628TIP3    H241376   5.465   1.166  16.646 -0.8556 -2.1378 -0.3259
 6629TIP3   OH241377   2.524   3.542  11.580  0.2700 -0.1091 -0.6998
 6629TIP3    H141378   2.469   3.498  11.645  0.9045  2.2546  1.5435
 6629TIP3    H241379   2.507   3.635  11.592  2.6762  0.5578 -1.9012
 6630TIP3   OH241380   0.127   5.696  14.697  0.1153  0.1853 -0.4927
 6630TIP3    H141381   0.165   5.644  14.626 -0.2214  1.0543 -1.3494
 6630TIP3    H241382   0.201   5.743  14.735  0.3564 -0.5881  0.0085
 6631TIP3   OH241383   3.054   5.345  11.312  0.0153  0.0827  0.5983
 6631TIP3    H141384   3.002   5.266  11.331  0.0895 -0.4416 -1.1816
 6631TIP3    H241385   3.127   5.313  11.259 -0.4987  1.4662 -1.0215
 6632TIP3   OH241386   5.023   6.757   6.020 -0.5419 -0.2735  0.4458
 6632TIP3    H141387   5.032   6.732   6.113 -0.1705 -0.1142  0.4535
 6632TIP3    H241388   5.107   6.734   5.981 -0.4991  0.1763  0.2681
 6633TIP3   OH241389   2.502   3.738  15.821  0.0069 -0.0708  0.0026
 6633TIP3    H141390   2.436   3.791  15.865 -0.8334 -1.4738  0.5005
 6633TIP3    H241391   2.578   3.742  15.879 -0.1311  0.3659  0.1587
 6634TIP3   OH241392   3.309   0.487  13.476 -0.1015  0.0980 -0.6607
 6634TIP3    H141393   3.306   0.536  13.558  3.3861 -0.1416 -0.2434
 6634TIP3    H241394   3.312   0.395  13.503 -1.8923 -0.1812 -1.2597
 6635TIP3   OH241395   1.080   4.239  12.749 -0.3123  0.6811  0.1362
 6635TIP3    H141396   1.148   4.270  12.808 -1.3504  3.0994  0.1990
 6635TIP3    H241397   1.098   4.146  12.737  3.8498  1.4529 -1.0185
 6636TIP3   OH241398   4.072   0.557   0.631 -0.1763 -0.3226  0.1900
 6636TIP3    H141399   4.145   0.525   0.685  1.8649  1.5614 -1.3070
 6636TIP3    H241400   3.999   0.566   0.693  1.3348 -0.6063  2.1023
 6637TIP3   OH241401   6.112   4.312  16.358 -0.5403 -0.2901 -0.3201
 6637TIP3    H141402   6.174   4.340  16.426 -1.0590 -0.0974  0.0721
 6637TIP3    H241403   6.063   4.241  16.398 -1.9814  0.8866  0.1217
 6638TIP3   OH241404   0.837   4.180   2.213  0.2193  0.4288  0.2522
 6638TIP3    H141405   0.827   4.089   2.187  1.3146 -0.2342  1.9778
 6638TIP3    H241406   0.932   4.195   2.210  0.0493  1.5143 -0.0019
 6639TIP3   OH241407   0.219   6.065  14.710  0.0113 -0.2454 -0.1405
 6639TIP3    H141408   0.295   6.017  14.741 -1.3306 -1.9335  0.7183
 6639TIP3    H241409   0.172   6.002  14.654 -1.3614  0.3227  0.3241
 6640TIP3   OH241410   4.215   6.070   3.026  0.6964 -0.6081 -0.7508
 6640TIP3    H141411   4.263   6.032   2.953  2.3401  0.0436 -0.0502
 6640TIP3    H241412   4.198   5.997   3.085  2.3238 -0.6014 -0.2263
 6641TIP3   OH241413   4.364   3.264  11.810 -0.1638 -0.3047  0.2485
 6641TIP3    H141414   4.450   3.285  11.845  0.5778 -2.2712 -0.2694
 6641TIP3    H241415   4.349   3.173  11.834 -1.3240 -0.5397 -1.1804
 6642TIP3   OH241416   3.148   3.521  14.680  0.1590  0.4772  0.2440
 6642TIP3    H141417   3.127   3.444  14.732 -0.0492  0.7652  0.5929
 6642TIP3    H241418   3.071   3.537  14.627  0.5689 -0.1307 -0.5557
 6643TIP3   OH241419   0.680   2.624  13.132  0.2238 -0.3632  0.2683
 6643TIP3    H141420   0.690   2.676  13.212 -1.0247 -0.8947  0.8051
 6643TIP3    H241421   0.767   2.588  13.116  0.9570  1.3306  0.2547
 6644TIP3   OH241422   2.247   1.663   4.981 -0.0248 -0.5050 -0.3070
 6644TIP3    H141423   2.270   1.713   4.903 -1.1842 -1.3731 -1.2465
 6644TIP3    H241424   2.330   1.625   5.010  1.0337  2.4095  0.8562
 6645TIP3   OH241425   4.161   2.563  10.652  0.4850 -0.0297  0.2065
 6645TIP3    H141426   4.183   2.494  10.715 -2.7330 -0.6542  0.8041
 6645TIP3    H241427   4.070   2.584  10.670 -0.0985  0.9597 -3.1664
 6646TIP3   OH241428   0.492   0.987  15.512 -0.5177  0.2160 -0.1954
 6646TIP3    H141429   0.443   0.947  15.584 -1.3044  0.1350 -0.7651
 6646TIP3    H241430   0.572   1.020  15.553 -0.0181 -1.5668  0.3674
 6647TIP3   OH241431   4.060   5.610  12.632 -0.2707  0.1548 -0.3665
 6647TIP3    H141432   4.029   5.644  12.548  2.3497 -1.0657 -1.9400
 6647TIP3    H241433   4.103   5.528  12.610  0.6952 -0.0943  2.1528
 6648TIP3   OH241434   1.953   5.195  14.320 -0.0734 -0.1722 -0.0400
 6648TIP3    H141435   2.026   5.235  14.273 -0.2509  0.6143  0.3391
 6648TIP3    H241436   1.940   5.251  14.397  0.3462 -1.5422  1.0689
 6649TIP3   OH241437   2.696   1.574   5.938 -0.2424 -0.5336  0.1888
 6649TIP3    H141438   2.749   1.515   5.992 -3.2102 -2.4709  1.2411
 6649TIP3    H241439   2.689   1.655   5.989  3.7109  0.9301 -1.1850
 6650TIP3   OH241440   2.511   1.269   4.506 -0.0011 -0.0530 -0.3969
 6650TIP3    H141441   2.443   1.275   4.439 -0.5388 -0.7743  0.0636
 6650TIP3    H241442   2.593   1.283   4.459 -0.3513 -0.7523 -1.2401
 6651TIP3   OH241443   5.058   0.321   2.197 -0.4097 -0.7097 -0.2428
 6651TIP3    H141444   5.029   0.242   2.244  1.7240 -1.0893  0.5365
 6651TIP3    H241445   5.042   0.392   2.259  0.8075 -0.9944  0.4299
 6652TIP3   OH241446   2.970   2.379  10.409  0.2110  0.4237  0.5423
 6652TIP3    H141447   3.023   2.300  10.420  1.0212  1.1017  1.8666
 6652TIP3    H241448   3.022   2.448  10.450 -0.9937  1.4290  0.4379
 6653TIP3   OH241449   6.117   0.633   4.529 -0.6794 -0.4633  0.0630
 6653TIP3    H141450   6.041   0.675   4.570 -0.0788  1.6015 -0.7834
 6653TIP3    H241451   6.191   0.688   4.553  0.4142 -1.8659  0.0289
 6654TIP3   OH241452   2.633   0.757   4.750  0.3329  0.5581 -0.2636
 6654TIP3    H141453   2.724   0.732   4.768  0.0205  0.5321  1.4535
 6654TIP3    H241454   2.619   0.835   4.803 -1.4472 -1.0306  1.7809
 6655TIP3   OH241455   6.166   4.544  13.964  0.2481  0.2030 -0.2345
 6655TIP3    H141456   6.259   4.532  13.983 -0.0950 -0.3220  1.2600
 6655TIP3    H241457   6.164   4.600  13.887  1.8669 -2.3915 -2.3650
 6656TIP3   OH241458   5.136   1.842  13.157 -0.3333 -0.1051  0.5145
 6656TIP3    H141459   5.047   1.814  13.179 -0.8478  1.3042  0.3622
 6656TIP3    H241460   5.160   1.791  13.080 -1.7588  0.8139 -0.5919
 6657TIP3   OH241461   0.428   4.255   6.779  0.1214  0.1566 -0.3841
 6657TIP3    H141462   0.435   4.161   6.789 -0.5037  0.2038  0.6589
 6657TIP3    H241463   0.358   4.281   6.839 -1.7903  0.9225 -2.7517
 6658TIP3   OH241464   5.004   2.641  11.604 -0.9386  0.8336 -0.0071
 6658TIP3    H141465   4.923   2.678  11.569 -0.5753  1.0594 -0.6199
 6658TIP3    H241466   5.047   2.600  11.529 -0.8065  0.1275  0.4504
 6659TIP3   OH241467   4.869   4.682   0.176 -0.0353  0.2854 -0.0397
 6659TIP3    H141468   4.908   4.601   0.143  0.5957  0.0853  1.1324
 6659TIP3    H241469   4.931   4.750   0.150  0.4563  0.1299  0.7016
 6660TIP3   OH241470   2.141   6.599   4.286  0.3156 -0.0367  0.3404
 6660TIP3    H141471   2.062   6.581   4.337  0.9092 -1.0529  0.9434
 6660TIP3    H241472   2.179   6.678   4.326 -1.5726  1.8780 -1.4198
 6661TIP3   OH241473   4.566   1.381   2.149  0.0457  0.6861  0.4678
 6661TIP3    H141474   4.581   1.437   2.225  0.7895  0.7558  0.2803
 6661TIP3    H241475   4.481   1.340   2.165 -0.8290  2.3536  0.3015
 6662TIP3   OH241476   6.192   0.331  14.878 -0.2768 -0.1413  0.7285
 6662TIP3    H141477   6.262   0.384  14.916  1.4977 -0.4046 -1.9589
 6662TIP3    H241478   6.113   0.384  14.891  0.7384  1.1847  1.8591
 6663TIP3   OH241479   1.843   0.867   1.528  0.5195  0.7251  0.5499
 6663TIP3    H141480   1.911   0.848   1.593  0.4822  1.5321  0.8346
 6663TIP3    H241481   1.850   0.795   1.466  2.4997  1.4200 -0.1216
 6664TIP3   OH241482   3.541   0.961  14.222 -0.1127 -0.1355 -0.1445
 6664TIP3    H141483   3.542   0.972  14.317 -1.4465 -0.5906 -0.0563
 6664TIP3    H241484   3.608   1.022  14.190  1.1587 -0.7759  1.1420
 6665TIP3   OH241485   0.784   2.042   4.857 -0.4374 -0.0021  0.0299
 6665TIP3    H141486   0.862   2.086   4.824 -0.0790 -0.0197  0.8268
 6665TIP3    H241487   0.759   1.981   4.787 -1.4119  1.9893 -1.4544
 6666TIP3   OH241488   6.556   2.271   3.303 -0.4866 -0.5093  0.5492
 6666TIP3    H141489   6.529   2.348   3.252 -0.5636 -1.0405 -0.2260
 6666TIP3    H241490   6.624   2.304   3.362 -0.2582  0.0798 -0.0343
 6667TIP3   OH241491   6.746   6.453  16.419 -0.1627 -0.0195 -0.2723
 6667TIP3    H141492   6.709   6.384  16.475  1.2789  0.5151  1.4316
 6667TIP3    H241493   6.673   6.511  16.401 -0.2675  1.0870  3.1063
 6668TIP3   OH241494   1.640   1.989   1.516  0.4927 -0.5819  0.6533
 6668TIP3    H141495   1.719   1.935   1.526  1.3392  0.1533 -1.4368
 6668TIP3    H241496   1.594   1.950   1.442  0.2211  0.5071  0.2290
 6669TIP3   OH241497   5.723   5.496   4.737 -0.1366  0.4535  0.0580
 6669TIP3    H141498   5.789   5.530   4.798 -0.9785 -0.2722  1.4347
 6669TIP3    H241499   5.703   5.570   4.680  1.2982  0.9061  0.1106
 6670TIP3   OH241500   3.059   5.044   5.762  0.2091  0.0245  0.3439
 6670TIP3    H141501   3.025   5.049   5.672 -1.9967  4.1953  1.1794
 6670TIP3    H241502   3.154   5.040   5.751 -0.0088 -2.4582 -2.0554
 6671TIP3   OH241503   5.369   3.259   5.042 -0.3999 -0.1199 -0.9545
 6671TIP3    H141504   5.399   3.173   5.072 -0.1714 -0.0862 -1.0842
 6671TIP3    H241505   5.275   3.260   5.061 -0.5997 -0.7728 -1.8408
 6672TIP3   OH241506   6.529   5.552   3.298  0.1509  0.3213  0.6747
 6672TIP3    H141507   6.440   5.552   3.334  0.1458 -0.2754  0.6801
 6672TIP3    H241508   6.530   5.625   3.236 -0.2151  0.5872  0.9792
 6673TIP3   OH241509   4.888   3.499  11.472  0.2852  0.2244 -0.1333
 6673TIP3    H141510   4.938   3.580  11.472 -0.2849  0.5889 -0.6654
 6673TIP3    H241511   4.878   3.477  11.379 -1.6329  0.8729 -0.1292
 6674TIP3   OH241512   6.027   2.928  15.639  0.1245 -0.0638  0.1153
 6674TIP3    H141513   5.982   2.846  15.661  0.1138  0.2267  1.2634
 6674TIP3    H241514   5.957   2.991  15.624  0.1257 -0.3684 -1.2522
 6675TIP3   OH241515   2.151   4.900  16.798 -0.0252  0.1792  0.0242
 6675TIP3    H141516   2.207   4.940  16.864  1.3800 -1.1678 -0.2815
 6675TIP3    H241517   2.182   4.936  16.715  0.8214 -0.9980 -0.1970
 6676TIP3   OH241518   0.868   3.660   6.058  0.1456 -0.3002 -0.1396
 6676TIP3    H141519   0.870   3.753   6.039  1.0669 -0.1058  0.8056
 6676TIP3    H241520   0.867   3.654   6.153  0.5117 -1.2556 -0.1757
 6677TIP3   OH241521   1.362   6.744  15.282  0.4147  0.3403  0.3035
 6677TIP3    H141522   1.272   6.766  15.257  0.5367  2.0797  1.2276
 6677TIP3    H241523   1.358   6.726  15.375  1.1695  1.4441  0.5692
 6678TIP3   OH241524   4.689   5.438  12.877 -0.5702 -0.0608  0.5148
 6678TIP3    H141525   4.775   5.412  12.845 -0.7610  0.7727 -0.7440
 6678TIP3    H241526   4.697   5.532  12.894 -0.8384 -0.2471  1.7828
 6679TIP3   OH241527   1.002   6.040   3.670 -0.2467  0.0498  0.0407
 6679TIP3    H141528   0.960   6.065   3.588 -2.0639  0.2881  0.9978
 6679TIP3    H241529   0.960   5.957   3.695  0.0045  0.1691  0.9076
 6680TIP3   OH241530   0.913   0.363  11.633 -0.5003 -0.2023 -0.1954
 6680TIP3    H141531   0.979   0.427  11.660 -0.5132 -0.3553  0.2158
 6680TIP3    H241532   0.834   0.414  11.619 -0.4528 -0.0993 -0.0834
 6681TIP3   OH241533   0.580   1.624  14.682  0.1933  0.2115 -0.1077
 6681TIP3    H141534   0.639   1.561  14.641 -0.6952 -0.1728 -0.8594
 6681TIP3    H241535   0.550   1.580  14.762  1.6023  0.7862  0.7571
 6682TIP3   OH241536   6.462   5.306  14.933  0.0616  0.1869  0.0371
 6682TIP3    H141537   6.411   5.379  14.896 -1.4839 -0.8034  0.1081
 6682TIP3    H241538   6.399   5.234  14.939  0.9669 -0.5152  1.9963
 6683TIP3   OH241539   0.508   1.487  16.446  0.3314 -0.1196  0.5707
 6683TIP3    H141540   0.589   1.498  16.395  0.1086 -0.4561  0.1359
 6683TIP3    H241541   0.438   1.499  16.382  0.0404 -0.2936  0.8550
 6684TIP3   OH241542   6.397   6.490   4.417  0.4176  0.1469  0.0937
 6684TIP3    H141543   6.408   6.452   4.504  1.2172  0.3880  0.1122
 6684TIP3    H241544   6.378   6.416   4.360 -3.4974  0.2803  0.9511
 6685TIP3   OH241545   0.745   0.886  15.053 -0.4060  0.3245 -0.3508
 6685TIP3    H141546   0.826   0.889  15.003 -0.1013 -0.4957  0.0810
 6685TIP3    H241547   0.771   0.907  15.143 -0.2882 -2.0609  0.2229
 6686TIP3   OH241548   0.187   4.644   2.045  0.5039 -0.2216 -0.3242
 6686TIP3    H141549   0.221   4.716   1.992  0.8251 -1.8257 -2.4457
 6686TIP3    H241550   0.108   4.615   1.999 -0.5169 -0.2759  1.3572
 6687TIP3   OH241551   4.477   1.628  14.385  0.4613  0.4126 -0.5894
 6687TIP3    H141552   4.542   1.699  14.388  0.1545  0.7160 -1.0534
 6687TIP3    H241553   4.500   1.579  14.306 -1.3984  2.0049 -2.2057
 6688TIP3   OH241554   1.712   5.627   4.734  0.5739 -0.6180  0.9546
 6688TIP3    H141555   1.754   5.696   4.784  4.0327  0.6558 -3.1127
 6688TIP3    H241556   1.634   5.668   4.697  0.6371 -0.0705  1.4238
 6689TIP3   OH241557   1.328   0.052  12.764 -0.1982 -0.3139  0.5178
 6689TIP3    H141558   1.301  -0.036  12.788 -0.0492  0.3349  3.4148
 6689TIP3    H241559   1.251   0.091  12.722  0.0366 -2.0393 -1.6845
 6690TIP3   OH241560   1.863   5.955   1.321  0.3443 -0.1952 -0.3112
 6690TIP3    H141561   1.851   5.885   1.258  1.1874 -0.9330  0.3327
 6690TIP3    H241562   1.880   5.911   1.404 -1.1401  0.7482  0.5420
 6691TIP3   OH241563   1.326   0.425  12.077  0.4056 -0.4297  0.0290
 6691TIP3    H141564   1.260   0.387  12.135  0.7170 -0.4896  0.3467
 6691TIP3    H241565   1.408   0.383  12.102  0.3569 -1.3733 -1.2737
 6692TIP3   OH241566   1.987   3.517  15.386 -0.3981  0.0869  0.6028
 6692TIP3    H141567   2.027   3.457  15.323 -0.9668 -1.3262  1.5360
 6692TIP3    H241568   2.050   3.524  15.458 -0.2228  0.8374  0.3894
 6693TIP3   OH241569   1.776   1.996   2.999 -0.0527  0.9476  0.1472
 6693TIP3    H141570   1.799   1.906   2.978  1.2289  1.3107 -0.1161
 6693TIP3    H241571   1.853   2.047   2.974 -1.0071  2.2103 -0.3891
 6694TIP3   OH241572   4.513   0.211  13.140 -0.3877  0.5797  0.6574
 6694TIP3    H141573   4.526   0.126  13.097  1.0064  0.6712  0.8429
 6694TIP3    H241574   4.529   0.194  13.233  0.5934  1.1682  0.6095
 6695TIP3   OH241575   2.318   2.284   0.665  0.1178  0.0116 -0.1962
 6695TIP3    H141576   2.368   2.323   0.593  1.0417  1.8639  1.3484
 6695TIP3    H241577   2.229   2.277   0.632  0.4200  1.2593 -1.3644
 6696TIP3   OH241578   3.445   5.503   5.644 -0.0848 -0.1685  0.6240
 6696TIP3    H141579   3.416   5.535   5.559  1.1275  0.7472  0.5302
 6696TIP3    H241580   3.534   5.472   5.629  0.6535  1.2569  1.8148
 6697TIP3   OH241581   4.054   5.664  16.216 -0.5688 -0.2204 -0.5818
 6697TIP3    H141582   4.006   5.608  16.277 -0.0879 -1.2969 -1.1684
 6697TIP3    H241583   4.114   5.605  16.171  3.2547  1.4136  1.9400
 6698TIP3   OH241584   6.439   2.654  11.600  0.1209 -0.3618  0.6534
 6698TIP3    H141585   6.474   2.711  11.532 -0.3436 -0.9915 -0.1246
 6698TIP3    H241586   6.429   2.711  11.677  0.6741  0.3440  0.2082
 6699TIP3   OH241587   1.600   2.427  13.762  0.2405 -0.3511  0.0555
 6699TIP3    H141588   1.671   2.416  13.698  0.7822 -3.0178  0.9501
 6699TIP3    H241589   1.536   2.360  13.738 -0.9130  0.5122  0.6318
 6700TIP3   OH241590   0.341   0.552  11.988 -0.0389 -0.6514 -0.4215
 6700TIP3    H141591   0.312   0.495  11.918  3.0017 -1.6391 -1.0036
 6700TIP3    H241592   0.401   0.499  12.040  0.5505  1.1005  0.8096
 6701TIP3   OH241593   5.333   3.719  11.096  0.0726  0.6611  0.1816
 6701TIP3    H141594   5.406   3.758  11.048 -0.1966  0.0644 -0.7323
 6701TIP3    H241595   5.365   3.712  11.186  0.6065  1.7494  0.1020
 6702TIP3   OH241596   0.230   2.031   2.313  0.1964  0.3001  0.2956
 6702TIP3    H141597   0.137   2.019   2.332  0.2302 -0.2541  0.1314
 6702TIP3    H241598   0.255   2.109   2.364  0.0340 -0.5297  1.7017
 6703TIP3   OH241599   4.517   4.230   1.314 -0.0618 -0.3528  0.4953
 6703TIP3    H141600   4.534   4.178   1.236  1.4750 -0.1693  0.6877
 6703TIP3    H241601   4.538   4.320   1.288  0.0378 -0.2307  0.9860
 6704TIP3   OH241602   5.911   4.066   4.733 -0.7825  0.5701 -0.3933
 6704TIP3    H141603   5.863   4.011   4.795 -0.0522  2.3583  1.8979
 6704TIP3    H241604   5.893   4.027   4.648 -2.0357 -1.8870  0.8842
 6705TIP3   OH241605   4.142   4.826   0.999  0.1139 -0.0174  0.4407
 6705TIP3    H141606   4.057   4.859   1.026 -0.8687  0.1080 -2.4007
 6705TIP3    H241607   4.162   4.873   0.918  2.3642 -0.8665  0.4121
 6706TIP3   OH241608   0.018   0.577  11.929  0.5718  0.3620  0.2962
 6706TIP3    H141609   0.090   0.641  11.929  0.9724 -0.0816  0.0246
 6706TIP3    H241610   0.023   0.536  12.015  0.4852  0.5032  0.3696
 6707TIP3   OH241611   2.762   4.949  13.115 -0.2382  0.5012 -1.0172
 6707TIP3    H141612   2.801   5.001  13.186 -2.7595 -1.1525  1.7977
 6707TIP3    H241613   2.708   5.012  13.067  0.4618  1.4068 -0.6567
 6708TIP3   OH241614   5.992   6.039   0.715 -0.6536  0.3586 -0.2831
 6708TIP3    H141615   5.945   6.113   0.676 -0.3914  0.6322 -0.0880
 6708TIP3    H241616   5.923   5.980   0.745 -0.9987  1.9977  2.4462
 6709TIP3   OH241617   4.534   1.370   4.174  0.5573  0.6314  0.3177
 6709TIP3    H141618   4.620   1.397   4.207  1.2397  0.2952 -1.1396
 6709TIP3    H241619   4.538   1.386   4.080 -1.1347  0.9946  0.2772
 6710TIP3   OH241620   6.074   3.702   1.973 -0.0526 -0.2253  0.5229
 6710TIP3    H141621   6.067   3.766   2.043 -3.4109  0.4399 -0.2632
 6710TIP3    H241622   6.089   3.754   1.894 -1.1135 -0.5041  0.1194
 6711TIP3   OH241623   1.950   2.408   5.189 -0.1350 -0.0876 -0.1449
 6711TIP3    H141624   2.008   2.380   5.260  0.7186  0.7745 -0.4660
 6711TIP3    H241625   1.986   2.367   5.110  0.8782  1.4685 -0.5533
 6712TIP3   OH241626   1.743   1.692   1.288  0.2233 -0.2295 -0.0132
 6712TIP3    H141627   1.676   1.750   1.325  0.6541 -1.0546  2.2276
 6712TIP3    H241628   1.693   1.622   1.245 -0.2938  1.0461 -1.5760
 6713TIP3   OH241629   0.252   0.913   6.236 -0.3678  0.8086  0.2365
 6713TIP3    H141630   0.218   0.999   6.210 -2.3320  0.0015 -0.0916
 6713TIP3    H241631   0.209   0.851   6.177  1.4374 -0.3802  0.0994
 6714TIP3   OH241632   4.052   1.049  11.193  0.2553 -0.2363 -0.0840
 6714TIP3    H141633   3.970   1.093  11.214  0.1078 -1.1992  1.5428
 6714TIP3    H241634   4.112   1.075  11.263  0.4576 -1.7558  0.3452
 6715TIP3   OH241635   3.116   3.117  15.369 -0.1939 -0.3880 -0.5010
 6715TIP3    H141636   3.112   3.029  15.407 -0.1817  0.6570  2.1324
 6715TIP3    H241637   3.025   3.148  15.371 -0.1501 -0.2053 -1.1083
 6716TIP3   OH241638   2.786   4.973  14.462 -0.1906  0.1430 -0.6275
 6716TIP3    H141639   2.877   4.993  14.482 -0.6218  1.0155  0.5334
 6716TIP3    H241640   2.779   4.878  14.475  0.2867  0.2376  0.3606
 6717TIP3   OH241641   1.787   0.472   3.347  0.2351 -0.1800  0.6871
 6717TIP3    H141642   1.695   0.448   3.364 -0.2688  1.2999  0.2027
 6717TIP3    H241643   1.826   0.478   3.434 -0.5426  0.6965  0.9870
 6718TIP3   OH241644   1.957   2.600  15.065  0.1149  0.8084 -0.0160
 6718TIP3    H141645   1.902   2.666  15.107 -0.5124  0.9174 -0.9690
 6718TIP3    H241646   1.958   2.527  15.126  1.0707  1.7935  1.1977
 6719TIP3   OH241647   5.213   6.081   3.642 -0.3293 -0.3875  0.4881
 6719TIP3    H141648   5.204   6.008   3.704  0.0880  1.5431  2.9401
 6719TIP3    H241649   5.249   6.040   3.563  0.0103 -2.8020  1.7947
 6720TIP3   OH241650   2.151   1.960   5.561  0.0627  0.0032 -0.5463
 6720TIP3    H141651   2.193   2.028   5.508 -0.3297  0.4054 -0.3542
 6720TIP3    H241652   2.125   1.893   5.499  1.3936 -0.4802 -0.6178
 6721TIP3   OH241653   0.337   5.622  12.786  0.2335 -0.7341 -0.4714
 6721TIP3    H141654   0.428   5.643  12.806 -0.2265 -0.7089  1.8847
 6721TIP3    H241655   0.290   5.704  12.801 -0.3830 -1.1605 -0.0468
 6722TIP3   OH241656   6.066   3.447   3.055  0.3787  0.1218  0.0427
 6722TIP3    H141657   6.090   3.524   3.107  0.9637 -1.1806  1.7865
 6722TIP3    H241658   6.050   3.378   3.120 -1.5922 -0.8748 -1.3744
 6723TIP3   OH241659   2.540   6.695   4.802 -0.0613  0.4854  0.2489
 6723TIP3    H141660   2.627   6.729   4.785 -0.0236 -0.4917 -1.9978
 6723TIP3    H241661   2.485   6.736   4.735 -0.4387 -1.9252 -1.0697
 6724TIP3   OH241662   3.132   2.879  16.501  0.9454 -0.2410 -0.3703
 6724TIP3    H141663   3.141   2.790  16.533  2.1984  0.4755  1.4647
 6724TIP3    H241664   3.073   2.872  16.426  0.4959 -2.4942  0.1174
 6725TIP3   OH241665   2.055   4.663  12.186  0.4579  0.2031  0.5439
 6725TIP3    H141666   1.991   4.696  12.123  0.0642  1.8737  1.7535
 6725TIP3    H241667   2.087   4.582  12.147 -0.0887  0.9422 -1.5876
 6726TIP3   OH241668   2.610   4.226   5.570 -0.4864  0.2338  0.2479
 6726TIP3    H141669   2.698   4.263   5.571  0.0775 -1.0461  0.5701
 6726TIP3    H241670   2.624   4.132   5.557 -1.7690 -0.0999  1.1088
 6727TIP3   OH241671   1.608   0.649  16.502  0.4184 -0.1460  0.7714
 6727TIP3    H141672   1.636   0.731  16.543  1.3008 -0.0760  0.0625
 6727TIP3    H241673   1.553   0.677  16.429  0.1639 -0.2181  0.9317
 6728TIP3   OH241674   1.268   0.614  13.925  0.5192 -0.5036 -0.9709
 6728TIP3    H141675   1.181   0.637  13.957  0.2325 -0.4540 -1.7607
 6728TIP3    H241676   1.292   0.535  13.973 -0.6496 -1.4485 -1.9093
 6729TIP3   OH241677   2.227   4.831  13.703 -0.0683  0.7124 -0.0009
 6729TIP3    H141678   2.210   4.769  13.774  1.1743  0.9642  0.5437
 6729TIP3    H241679   2.318   4.814  13.677 -0.0448  1.5995 -0.5378
 6730TIP3   OH241680   1.034   3.042  11.187 -0.5188 -0.3353 -0.2802
 6730TIP3    H141681   1.022   3.031  11.282 -1.1255  0.2245 -0.2901
 6730TIP3    H241682   0.963   2.991  11.148  0.2926 -1.3673 -0.4766
 6731TIP3   OH241683   5.791   0.316  12.625  0.7323  0.5701  0.4292
 6731TIP3    H141684   5.724   0.289  12.688  1.3965  0.0366  0.9215
 6731TIP3    H241685   5.742   0.335  12.545 -0.1277  1.3120  1.1092
 6732TIP3   OH241686   1.095   6.284  11.800  0.3225  0.4267 -0.2860
 6732TIP3    H141687   1.020   6.231  11.826 -0.6984 -0.0487 -3.6608
 6732TIP3    H241688   1.156   6.222  11.760  1.4571  1.1496  0.2737
 6733TIP3   OH241689   3.129   0.802   3.137 -0.0857  0.2611  0.1774
 6733TIP3    H141690   3.056   0.750   3.171 -0.8055 -1.6086 -3.6103
 6733TIP3    H241691   3.087   0.874   3.090  0.5699  0.3468 -0.2922
 6734TIP3   OH241692   1.973   2.812  16.522  0.3059  0.1729 -0.9659
 6734TIP3    H141693   1.887   2.779  16.493  0.1583  0.3050 -0.6856
 6734TIP3    H241694   1.955   2.855  16.605  0.6336  0.2748 -0.9460
 6735TIP3   OH241695   5.460   5.825   1.683  0.1676 -0.2665  0.3965
 6735TIP3    H141696   5.539   5.803   1.634  0.9845  0.8715  1.1348
 6735TIP3    H241697   5.493   5.869   1.761 -1.2400  0.7391  0.4451
 6736TIP3   OH241698   3.896   0.871  11.537  0.0947 -0.0049 -1.0593
 6736TIP3    H141699   3.991   0.861  11.534  0.1509  0.0770  0.1631
 6736TIP3    H241700   3.882   0.965  11.543 -0.0915  0.0209 -1.8094
 6737TIP3   OH241701   4.256   3.175   5.572  0.0773  0.3076  0.2551
 6737TIP3    H141702   4.251   3.231   5.494  2.8744 -0.8300 -0.8936
 6737TIP3    H241703   4.241   3.234   5.645 -1.3053  1.6813 -1.0703
 6738TIP3   OH241704   3.071   6.418   3.631 -0.2181 -0.1958  0.3484
 6738TIP3    H141705   3.124   6.498   3.627  0.2236 -0.4984  0.0181
 6738TIP3    H241706   3.135   6.347   3.639 -0.5445 -0.6124 -0.5823
 6739TIP3   OH241707   6.040   6.331   5.317 -0.0218  0.0734  0.5575
 6739TIP3    H141708   6.016   6.256   5.262 -2.7401 -0.6570  2.5151
 6739TIP3    H241709   5.963   6.388   5.313  0.5036  0.9269  2.0271
 6740TIP3   OH241710   3.734   3.289  14.961  0.0566  0.0924 -0.9154
 6740TIP3    H141711   3.762   3.318  15.048 -0.0540  0.0486 -0.8649
 6740TIP3    H241712   3.797   3.220  14.938 -2.1415 -2.7097  0.8068
 6741TIP3   OH241713   4.683   0.841  10.389  0.2269  0.1293 -0.8129
 6741TIP3    H141714   4.618   0.872  10.325 -0.7943 -0.7508 -0.2481
 6741TIP3    H241715   4.630   0.800  10.458  1.2298  1.9644  1.1534
 6742TIP3   OH241716   5.408   4.895   2.240  0.1840  0.7039 -0.1751
 6742TIP3    H141717   5.366   4.822   2.194 -2.8081  0.4004  2.6867
 6742TIP3    H241718   5.371   4.973   2.199 -0.8108  0.4719  0.2436
 6743TIP3   OH241719   4.539   4.043  17.196  0.6946  0.1029 -0.8536
 6743TIP3    H141720   4.591   4.049  17.276 -0.0111  1.4556 -0.4714
 6743TIP3    H241721   4.498   3.956  17.200  0.9703  0.0089  0.0437
 6744TIP3   OH241722   2.585   2.242   5.606  0.5341 -0.2368 -0.1724
 6744TIP3    H141723   2.544   2.306   5.548  1.6958 -1.4264 -2.4703
 6744TIP3    H241724   2.571   2.276   5.694 -1.1287  1.8072 -1.1377
 6745TIP3   OH241725   4.011   6.290  16.989  0.0367  0.4061 -0.6632
 6745TIP3    H141726   4.092   6.332  16.959  1.1355 -1.3750 -0.3085
 6745TIP3    H241727   4.020   6.287  17.084 -0.1642 -0.3481 -0.6660
 6746TIP3   OH241728   0.041   6.601  12.766 -0.5763 -0.3246 -0.8355
 6746TIP3    H141729   0.133   6.583  12.785  0.2544  0.0527 -3.8851
 6746TIP3    H241730   0.020   6.678  12.819  0.2527 -1.4907  1.2864
 6747TIP3   OH241731   6.334   5.043  11.274 -0.1985 -0.0087 -0.1888
 6747TIP3    H141732   6.300   4.979  11.337  1.2301 -0.1232  0.5060
 6747TIP3    H241733   6.324   5.000  11.189 -1.8037 -0.0053 -0.0352
 6748TIP3   OH241734   5.122   1.986   5.093 -0.0656  0.2313 -0.3726
 6748TIP3    H141735   5.099   1.937   5.173  1.2615 -1.1966 -0.8088
 6748TIP3    H241736   5.162   1.920   5.036 -0.2617  1.4031 -1.9017
 6749TIP3   OH241737   1.054   0.152   5.373 -0.1796 -0.4287  0.0916
 6749TIP3    H141738   1.142   0.154   5.336 -0.2597 -1.7318 -0.2273
 6749TIP3    H241739   1.059   0.089   5.445 -0.9078 -0.7337 -0.1100
 6750TIP3   OH241740   3.659   1.210   1.435  0.3348 -0.0006  0.1190
 6750TIP3    H141741   3.632   1.297   1.405 -1.9180 -1.3648 -2.0727
 6750TIP3    H241742   3.748   1.200   1.402  1.5181  2.2324  2.2817
 6751TIP3   OH241743   0.319   5.305   4.381  0.0538  0.0773 -0.2146
 6751TIP3    H141744   0.353   5.333   4.466 -0.3008  0.3246 -0.1517
 6751TIP3    H241745   0.242   5.252   4.403  0.3270 -0.3901 -0.3592
 6752TIP3   OH241746   4.972   1.860  15.129 -0.0515 -0.1026 -0.7509
 6752TIP3    H141747   5.021   1.781  15.152  0.4672 -0.0768 -1.7178
 6752TIP3    H241748   4.986   1.920  15.203 -0.8564 -1.0778  0.2202
 6753TIP3   OH241749   3.200   1.293  12.959  0.5265  0.0764 -0.2693
 6753TIP3    H141750   3.233   1.358  13.021  0.4204  0.1546 -0.2934
 6753TIP3    H241751   3.132   1.247  13.007  1.0346 -0.4423 -0.0419
 6754TIP3   OH241752   3.477   1.604   5.553 -0.6892  0.0987 -0.1046
 6754TIP3    H141753   3.551   1.627   5.609 -2.1467 -1.1914  2.6090
 6754TIP3    H241754   3.509   1.614   5.464  2.5671  0.0915  0.9372
 6755TIP3   OH241755   1.102   1.420   3.933 -0.3342 -0.8368  0.2646
 6755TIP3    H141756   1.039   1.490   3.951  0.5329 -0.5337  2.4685
 6755TIP3    H241757   1.078   1.388   3.846 -2.5867  0.2438  0.4070
 6756TIP3   OH241758   1.487   0.894   5.624 -0.2871 -0.1110 -0.3194
 6756TIP3    H141759   1.456   0.899   5.715  0.5681  0.3620 -0.0396
 6756TIP3    H241760   1.433   0.826   5.584  0.2111 -1.2834  0.9206
 6757TIP3   OH241761   1.162   4.979  16.314 -0.5309 -0.2745 -0.2828
 6757TIP3    H141762   1.232   4.929  16.357 -0.1080  0.9026  0.4528
 6757TIP3    H241763   1.089   4.917  16.307 -0.6769 -0.5046  2.3147
 6758TIP3   OH241764   4.046   0.844  13.228  0.5641  0.2628  0.0976
 6758TIP3    H141765   4.029   0.854  13.134 -0.7747  0.2243  0.3085
 6758TIP3    H241766   3.997   0.916  13.268 -2.9211 -2.3965  1.0899
 6759TIP3   OH241767   5.228   3.139   5.375 -0.2034  0.2572 -0.0996
 6759TIP3    H141768   5.216   3.074   5.445  0.2745 -0.2100 -0.4444
 6759TIP3    H241769   5.290   3.098   5.315 -0.4536  0.7414 -0.6940
 6760TIP3   OH241770   5.778   0.532  11.260  0.4950  0.1725 -0.6755
 6760TIP3    H141771   5.719   0.460  11.238 -0.2451  0.7310 -0.5366
 6760TIP3    H241772   5.761   0.599  11.193  2.1178 -0.2763 -1.5974
 6761TIP3   OH241773   1.799   0.819  15.621  0.3297  0.1072 -0.2124
 6761TIP3    H141774   1.875   0.848  15.570  0.6401 -0.0254  0.1751
 6761TIP3    H241775   1.833   0.748  15.676 -0.2996 -0.6397 -0.7696
 6762TIP3   OH241776   1.185   5.679   4.984  0.7525  0.4273  0.2550
 6762TIP3    H141777   1.209   5.752   4.928  0.5587  1.5376  1.5539
 6762TIP3    H241778   1.125   5.626   4.932  1.1042  1.0522 -0.8015
 6763TIP3   OH241779   6.555   3.125   2.636 -0.3211  0.0801 -0.5713
 6763TIP3    H141780   6.636   3.078   2.616  1.0477  2.8916 -2.2357
 6763TIP3    H241781   6.538   3.105   2.728  0.5474 -2.9324 -0.9574
 6764TIP3   OH241782   4.837   5.610   6.248 -0.8361 -0.3918  1.0160
 6764TIP3    H141783   4.838   5.600   6.344 -0.1314  1.5673  1.2458
 6764TIP3    H241784   4.759   5.662   6.230  0.0530  0.8892  0.7408
 6765TIP3   OH241785   4.297   6.061  13.962 -0.1350  0.3867  0.1746
 6765TIP3    H141786   4.295   6.068  14.057  3.3795 -0.7617  0.4937
 6765TIP3    H241787   4.360   6.128  13.935  0.7338 -0.8673 -1.0446
 6766TIP3   OH241788   0.392   6.700   1.773 -0.6839 -0.3928 -0.3820
 6766TIP3    H141789   0.460   6.766   1.785 -0.7158 -0.5815  1.0346
 6766TIP3    H241790   0.395   6.679   1.679  0.6301  0.2141 -0.5011
 6767TIP3   OH241791   5.993   6.587   4.864  0.3481  0.4646  0.0865
 6767TIP3    H141792   5.945   6.519   4.817  1.5317 -0.3643  0.0415
 6767TIP3    H241793   5.964   6.669   4.824 -0.1797 -0.0945 -0.7001
 6768TIP3   OH241794   1.136   1.500   0.388 -0.4160 -0.1560 -0.0851
 6768TIP3    H141795   1.202   1.432   0.384  1.0320  1.0274  1.7631
 6768TIP3    H241796   1.181   1.580   0.360 -1.0559  0.6384  1.0332
 6769TIP3   OH241797   5.886   5.988   6.533  0.3035  0.6856 -0.2651
 6769TIP3    H141798   5.834   6.002   6.612 -0.0338  2.2180 -0.7326
 6769TIP3    H241799   5.975   5.973   6.565  0.3689  2.3405  0.3826
 6770TIP3   OH241800   4.805   4.384   1.669  0.1284 -0.3122 -0.3412
 6770TIP3    H141801   4.837   4.436   1.743 -0.0810 -0.8252  0.1147
 6770TIP3    H241802   4.860   4.305   1.669 -1.8106 -1.7477  1.1576
 6771TIP3   OH241803   6.684   0.839   1.062  0.7850  0.0612 -0.2402
 6771TIP3    H141804   6.701   0.769   0.999  1.5271 -0.3248  0.3857
 6771TIP3    H241805   6.720   0.807   1.144  0.7421  1.0000  0.1520
 6772TIP3   OH241806   2.054   6.782   3.129  0.4210 -0.5761 -0.3409
 6772TIP3    H141807   1.998   6.705   3.114 -0.4511  0.0150 -0.1933
 6772TIP3    H241808   2.107   6.757   3.205  0.3050 -1.1217 -0.4298
 6773TIP3   OH241809   4.337   0.802   5.145 -0.0413  0.7198  0.2512
 6773TIP3    H141810   4.285   0.745   5.201  0.1789  1.0353  0.7866
 6773TIP3    H241811   4.324   0.768   5.056 -3.0831  2.1795  0.0135
 6774TIP3   OH241812   0.981   3.079   2.057 -0.0542  0.6996  0.0954
 6774TIP3    H141813   1.013   3.162   2.021 -1.3661  0.6442 -1.3178
 6774TIP3    H241814   0.899   3.101   2.101 -0.1228  0.2525  0.1997
 6775TIP3   OH241815   3.319   0.314   1.654  0.9888  0.2691 -0.4178
 6775TIP3    H141816   3.301   0.290   1.745  1.9436  1.1843  0.0159
 6775TIP3    H241817   3.298   0.407   1.648 -0.5305 -0.0900 -1.5428
 6776TIP3   OH241818   3.088   3.284  12.376  0.0251  0.1725 -0.4331
 6776TIP3    H141819   3.128   3.368  12.352  0.8032  0.2290  0.9144
 6776TIP3    H241820   2.994   3.297  12.362  0.2405  0.8942 -1.2762
 6777TIP3   OH241821   2.924   1.350  12.051 -0.1728  0.3263  0.1469
 6777TIP3    H141822   2.878   1.312  11.976  0.8560 -1.1315  0.2303
 6777TIP3    H241823   2.885   1.437  12.061 -0.4434  0.4907 -1.9695
 6778TIP3   OH241824   2.584   0.879  11.949 -0.5066 -0.1716 -0.7129
 6778TIP3    H141825   2.636   0.959  11.954  1.3615 -1.2015 -2.3394
 6778TIP3    H241826   2.505   0.905  11.902 -0.3244  0.8806 -0.4734
 6779TIP3   OH241827   1.491   1.570  13.071  0.0058  0.3407 -0.4180
 6779TIP3    H141828   1.512   1.501  13.007 -0.3307 -0.4707  0.3241
 6779TIP3    H241829   1.518   1.651  13.028  1.0465 -0.3072 -1.0461
 6780TIP3   OH241830   0.301   6.162  12.650 -0.3838  0.9393 -0.4299
 6780TIP3    H141831   0.316   6.155  12.555 -0.0602  1.1271 -0.3936
 6780TIP3    H241832   0.221   6.214  12.658 -0.4975  0.7931 -0.6023
 6781TIP3   OH241833   6.546   3.748  12.238  0.1382 -0.0922  0.0353
 6781TIP3    H141834   6.524   3.789  12.322 -1.1021 -1.3177  0.3444
 6781TIP3    H241835   6.468   3.761  12.184  0.2008 -0.9691 -0.2728
 6782TIP3   OH241836   4.445   1.998  13.131 -0.1141 -0.4467  0.0274
 6782TIP3    H141837   4.539   2.009  13.140  0.0966 -0.0988 -2.1035
 6782TIP3    H241838   4.435   1.916  13.082 -0.9048 -0.3492  0.0027
 6783TIP3   OH241839   4.684   0.156   0.243 -0.0887  0.0104  0.3152
 6783TIP3    H141840   4.668   0.080   0.186 -0.2893 -0.2104  0.6677
 6783TIP3    H241841   4.725   0.120   0.321  1.0129  0.4183 -0.0438
 6784TIP3   OH241842   4.015   1.267  16.758 -0.3926 -0.0138  0.2701
 6784TIP3    H141843   3.976   1.182  16.773  0.7987 -0.2342  2.5041
 6784TIP3    H241844   4.110   1.250  16.756 -0.1732  1.1273 -0.3117
 6785TIP3   OH241845   6.053   6.585   0.136  0.0120  0.2454 -0.1906
 6785TIP3    H141846   6.148   6.579   0.139  0.2052  2.2291 -0.5597
 6785TIP3    H241847   6.036   6.679   0.136 -1.9355 -0.0723 -0.5985
 6786TIP3   OH241848   2.109   1.044  12.307 -0.2411 -0.0893  0.4673
 6786TIP3    H141849   2.197   1.072  12.329 -0.0409 -0.2049 -0.1789
 6786TIP3    H241850   2.086   0.981  12.375  0.8254 -1.3403 -0.2882
 6787TIP3   OH241851   5.633   0.655   3.786  0.0090  0.4118  0.0094
 6787TIP3    H141852   5.723   0.687   3.801 -0.6557  1.0133  3.7864
 6787TIP3    H241853   5.583   0.734   3.767 -0.0485  0.3257 -0.1979
 6788TIP3   OH241854   2.326   3.566  12.395  0.4637  0.2735 -0.3761
 6788TIP3    H141855   2.408   3.602  12.362  0.0203  0.5579 -1.1965
 6788TIP3    H241856   2.332   3.575  12.490  0.6066  2.0254 -0.5178
 6789TIP3   OH241857   5.127   4.484  11.669  0.1653  0.3837 -0.0751
 6789TIP3    H141858   5.068   4.545  11.623  1.4147  2.0208  0.4093
 6789TIP3    H241859   5.095   4.482  11.759  0.4470  0.7557  0.0345
 6790TIP3   OH241860   4.953   0.250   1.478  0.4793 -0.9434  0.9191
 6790TIP3    H141861   4.968   0.255   1.572  1.0029 -0.3078  0.8144
 6790TIP3    H241862   4.941   0.341   1.451 -1.3687 -1.2457  0.6239
 6791TIP3   OH241863   3.110   5.364  13.771 -0.1239 -0.2152 -0.2127
 6791TIP3    H141864   3.060   5.289  13.805 -0.5854  0.6856  1.1701
 6791TIP3    H241865   3.154   5.329  13.693 -0.7873 -1.7640  0.0553
 6792TIP3   OH241866   6.672   4.820  11.053  0.4229 -0.3000 -0.2311
 6792TIP3    H141867   6.678   4.848  11.144  1.7799  1.5926 -0.8453
 6792TIP3    H241868   6.597   4.868  11.018  2.7398  2.9557 -1.2801
 6793TIP3   OH241869   1.925   1.041  15.744  0.3352 -0.2828  0.1758
 6793TIP3    H141870   1.969   0.977  15.800  0.4445  0.5612  1.0809
 6793TIP3    H241871   1.922   1.000  15.658  2.8999 -0.3860  0.0697
 6794TIP3   OH241872   2.683   3.954  16.491  0.4313  0.1769 -0.5176
 6794TIP3    H141873   2.712   4.041  16.466 -0.2436  0.8865  1.0286
 6794TIP3    H241874   2.759   3.898  16.475  1.5275  1.3906  0.2411
 6795TIP3   OH241875   5.150   6.547   2.510 -0.4425 -0.4935  0.0694
 6795TIP3    H141876   5.176   6.461   2.477  1.5144  0.2918 -0.6026
 6795TIP3    H241877   5.142   6.602   2.432  0.7066  0.4945  0.6080
 6796TIP3   OH241878   3.045   5.026   0.045 -0.4187 -0.1997  0.3259
 6796TIP3    H141879   3.118   4.969   0.021 -1.2199 -0.9261 -0.4880
 6796TIP3    H241880   3.064   5.109   0.001  0.8221  0.2361  1.6244
 6797TIP3   OH241881   0.427   3.246   1.112  0.2119  0.1802 -0.3938
 6797TIP3    H141882   0.377   3.198   1.046 -0.5970  1.4112 -0.7038
 6797TIP3    H241883   0.362   3.298   1.160  0.9305  0.1910  0.6125
 6798TIP3   OH241884   5.271   1.481   3.302  0.3006  0.1104  0.1393
 6798TIP3    H141885   5.306   1.401   3.343 -3.1642 -0.7811  1.6831
 6798TIP3    H241886   5.229   1.449   3.221  0.9813  0.7834 -0.4912
 6799TIP3   OH241887   5.745   4.832   1.747 -0.8089  0.3767  0.1128
 6799TIP3    H141888   5.817   4.875   1.792 -0.2621  0.9384 -1.2609
 6799TIP3    H241889   5.780   4.748   1.718 -1.3455 -0.2622  1.2171
 6800TIP3   OH241890   2.330   5.051  17.274  0.4706  0.7116 -0.1451
 6800TIP3    H141891   2.417   5.089  17.289  0.1630  0.5470  2.6216
 6800TIP3    H241892   2.281   5.071  17.354 -1.4921 -0.6822 -0.9178
 6801TIP3   OH241893   3.915   6.462   5.313 -0.4833  0.3594  0.1310
 6801TIP3    H141894   3.886   6.495   5.227 -2.2374  1.0434  0.9322
 6801TIP3    H241895   3.833   6.450   5.362  0.2562 -2.7706  0.7778
 6802TIP3   OH241896   3.089   3.094   3.149 -0.5623 -0.0692  0.4001
 6802TIP3    H141897   3.181   3.120   3.143 -1.0241  1.7526  0.5274
 6802TIP3    H241898   3.054   3.150   3.219 -2.2336  0.7484 -1.0400
 6803TIP3   OH241899   0.590   4.655   1.481 -0.4348  0.1008 -0.0002
 6803TIP3    H141900   0.660   4.591   1.494 -0.0266  0.6644  0.6609
 6803TIP3    H241901   0.632   4.740   1.493 -1.1185  0.4712 -0.1469
 6804TIP3   OH241902   3.970   6.401  14.264 -0.6304 -0.1315  0.4564
 6804TIP3    H141903   4.044   6.396  14.324 -1.1680  2.4808  1.4572
 6804TIP3    H241904   3.997   6.347  14.189  3.2757  2.3390 -0.2169
 6805TIP3   OH241905   5.547   5.880   1.998 -0.1393 -0.0944  0.3705
 6805TIP3    H141906   5.452   5.875   1.998 -0.1814  0.4350 -0.4256
 6805TIP3    H241907   5.577   5.790   2.013 -0.7565 -0.1963  1.0134
 6806TIP3   OH241908   3.154   2.011   2.434  0.3894 -0.0031  0.0574
 6806TIP3    H141909   3.123   2.102   2.432  1.9257  0.5409 -0.4879
 6806TIP3    H241910   3.160   1.987   2.342 -1.1213 -1.0968  0.2045
 6807TIP3   OH241911   5.948   6.654  17.207 -0.0264  0.2262 -0.4612
 6807TIP3    H141912   6.040   6.651  17.181 -0.1478 -1.7897 -0.8362
 6807TIP3    H241913   5.946   6.614  17.294 -0.4329  1.2291  0.0098
 6808TIP3   OH241914   5.007   4.340   5.481  0.3999 -0.7850  0.8181
 6808TIP3    H141915   5.017   4.245   5.487 -0.2327 -0.8645  0.6411
 6808TIP3    H241916   5.034   4.361   5.391  0.9100 -0.7408  0.9743
 6809TIP3   OH241917   3.520   1.041  17.263  0.1911 -0.1140  0.0143
 6809TIP3    H141918   3.507   0.956  17.221  0.5899 -1.0586  1.6987
 6809TIP3    H241919   3.615   1.052  17.266  0.1485  0.2242  0.0980
 6810TIP3   OH241920   1.891   2.756   5.987  0.5758 -0.5305  0.5670
 6810TIP3    H141921   1.819   2.810   5.954 -1.3481 -3.3486 -0.1783
 6810TIP3    H241922   1.968   2.812   5.978 -0.9653  1.4471 -1.8689
 6811TIP3   OH241923   4.816   5.465   0.148 -0.4801 -0.1981 -0.1681
 6811TIP3    H141924   4.740   5.414   0.178  0.6145 -2.3633 -0.9117
 6811TIP3    H241925   4.892   5.417   0.180  0.6189  1.1987 -0.5784
 6812TIP3   OH241926   0.686   5.240   4.671 -0.9522  0.3875 -0.1168
 6812TIP3    H141927   0.599   5.281   4.674 -1.1012  0.2454 -1.7688
 6812TIP3    H241928   0.682   5.180   4.597 -0.6143 -2.4241  1.9854
 6813TIP3   OH241929   2.174   1.473  15.954 -0.0163  0.8566  0.4013
 6813TIP3    H141930   2.165   1.539  15.885 -1.6964  0.2806  0.0104
 6813TIP3    H241931   2.262   1.437  15.942  0.0261  1.3435 -0.9399
 6814TIP3   OH241932   4.276   6.776   3.015 -0.0956  0.4348 -0.2979
 6814TIP3    H141933   4.326   6.725   2.951 -1.8576 -0.5095 -0.9962
 6814TIP3    H241934   4.217   6.829   2.962 -1.6644 -0.4331  0.5359
 6815TIP3   OH241935   5.971   2.164  11.836 -0.4274 -0.1902 -0.4015
 6815TIP3    H141936   5.887   2.132  11.802 -1.2361 -0.0493  1.3307
 6815TIP3    H241937   5.954   2.180  11.929  1.0545  1.5032 -0.3804
 6816TIP3   OH241938   0.485   1.854   2.324 -1.0207  0.5137  0.2143
 6816TIP3    H141939   0.555   1.887   2.269 -0.6351 -0.5319  0.0408
 6816TIP3    H241940   0.433   1.931   2.347 -1.1835  0.9899 -1.5780
 6817TIP3   OH241941   3.718   5.167  11.480 -0.1438  0.0013  0.9753
 6817TIP3    H141942   3.788   5.232  11.491  1.1870 -0.5898 -2.7615
 6817TIP3    H241943   3.639   5.219  11.466  0.5762  0.8176 -0.1829
 6818TIP3   OH241944   1.454   4.249  14.046 -0.4413 -0.5881 -0.2805
 6818TIP3    H141945   1.478   4.202  13.967  0.4031  1.1811 -1.1249
 6818TIP3    H241946   1.362   4.229  14.060 -1.0058  0.2038 -2.5603
 6819TIP3   OH241947   6.473   0.923   4.076  0.4503  0.6754  0.1526
 6819TIP3    H141948   6.512   0.893   3.994  0.2026  1.2837 -0.1980
 6819TIP3    H241949   6.518   0.874   4.144  0.3668 -0.1473 -0.3731
 6820TIP3   OH241950   2.074   6.672   4.013  0.3146 -0.9998 -0.3639
 6820TIP3    H141951   2.006   6.628   3.963 -0.6100  0.0744 -0.0717
 6820TIP3    H241952   2.089   6.614   4.088 -2.4217  0.1071  1.1809
 6821TIP3   OH241953   4.944   2.221  15.688 -0.5672  0.1788  0.2213
 6821TIP3    H141954   4.980   2.141  15.650  0.1351  0.8853 -0.6549
 6821TIP3    H241955   4.880   2.252  15.624 -0.3915  0.6405  0.2664
 6822TIP3   OH241956   1.736   2.286   0.624  0.5913  0.2095  0.0007
 6822TIP3    H141957   1.688   2.355   0.579 -0.6923  0.3308  1.4808
 6822TIP3    H241958   1.797   2.332   0.681 -0.2655  0.1794  0.9881
 6823TIP3   OH241959   5.185   2.814   0.041  0.0467 -0.1060  0.1838
 6823TIP3    H141960   5.166   2.908   0.052 -0.7796 -0.4592  2.1621
 6823TIP3    H241961   5.128   2.787  -0.031 -0.3826  0.7316  0.1949
 6824TIP3   OH241962   6.491   4.983   1.309  0.7292  0.1638 -0.4071
 6824TIP3    H141963   6.411   4.939   1.279 -1.5091  1.8299  2.6494
 6824TIP3    H241964   6.510   5.047   1.240 -2.0361  1.3699 -0.1975
 6825TIP3   OH241965   4.063   0.339  12.432  0.1099  0.1440  0.9421
 6825TIP3    H141966   4.108   0.420  12.410 -0.2562 -0.4872 -2.6526
 6825TIP3    H241967   4.134   0.277  12.451  0.7204 -0.0219 -1.5782
 6826TIP3   OH241968   1.947   0.090  11.763  0.1170 -0.3791 -0.4321
 6826TIP3    H141969   1.973   0.064  11.675  1.0065 -2.1440  0.2954
 6826TIP3    H241970   2.024   0.134  11.799 -0.2355  0.3153 -0.5198
 6827TIP3   OH241971   4.496   1.273   6.181 -0.1377  0.7899  0.3584
 6827TIP3    H141972   4.486   1.186   6.143 -0.8313  1.1976 -0.4383
 6827TIP3    H241973   4.406   1.305   6.190 -0.0117  0.6597  2.5061
 6828TIP3   OH241974   3.319   1.946   2.645  0.2405 -0.1159  0.1481
 6828TIP3    H141975   3.258   1.955   2.572  0.1828  0.4291  0.2605
 6828TIP3    H241976   3.377   2.022   2.637 -0.2257  0.3596  1.1012
 6829TIP3   OH241977   0.632   3.104   4.114  0.4899 -0.1622  1.2087
 6829TIP3    H141978   0.641   3.058   4.030  1.3946  0.0527  1.1808
 6829TIP3    H241979   0.667   3.043   4.179  0.7105  0.0646  1.3038
 6830TIP3   OH241980   4.561   5.346   2.088  0.6707  0.0015  0.3010
 6830TIP3    H141981   4.488   5.343   2.027  1.7993  1.8664 -1.2467
 6830TIP3    H241982   4.544   5.275   2.150 -1.9969 -0.1251 -0.4815
 6831TIP3   OH241983   4.263   3.877   1.226 -0.4700  0.1712  0.3632
 6831TIP3    H141984   4.357   3.873   1.243 -0.7795 -1.7754  1.9982
 6831TIP3    H241985   4.255   3.863   1.132  0.8181 -1.8838  0.4947
 6832TIP3   OH241986   2.740   4.772   2.300  0.1893 -0.5507 -0.0233
 6832TIP3    H141987   2.708   4.858   2.329 -0.9443 -1.7620  2.6263
 6832TIP3    H241988   2.835   4.778   2.308  0.1961  0.7183 -0.7547
 6833TIP3   OH241989   4.717   3.865   5.027 -0.3664  0.2163 -0.0606
 6833TIP3    H141990   4.775   3.818   5.086 -0.2086 -1.0900 -1.2107
 6833TIP3    H241991   4.631   3.826   5.041 -0.4159  0.2124 -0.3612
 6834TIP3   OH241992   2.815   0.157  14.300 -0.1798 -0.1650 -0.1123
 6834TIP3    H141993   2.772   0.200  14.226 -1.8566 -1.0470  0.3130
 6834TIP3    H241994   2.745   0.112  14.347  0.7540  0.6640  2.2626
 6835TIP3   OH241995   0.894   1.609   4.377  0.0307  0.9688  0.7934
 6835TIP3    H141996   0.889   1.679   4.313 -1.3890 -0.4747 -0.7777
 6835TIP3    H241997   0.907   1.530   4.325 -1.3996 -0.2887  2.2291
 6836TIP3   OH241998   3.007   4.617  13.168 -0.3461  0.1367 -0.2026
 6836TIP3    H141999   2.921   4.628  13.208 -0.4562  0.8924 -0.6215
 6836TIP3    H242000   3.054   4.558  13.227  0.0107  2.3310  1.8442
 6837TIP3   OH242001   0.951   4.919  14.305  0.4320 -0.4039  0.1144
 6837TIP3    H142002   0.857   4.932  14.315  0.4127 -1.3702  1.7442
 6837TIP3    H242003   0.989   4.951  14.388  1.3307 -1.5147  0.1668
 6838TIP3   OH242004   3.054   3.586   0.931  0.0506  0.0464 -0.4850
 6838TIP3    H142005   2.969   3.609   0.969  0.0027  0.1880 -0.6770
 6838TIP3    H242006   3.033   3.550   0.846  0.2622  1.3746 -1.1273
 6839TIP3   OH242007   5.011   5.020  14.604 -0.0003  0.1162  0.1629
 6839TIP3    H142008   5.017   4.987  14.515  1.2975 -2.3797  1.0793
 6839TIP3    H242009   5.007   5.115  14.594  1.5836  0.0024 -2.4998
 6840TIP3   OH242010   6.629   0.650   4.506 -0.1461  0.1213 -0.2036
 6840TIP3    H142011   6.625   0.620   4.597 -3.1225  0.8804  0.0199
 6840TIP3    H242012   6.613   0.572   4.454  1.3556 -0.2758 -0.1173
 6841TIP3   OH242013   1.906   4.959  15.517 -0.7276 -0.4981 -0.1129
 6841TIP3    H142014   1.887   4.957  15.611 -1.5672 -0.0963 -0.2652
 6841TIP3    H242015   1.866   4.879  15.483  0.0298 -0.9142 -0.0606
 6842TIP3   OH242016   4.587   4.297  17.046  0.2760 -0.0315  0.0261
 6842TIP3    H142017   4.670   4.299  17.094 -0.2250  0.3068  0.9156
 6842TIP3    H242018   4.537   4.228  17.089 -0.4204  0.7018  0.4252
 6843TIP3   OH242019   6.488   4.799  10.791 -0.1908  0.2901 -0.0184
 6843TIP3    H142020   6.542   4.852  10.732  1.0533 -1.4563 -0.5321
 6843TIP3    H242021   6.409   4.781  10.742 -0.0026  0.4801 -0.3966
 6844TIP3   OH242022   6.667   0.309  15.507 -0.1688  0.0716  0.0593
 6844TIP3    H142023   6.641   0.298  15.598 -1.6229 -0.3768 -0.3808
 6844TIP3    H242024   6.682   0.403  15.498 -2.9402  0.6053  0.0798
 6845TIP3   OH242025   3.311   1.290   0.278 -0.5586 -0.0384  0.1515
 6845TIP3    H142026   3.237   1.336   0.240 -1.9975 -1.9110  0.5180
 6845TIP3    H242027   3.336   1.342   0.354 -0.9080  1.0943 -0.4963
 6846TIP3   OH242028   5.776   0.987   5.938  0.3322 -0.7687 -0.2418
 6846TIP3    H142029   5.725   1.058   5.976  1.5418  0.3533 -0.6556
 6846TIP3    H242030   5.834   1.029   5.875  2.5866 -1.8093  1.0101
 6847TIP3   OH242031   0.321   3.512   3.913 -0.2652  0.6589 -0.1069
 6847TIP3    H142032   0.273   3.543   3.990  0.7560  0.7522  0.5086
 6847TIP3    H242033   0.342   3.421   3.932 -2.0262 -0.0634 -1.3089
 6848TIP3   OH242034   2.811   3.481  16.865  0.6888 -0.4043  0.0638
 6848TIP3    H142035   2.766   3.420  16.925 -1.8036 -0.2193 -1.4953
 6848TIP3    H242036   2.878   3.427  16.822 -1.6775 -2.2525 -1.5308
 6849TIP3   OH242037   0.627   5.171   5.307  0.2828 -0.3161 -0.1684
 6849TIP3    H142038   0.632   5.262   5.278  0.0358 -0.7306 -1.5375
 6849TIP3    H242039   0.566   5.129   5.247 -0.2559 -1.2155  0.9535
 6850TIP3   OH242040   1.464   0.300  14.500  0.0721 -0.1385 -0.2138
 6850TIP3    H142041   1.555   0.270  14.492  0.7034  1.5012  0.3603
 6850TIP3    H242042   1.471   0.394  14.512 -1.7246  0.0137 -0.0929
 6851TIP3   OH242043   5.859   5.228   1.324  0.9889  0.0811  0.2544
 6851TIP3    H142044   5.782   5.212   1.269  1.4986 -0.3316 -0.3512
 6851TIP3    H242045   5.924   5.263   1.264  1.2080  0.6450  0.8105
 6852TIP3   OH242046   3.627   6.779  10.393 -0.6266 -0.2325  0.1567
 6852TIP3    H142047   3.641   6.846  10.327 -0.5401  0.3144  0.7218
 6852TIP3    H242048   3.603   6.701  10.343  0.6475 -0.1660 -0.6051
 6853TIP3   OH242049   6.267   0.162   2.022  0.2915 -0.0640 -0.0266
 6853TIP3    H142050   6.277   0.253   1.994  0.7865 -0.7423 -2.2124
 6853TIP3    H242051   6.356   0.130   2.034  0.1075 -0.0909  1.4361
 6854TIP3   OH242052   2.016   0.523  17.265 -0.1673 -0.1755  0.6382
 6854TIP3    H142053   2.012   0.428  17.256 -0.4549  0.0187 -2.1103
 6854TIP3    H242054   1.933   0.554  17.229  0.2652  1.1535  0.7197
 6855TIP3   OH242055   5.946   0.190   3.341 -0.4188  0.7266 -0.4557
 6855TIP3    H142056   5.907   0.276   3.355  1.0835  1.6145 -1.4226
 6855TIP3    H242057   5.906   0.158   3.260 -0.5426  0.7905 -0.4198
 6856TIP3   OH242058   2.791   1.496   5.206  0.4622  0.1837 -0.2944
 6856TIP3    H142059   2.873   1.452   5.230  0.0462 -1.5215 -1.7999
 6856TIP3    H242060   2.797   1.508   5.111 -0.5778  1.0406 -0.2679
 6857TIP3   OH242061   4.649   0.901   0.615  0.1887  0.4867 -0.1771
 6857TIP3    H142062   4.573   0.854   0.582  0.3368  0.4849 -0.5238
 6857TIP3    H242063   4.656   0.874   0.706 -0.5173  0.8709 -0.0088
 6858TIP3   OH242064   4.269   0.233   2.113 -0.3235  0.1499  0.3958
 6858TIP3    H142065   4.227   0.231   2.199 -2.9892 -0.1470 -0.8198
 6858TIP3    H242066   4.243   0.317   2.075 -1.6337 -0.9270 -1.2104
 6859TIP3   OH242067   1.175   6.402   0.300 -0.1145  0.0829  0.6468
 6859TIP3    H142068   1.152   6.473   0.241  2.2022  0.1003 -0.3523
 6859TIP3    H242069   1.256   6.431   0.343 -1.0525 -0.4760  2.9122
 6860TIP3   OH242070   4.446   3.687   4.423  0.2224  0.5301  0.5784
 6860TIP3    H142071   4.470   3.597   4.402  0.3596  0.8792 -0.8786
 6860TIP3    H242072   4.376   3.708   4.361  0.7684  1.6878  0.3310
 6861TIP3   OH242073   1.080   2.817  10.757  0.3628  0.2390 -0.0519
 6861TIP3    H142074   1.128   2.734  10.750  0.5680  0.1708  1.7599
 6861TIP3    H242075   1.024   2.807  10.833 -1.1256  1.0572 -0.9795
 6862TIP3   OH242076   4.767   1.632  15.487  0.3358 -0.3070  0.1612
 6862TIP3    H142077   4.837   1.667  15.432 -0.6532  0.8086 -0.4489
 6862TIP3    H242078   4.699   1.605  15.424  0.2439 -1.4657  0.7304
 6863TIP3   OH242079   4.488   0.094   1.786 -0.0087  0.0914  0.1074
 6863TIP3    H142080   4.481   0.015   1.733 -0.4049 -0.0560  0.3757
 6863TIP3    H242081   4.478   0.166   1.723  0.6971 -0.0595 -0.1889
 6864TIP3   OH242082   5.068   5.732  11.688 -0.1556  0.6625 -0.1532
 6864TIP3    H142083   4.990   5.696  11.646  0.3773 -0.5173 -0.1679
 6864TIP3    H242084   5.053   5.719  11.782  0.8450 -1.4049 -0.2275
 6865TIP3   OH242085   5.121   6.201  16.981 -0.4644 -0.0096 -0.2426
 6865TIP3    H142086   5.131   6.217  17.075 -0.8826 -0.7257 -0.0681
 6865TIP3    H242087   5.094   6.286  16.945 -1.0027  0.0941  0.3910
 6866TIP3   OH242088   6.805   0.553  12.971 -0.5790  0.0443  0.3355
 6866TIP3    H142089   6.778   0.495  12.900  0.6237 -2.3137  1.7178
 6866TIP3    H242090   6.877   0.604  12.934  1.2870 -2.4501  0.2959
 6867TIP3   OH242091   6.701   0.156   3.266  0.0722 -0.5345  0.2337
 6867TIP3    H142092   6.703   0.097   3.342  1.0622  1.5334  1.8894
 6867TIP3    H242093   6.714   0.243   3.303 -2.0834  0.8761 -2.0462
 6868TIP3   OH242094   2.474   1.395  12.344 -0.2175 -0.9322  0.4432
 6868TIP3    H142095   2.399   1.409  12.286 -1.0369 -4.0484  0.5575
 6868TIP3    H242096   2.550   1.418  12.290 -1.1228  0.1787 -0.4136
 6869TIP3   OH242097   6.645   5.137  15.555 -0.2293  0.1165 -0.0937
 6869TIP3    H142098   6.550   5.135  15.557 -0.2879  0.4348 -1.4764
 6869TIP3    H242099   6.671   5.146  15.647 -1.5758  1.4659  0.1986
 6870TIP3   OH242100   1.582   1.141   2.495 -0.2686  0.1824  0.0273
 6870TIP3    H142101   1.624   1.100   2.420  1.0368  2.0225 -0.3281
 6870TIP3    H242102   1.542   1.069   2.543  1.4684 -1.4009 -0.7985
 6871TIP3   OH242103   6.140   1.609  16.325 -0.1853  0.5565 -0.2325
 6871TIP3    H142104   6.108   1.640  16.241 -1.5705 -0.1486  0.0149
 6871TIP3    H242105   6.070   1.555  16.360  1.4937 -1.5427  0.0935
 6872TIP3   OH242106   1.149   1.369  11.798  0.2119  0.2900 -0.2019
 6872TIP3    H142107   1.208   1.359  11.723 -1.7713 -1.6831 -1.6398
 6872TIP3    H242108   1.138   1.281  11.832 -1.8719  0.5769 -0.0041
 6873TIP3   OH242109   0.840   2.891  11.045 -0.0835  0.1431  0.1344
 6873TIP3    H142110   0.765   2.901  10.986 -0.5063  0.7343  0.7573
 6873TIP3    H242111   0.807   2.833  11.115  0.5346 -0.8807 -0.3968
 6874TIP3   OH242112   4.237   2.030   1.284 -0.2896  0.0325 -0.0891
 6874TIP3    H142113   4.302   2.045   1.215  1.1395  0.7992  1.3685
 6874TIP3    H242114   4.280   2.057   1.365 -1.4957 -1.8795  1.2950
 6875TIP3   OH242115   2.697   2.568   0.237  0.2950  0.0823  0.0105
 6875TIP3    H142116   2.725   2.658   0.252  2.0876 -0.5359  0.5148
 6875TIP3    H242117   2.644   2.573   0.157 -1.0671  1.8180  0.9373
 6876TIP3   OH242118   5.069   1.099  14.825 -0.5554  0.2585  0.0162
 6876TIP3    H142119   4.991   1.149  14.845 -0.6308  0.0514  0.2426
 6876TIP3    H242120   5.040   1.008  14.823 -0.0149 -0.0045  1.8103
 6877TIP3   OH242121   1.095   1.950   5.431 -0.1711 -0.2634  0.2087
 6877TIP3    H142122   1.059   2.010   5.365  0.7812  0.6297  0.4823
 6877TIP3    H242123   1.080   1.995   5.514 -1.1736 -1.2907  0.6043
 6878TIP3   OH242124   2.499   6.547   4.258  0.6270  0.5008 -0.5897
 6878TIP3    H142125   2.590   6.569   4.236  0.6658  0.1904 -0.7443
 6878TIP3    H242126   2.458   6.632   4.278  1.1888  0.5504  0.3947
 6879TIP3   OH242127   2.319   5.035  12.176  0.0080  0.2891 -0.6429
 6879TIP3    H142128   2.271   5.063  12.253  0.8869  0.3228 -0.0901
 6879TIP3    H242129   2.329   4.940  12.188  0.1551  0.2966 -0.7067
 6880TIP3   OH242130   0.478   5.532  13.913 -0.2550  0.1296 -0.1934
 6880TIP3    H142131   0.394   5.580  13.910 -0.1792  0.2204 -1.2625
 6880TIP3    H242132   0.544   5.598  13.893  0.1526  0.1889  1.2512
 6881TIP3   OH242133   0.999   2.145   0.185 -0.2099 -0.0080  0.1370
 6881TIP3    H142134   0.967   2.228   0.221 -0.8514  0.6269 -1.7713
 6881TIP3    H242135   0.923   2.107   0.141  0.8996  0.0900 -1.9539
 6882TIP3   OH242136   6.752   2.599  12.432 -0.2537 -0.0818  0.6376
 6882TIP3    H142137   6.792   2.686  12.434 -1.1551  0.3595  0.0821
 6882TIP3    H242138   6.824   2.539  12.452  0.2977  0.8145  1.3837
 6883TIP3   OH242139   1.600   5.857   1.068  0.1627 -0.2391 -0.8177
 6883TIP3    H142140   1.591   5.828   0.977  2.1760 -0.1873 -1.0788
 6883TIP3    H242141   1.686   5.825   1.095  0.7436  1.9951  0.2002
 6884TIP3   OH242142   3.810   6.661  12.916  0.1563 -0.3962 -0.4940
 6884TIP3    H142143   3.852   6.745  12.899 -0.3058  0.5696  2.4462
 6884TIP3    H242144   3.866   6.620  12.983 -1.3056 -0.9257  0.4584
 6885TIP3   OH242145   3.051   1.579  16.330 -0.0737  0.0935 -0.1252
 6885TIP3    H142146   3.144   1.554  16.334  0.0151  0.5141  1.5974
 6885TIP3    H242147   3.047   1.646  16.261  0.6211 -0.9368 -1.1977
 6886TIP3   OH242148   2.471   3.083   5.842  0.3429  0.8568 -0.0688
 6886TIP3    H142149   2.430   3.011   5.796  0.9298  0.8415 -0.5753
 6886TIP3    H242150   2.420   3.092   5.923 -0.7261  0.9177 -0.7223
 6887TIP3   OH242151   1.145   4.621   0.815 -0.7304  0.6881 -0.4780
 6887TIP3    H142152   1.164   4.545   0.871 -3.9264 -1.7631 -2.3325
 6887TIP3    H242153   1.212   4.618   0.748 -1.0996 -0.9271 -0.8224
 6888TIP3   OH242154   6.326   5.383   4.413 -0.3008 -0.0704 -0.6362
 6888TIP3    H142155   6.405   5.428   4.383 -0.5257  1.0729  0.3875
 6888TIP3    H242156   6.340   5.368   4.506 -1.2056 -0.0296 -0.4794
 6889TIP3   OH242157   0.466   5.877  12.584 -0.0884  0.0477  0.4137
 6889TIP3    H142158   0.403   5.932  12.538 -0.4218 -0.4547  0.2736
 6889TIP3    H242159   0.435   5.876  12.675  1.8322  2.9734  1.2763
 6890TIP3   OH242160   4.369   5.510   5.895  0.2785 -0.4600 -0.2692
 6890TIP3    H142161   4.379   5.452   5.820  0.8743 -1.2046  0.3834
 6890TIP3    H242162   4.458   5.537   5.917  0.4011 -2.3101  1.7741
 6891TIP3   OH242163   4.808   4.840   5.475 -0.8104 -0.8334 -0.1032
 6891TIP3    H142164   4.870   4.794   5.531  0.5785  0.6998 -0.3108
 6891TIP3    H242165   4.794   4.780   5.401  1.6183 -0.6785 -0.7993
 6892TIP3   OH242166   1.401   0.330  11.391  0.4459 -0.0588  0.5176
 6892TIP3    H142167   1.419   0.295  11.304 -0.7892 -0.2071  0.3131
 6892TIP3    H242168   1.401   0.254  11.448  0.4687 -0.0562  0.5213
 6893TIP3   OH242169   2.165   2.129  16.504 -0.2329  0.0786  0.1555
 6893TIP3    H142170   2.149   2.113  16.597 -0.4000  1.7261  0.4495
 6893TIP3    H242171   2.215   2.211  16.502  2.3313 -1.3699 -1.0808
 6894TIP3   OH242172   0.067   4.158   1.538  0.8357 -0.1378 -0.0736
 6894TIP3    H142173   0.036   4.170   1.628 -0.8221  2.0904 -0.8571
 6894TIP3    H242174   0.020   4.081   1.506  1.0945 -0.6728  0.8086
 6895TIP3   OH242175   2.977   4.667  16.505 -0.5178  0.1371  0.2283
 6895TIP3    H142176   2.948   4.754  16.533  0.3314  0.9987 -1.4178
 6895TIP3    H242177   3.072   4.675  16.497 -0.4303 -0.9661  0.0779
 6896TIP3   OH242178   2.489   1.688  11.227  0.1883  0.0678 -0.4874
 6896TIP3    H142179   2.514   1.595  11.219  1.1927  0.3011 -0.2173
 6896TIP3    H242180   2.405   1.686  11.274  0.0637 -0.7181 -0.7245
 6897TIP3   OH242181   1.486   4.302  14.863 -0.0452 -0.3245  0.0538
 6897TIP3    H142182   1.434   4.268  14.935  0.7181  0.5164  1.0548
 6897TIP3    H242183   1.524   4.225  14.821 -2.1562 -0.9670 -0.8123
 6898TIP3   OH242184   5.870   6.084  12.989  0.3183 -0.2997  0.2545
 6898TIP3    H142185   5.815   6.109  12.916 -0.2651  0.2878  0.8821
 6898TIP3    H242186   5.871   6.161  13.046 -0.0229 -1.0669  1.3278
 6899TIP3   OH242187   5.513   3.520  12.786 -0.0651  0.1850 -0.1671
 6899TIP3    H142188   5.475   3.477  12.709 -2.9421  0.6917  0.8431
 6899TIP3    H242189   5.495   3.613  12.772  0.0488  0.3538  0.7523
 6900TIP3   OH242190   5.207   6.647  14.095  0.2445  0.3808  0.4235
 6900TIP3    H142191   5.295   6.611  14.108  0.0793 -0.6691 -1.0456
 6900TIP3    H242192   5.219   6.741  14.094  1.5562  0.2235 -0.8706
 6901TIP3   OH242193   0.402   3.521  14.899 -0.1292 -0.1421 -0.5629
 6901TIP3    H142194   0.307   3.518  14.911 -0.0355  1.8609  1.2321
 6901TIP3    H242195   0.422   3.613  14.881  1.3971 -0.7126 -2.1232
 6902TIP3   OH242196   3.616   4.731   1.176  0.1668  0.0584 -0.1661
 6902TIP3    H142197   3.657   4.805   1.132 -0.7987 -0.6618 -2.4191
 6902TIP3    H242198   3.526   4.760   1.192  0.4193  0.1926  1.1252
 6903TIP3   OH242199   0.012   3.978   5.564 -0.5993 -0.2314 -0.3720
 6903TIP3    H142200   0.099   3.945   5.543  0.6706  2.4362  0.2944
 6903TIP3    H242201  -0.023   3.916   5.628 -0.5139 -2.9939 -2.7882
 6904TIP3   OH242202   0.782   3.131   4.405  0.0731  0.2462  0.4607
 6904TIP3    H142203   0.861   3.082   4.424  0.5620  1.2331  1.0972
 6904TIP3    H242204   0.725   3.115   4.481  0.1624  0.5021  0.5851
 6905TIP3   OH242205   6.819   0.834   4.852  0.0145 -0.3501  0.3759
 6905TIP3    H142206   6.739   0.863   4.807  0.0425 -0.4143  0.2874
 6905TIP3    H242207   6.817   0.883   4.935 -0.0956 -0.3202  0.3570
 6906TIP3   OH242208   0.481   5.005   4.580  0.6193  0.0847 -0.2850
 6906TIP3    H142209   0.478   4.965   4.494 -0.5548 -0.8848  0.1761
 6906TIP3    H242210   0.400   5.056   4.586  0.4332 -0.2795  0.4287
 6907TIP3   OH242211   1.350   3.219   0.918 -0.0446  0.1486  0.0711
 6907TIP3    H142212   1.266   3.216   0.964 -1.2316  1.0882 -1.8959
 6907TIP3    H242213   1.350   3.141   0.862 -0.6300  1.2264 -1.5058
 6908TIP3   OH242214   1.991   5.469  16.433  0.4755  0.1349 -0.6025
 6908TIP3    H142215   2.051   5.519  16.488 -2.8853  0.8601  2.8821
 6908TIP3    H242216   1.947   5.535  16.379 -1.5078  0.7116  1.5173
 6909TIP3   OH242217   5.324   6.443  13.655  0.4826 -0.1036  0.3034
 6909TIP3    H142218   5.345   6.363  13.605  0.4493 -0.5969  1.0614
 6909TIP3    H242219   5.381   6.510  13.618 -0.8378  0.0038 -1.6463
 6910TIP3   OH242220   2.162   2.144  12.708 -0.0903  0.0658  0.1714
 6910TIP3    H142221   2.218   2.134  12.784 -0.5189 -0.8412  0.3825
 6910TIP3    H242222   2.074   2.156  12.744 -0.2468 -0.0337 -0.1691
 6911TIP3   OH242223   4.619   3.483   0.717 -0.3678 -0.1003  0.2662
 6911TIP3    H142224   4.678   3.543   0.762  0.1207 -1.4976  1.5659
 6911TIP3    H242225   4.591   3.530   0.639  1.6690  0.9840  0.1477
 6912TIP3   OH242226   2.618   6.395   5.359  0.2999  0.0389 -0.3029
 6912TIP3    H142227   2.600   6.489   5.356 -0.0476  0.0049  0.6110
 6912TIP3    H242228   2.604   6.365   5.269  0.8369  0.9328 -0.6980
 6913TIP3   OH242229   6.425   1.725   0.758 -0.4188  0.3114  0.8236
 6913TIP3    H142230   6.423   1.777   0.677  0.8134  0.2465  0.7307
 6913TIP3    H242231   6.503   1.756   0.804 -1.3890  0.7035  2.2514
 6914TIP3   OH242232   5.031   0.677  10.636 -0.2677 -0.3553 -0.4374
 6914TIP3    H142233   5.022   0.605  10.573 -0.1165  0.0405 -0.9138
 6914TIP3    H242234   4.990   0.752  10.593 -0.7807 -0.2466  0.2220
 6915TIP3   OH242235   0.507   4.209  14.777 -0.1286 -0.1329 -0.4355
 6915TIP3    H142236   0.430   4.255  14.743  0.4645  1.4864  0.3034
 6915TIP3    H242237   0.477   4.119  14.790 -2.0288  0.5449  0.2087
 6916TIP3   OH242238   2.682   2.382   1.190 -0.7187  0.1032  0.6880
 6916TIP3    H142239   2.649   2.414   1.106  1.1604 -0.2141 -0.2272
 6916TIP3    H242240   2.766   2.426   1.201  2.1068 -4.2465 -0.7058
 6917TIP3   OH242241   0.378   5.986  16.123 -0.4974 -0.3610 -0.0580
 6917TIP3    H142242   0.321   5.996  16.047 -1.4121 -0.1283  0.6402
 6917TIP3    H242243   0.319   5.961  16.194  0.2798 -0.1853  0.6663
 6918TIP3   OH242244   5.645   6.615   4.328 -0.2017 -0.1672 -0.2497
 6918TIP3    H142245   5.705   6.574   4.390  1.4909  2.2320 -0.1380
 6918TIP3    H242246   5.560   6.613   4.372  0.5996 -0.1233  1.4069
 6919TIP3   OH242247   6.128   0.876  16.694  0.1536 -0.1627  0.2989
 6919TIP3    H142248   6.221   0.855  16.686  0.7139  1.5185  1.6792
 6919TIP3    H242249   6.127   0.964  16.733 -2.0193 -0.1698  0.3648
 6920TIP3   OH242250   3.071   4.521  11.576  0.1432 -0.3554  0.3265
 6920TIP3    H142251   3.136   4.577  11.619  0.4677 -0.4077 -0.0840
 6920TIP3    H242252   3.024   4.478  11.648 -0.4954  0.8694  0.6707
 6921TIP3   OH242253   4.413   3.897   0.581 -0.0032 -0.0004  0.0657
 6921TIP3    H142254   4.430   3.925   0.671  1.1640  3.3953 -1.0493
 6921TIP3    H242255   4.328   3.935   0.560  0.7149  1.1247 -0.8991
 6922TIP3   OH242256   0.246   3.778   3.674 -0.2445  0.0874 -0.2248
 6922TIP3    H142257   0.225   3.792   3.766  0.2582 -2.2300  0.2988
 6922TIP3    H242258   0.210   3.855   3.629 -2.6461  0.1440  1.6068
 6923TIP3   OH242259   4.417   0.550   0.089  0.8539 -0.3761 -0.0363
 6923TIP3    H142260   4.413   0.556   0.185  3.9296  0.8001  0.1496
 6923TIP3    H242261   4.330   0.522   0.063 -0.1716 -0.5042  3.0887
 6924TIP3   OH242262   2.904   1.858  11.226 -0.2774  0.1995 -0.0687
 6924TIP3    H142263   2.849   1.936  11.229 -1.2366 -0.4074 -1.1014
 6924TIP3    H242264   2.893   1.817  11.312 -0.0218  1.0210  0.3609
 6925TIP3   OH242265   1.174   5.604  11.156 -0.1288 -0.0395 -0.0042
 6925TIP3    H142266   1.121   5.583  11.079 -0.8175  0.7076  0.2529
 6925TIP3    H242267   1.160   5.530  11.215 -4.2928  1.8742  1.8175
 6926TIP3   OH242268   3.379   3.086   5.304 -0.3591  0.2125  0.2622
 6926TIP3    H142269   3.449   3.142   5.338  0.5706  0.1465 -1.4619
 6926TIP3    H242270   3.349   3.037   5.381  0.9313  0.8322  1.2091
 6927TIP3   OH242271   3.329   0.494  11.209  0.6357  0.4122 -0.6568
 6927TIP3    H142272   3.236   0.471  11.198  0.6003  0.1113  0.1486
 6927TIP3    H242273   3.347   0.472  11.301  1.5536  0.2968 -0.8624
 6928TIP3   OH242274   1.896   4.691   3.337 -0.1368  0.2333 -0.3389
 6928TIP3    H142275   1.819   4.665   3.387  1.2585 -1.6024  1.0257
 6928TIP3    H242276   1.874   4.670   3.246 -1.8191  1.3087 -0.2087
 6929TIP3   OH242277   1.335   3.344   3.484 -0.2166 -0.1938 -0.1664
 6929TIP3    H142278   1.282   3.320   3.409 -0.2719  1.8196 -0.8523
 6929TIP3    H242279   1.289   3.418   3.524  0.1487 -0.7977  1.4872
 6930TIP3   OH242280   4.912   4.782  12.494  0.1834  0.1952 -0.1232
 6930TIP3    H142281   4.965   4.818  12.565  0.2113  0.1177 -0.1057
 6930TIP3    H242282   4.844   4.732  12.538  0.4100 -0.1464 -0.1627
 6931TIP3   OH242283   2.083   3.186  14.994  0.3087  0.2780 -0.0528
 6931TIP3    H142284   2.164   3.137  15.006  0.3562  0.1620 -0.7790
 6931TIP3    H242285   2.014   3.121  15.004  0.2741  0.4780  1.0926
 6932TIP3   OH242286   1.337   3.138   4.683 -0.5713 -0.5522 -0.3947
 6932TIP3    H142287   1.305   3.125   4.594 -0.2650 -0.0122 -0.5891
 6932TIP3    H242288   1.258   3.132   4.738 -0.8187 -0.4940 -0.7408
 6933TIP3   OH242289   1.025   4.918  11.756 -0.1025 -0.0347 -0.4101
 6933TIP3    H142290   0.981   4.928  11.672  0.8315  0.4976 -0.8478
 6933TIP3    H242291   1.109   4.878  11.735 -0.4065 -1.1863  0.4314
 6934TIP3   OH242292   1.940   4.080  15.856  0.3730 -0.5710 -0.1855
 6934TIP3    H142293   1.978   4.017  15.918  2.7262 -0.5082 -1.4203
 6934TIP3    H242294   1.866   4.034  15.817  0.7694 -1.7887  0.4520
 6935TIP3   OH242295   1.544   3.802   0.040 -0.0055 -0.1674 -0.0988
 6935TIP3    H142296   1.571   3.877  -0.012 -1.5813  0.8218  0.4289
 6935TIP3    H242297   1.593   3.728   0.004 -1.0258  0.4545 -2.9998
 6936TIP3   OH242298   6.117   0.572   0.684  0.3762  0.7804  0.2168
 6936TIP3    H142299   6.069   0.498   0.722 -0.3563 -0.1515 -2.3597
 6936TIP3    H242300   6.206   0.561   0.716  0.8753 -2.6975 -1.9647
 6937TIP3   OH242301   2.818   6.052   3.935 -0.3947 -0.0386  0.1614
 6937TIP3    H142302   2.828   6.071   4.028 -0.3670 -2.3822  0.6925
 6937TIP3    H242303   2.907   6.039   3.903 -0.4658 -0.2162  0.0336
 6938TIP3   OH242304   1.460   4.804   1.837 -0.6130  0.2105 -0.2290
 6938TIP3    H142305   1.433   4.713   1.828 -0.0035 -0.0015  0.0327
 6938TIP3    H242306   1.391   4.846   1.888  0.0831 -0.5896  1.4393
 6939TIP3   OH242307   0.605   1.121   3.113 -0.4382  0.0943  0.5233
 6939TIP3    H142308   0.590   1.077   3.196 -1.4219 -0.5359  0.0280
 6939TIP3    H242309   0.533   1.182   3.104  0.1853  0.8508  0.5692
 6940TIP3   OH242310   5.694   6.609  12.744  0.2272  0.1856 -0.3807
 6940TIP3    H142311   5.632   6.682  12.736  1.1150  1.3892  2.4002
 6940TIP3    H242312   5.772   6.639  12.697  0.6992  1.2327  1.0079
 6941TIP3   OH242313   6.752   2.740   3.789  0.1800  0.7839  0.0275
 6941TIP3    H142314   6.802   2.749   3.870  1.3093  1.0842 -0.6819
 6941TIP3    H242315   6.708   2.656   3.797 -3.1436  2.5632  2.7672
 6942TIP3   OH242316   4.858   3.854  16.822 -0.2381 -0.4774 -0.0813
 6942TIP3    H142317   4.811   3.873  16.903  0.3213 -1.7732  0.5609
 6942TIP3    H242318   4.800   3.794  16.774  0.7167 -2.1135  0.7316
 6943TIP3   OH242319   5.841   0.157   0.485  0.2482  0.0575  0.2683
 6943TIP3    H142320   5.759   0.199   0.514  1.0691  0.8329  1.5648
 6943TIP3    H242321   5.853   0.084   0.545  0.6157  0.0757  0.2185
 6944TIP3   OH242322   1.980   3.331  13.667 -0.4594 -0.7890 -0.0123
 6944TIP3    H142323   2.068   3.296  13.653 -0.4897 -0.9704  0.2336
 6944TIP3    H242324   1.964   3.388  13.592 -0.5084 -1.5120 -0.5660
 6945TIP3   OH242325   3.319   1.551  11.477  0.0215  0.6349 -0.0903
 6945TIP3    H142326   3.258   1.614  11.438  0.7724  1.8497  0.6127
 6945TIP3    H242327   3.299   1.552  11.570  0.1414 -0.0687 -0.0518
 6946TIP3   OH242328   6.612   5.611   1.547  0.1844 -0.1705 -0.1099
 6946TIP3    H142329   6.642   5.604   1.456 -0.6734 -2.3569 -0.2739
 6946TIP3    H242330   6.567   5.695   1.551  3.5037  1.8361 -0.6411
 6947TIP3   OH242331   4.907   3.636  17.032 -0.2674  0.2941 -0.3770
 6947TIP3    H142332   4.866   3.553  17.058  1.9707 -0.7297  0.2048
 6947TIP3    H242333   4.834   3.694  17.012 -1.9531 -1.4292  0.4180
 6948TIP3   OH242334   5.305   4.188   1.882 -0.1017 -0.2994 -0.1197
 6948TIP3    H142335   5.335   4.229   1.800  1.0133 -1.3177 -0.2541
 6948TIP3    H242336   5.349   4.238   1.951 -0.9561  0.4897 -0.1238
 6949TIP3   OH242337   6.283   2.374   3.546  0.2194 -0.4409 -0.4261
 6949TIP3    H142338   6.216   2.396   3.610  0.9237  0.7516 -0.0585
 6949TIP3    H242339   6.293   2.279   3.551 -0.6371 -0.4930  0.3137
 6950TIP3   OH242340   2.534   3.490  12.595 -0.2137 -0.0517 -0.0756
 6950TIP3    H142341   2.549   3.449  12.510 -2.6300 -0.6204 -0.2878
 6950TIP3    H242342   2.515   3.416  12.653 -0.0629  0.4542  0.6252
 6951TIP3   OH242343   2.108   6.089  14.510  0.5911  0.0145  0.5378
 6951TIP3    H142344   2.063   6.030  14.571  0.7048 -0.9173 -0.2554
 6951TIP3    H242345   2.064   6.075  14.426 -0.6359  2.4519  0.6696
 6952TIP3   OH242346   2.019   6.683  13.268  0.1247  0.4310  0.0006
 6952TIP3    H142347   2.000   6.598  13.307 -0.3291  1.5094  2.3023
 6952TIP3    H242348   1.942   6.703  13.215 -0.0578 -0.3041 -0.0200
 6953TIP3   OH242349   4.505   3.776  17.234  0.0803  0.5755 -0.3776
 6953TIP3    H142350   4.482   3.685  17.215  0.1173  0.6686 -0.8906
 6953TIP3    H242351   4.552   3.772  17.317 -0.9195  0.2627  0.1952
 6954TIP3   OH242352   6.482   4.015   3.665  0.0837 -0.0231  0.1821
 6954TIP3    H142353   6.509   3.986   3.752 -0.3537 -0.7368  0.0900
 6954TIP3    H242354   6.559   4.058   3.629  0.8527 -1.2909  0.2368
 6955TIP3   OH242355   6.327   3.238  10.469 -0.1334 -0.2023 -0.2217
 6955TIP3    H142356   6.398   3.222  10.532 -0.5202 -0.2729  0.2035
 6955TIP3    H242357   6.305   3.330  10.480 -0.1347 -0.1914 -0.3203
 6956TIP3   OH242358   3.833   6.074  15.195 -0.2443  0.1450 -0.0793
 6956TIP3    H142359   3.916   6.027  15.206  0.5567  0.9945 -2.0977
 6956TIP3    H242360   3.855   6.166  15.212 -0.5819  0.4775 -1.3487
 6957TIP3   OH242361   0.902   3.499  13.980  0.1097 -0.4100 -0.0980
 6957TIP3    H142362   0.917   3.491  14.075 -1.0290  2.4197  0.4054
 6957TIP3    H242363   0.813   3.467  13.967  0.8101 -2.2974 -0.5273
 6958TIP3   OH242364   2.054   6.401  15.087 -0.4784  0.0681  0.6652
 6958TIP3    H142365   2.003   6.468  15.133 -1.5081  0.8535 -1.5313
 6958TIP3    H242366   2.020   6.318  15.120 -1.6724  0.6016  0.8124
 6959TIP3   OH242367   3.647   5.461   1.407  0.1625  0.1945  0.2963
 6959TIP3    H142368   3.640   5.390   1.343  0.3610  0.6195 -0.2114
 6959TIP3    H242369   3.671   5.418   1.489 -0.1783 -0.3698  0.1047
 6960TIP3   OH242370   6.641   5.578  17.266 -0.3770 -0.1221  0.7124
 6960TIP3    H142371   6.623   5.488  17.238  2.9747 -0.6961  0.0465
 6960TIP3    H242372   6.615   5.632  17.191 -0.9369 -0.6768  0.4956
 6961TIP3   OH242373   6.192   0.283  12.515  0.1516  0.5077 -0.4411
 6961TIP3    H142374   6.136   0.276  12.593 -2.3080 -0.3351 -2.1700
 6961TIP3    H242375   6.264   0.222  12.532 -0.3503  0.3090  1.1352
 6962TIP3   OH242376   1.442   3.720   4.123 -0.3962  0.6373  0.0567
 6962TIP3    H142377   1.460   3.808   4.090  0.7957 -0.3737 -2.2155
 6962TIP3    H242378   1.348   3.708   4.109 -0.3058  1.0381 -0.9593
 6963TIP3   OH242379   5.570   3.160  12.742 -0.2966  0.5217 -0.1960
 6963TIP3    H142380   5.500   3.097  12.762  0.3792 -0.2661 -0.2320
 6963TIP3    H242381   5.570   3.166  12.646 -1.1247  1.4947 -0.1592
 6964TIP3   OH242382   0.940   6.108  14.546  0.4104  0.7191  0.0745
 6964TIP3    H142383   0.928   6.051  14.623 -0.3149  0.9856  0.1637
 6964TIP3    H242384   0.940   6.197  14.582  2.9329  0.7801  0.1165
 6965TIP3   OH242385   6.656   3.929   3.371 -0.8078  0.4795 -0.0450
 6965TIP3    H142386   6.707   3.971   3.302 -1.2282 -0.0537 -0.6924
 6965TIP3    H242387   6.711   3.934   3.449 -0.1098  0.6154 -0.5433
 6966TIP3   OH242388   0.598   5.728  11.099 -0.0613 -0.0983 -0.3798
 6966TIP3    H142389   0.511   5.709  11.135 -0.8862 -0.9794 -2.6529
 6966TIP3    H242390   0.652   5.655  11.129 -0.4956 -0.3515 -0.1932
 6967TIP3   OH242391   2.868   4.170   0.329 -0.4488 -0.0403  0.3429
 6967TIP3    H142392   2.959   4.169   0.358 -0.3507  2.5964  0.3150
 6967TIP3    H242393   2.866   4.111   0.253  1.0698 -0.6141  0.7165
 6968TIP3   OH242394   0.479   2.080  15.643 -0.1445  0.4319 -0.2002
 6968TIP3    H142395   0.435   2.002  15.610 -0.5940  0.3474  0.5731
 6968TIP3    H242396   0.555   2.047  15.690 -0.3145  0.4595  0.0961
 6969TIP3   OH242397   2.366   2.371  12.696 -0.1971 -0.2253 -0.6280
 6969TIP3    H142398   2.458   2.385  12.714 -0.4489 -0.0058  0.5833
 6969TIP3    H242399   2.335   2.316  12.768 -0.7378 -1.3849 -1.6975
 6970TIP3   OH242400   2.361   3.865  13.158 -0.2402 -0.3980  0.3372
 6970TIP3    H142401   2.328   3.891  13.072  1.0704  0.1835 -0.0285
 6970TIP3    H242402   2.295   3.896  13.220 -0.8466 -0.1644 -0.4082
 6971TIP3   OH242403   4.532   0.714  16.869  0.5782  0.0332  0.0247
 6971TIP3    H142404   4.473   0.737  16.797 -0.3646 -0.5898  0.5813
 6971TIP3    H242405   4.603   0.664  16.828 -0.5392 -1.3121 -0.3383
 6972TIP3   OH242406   1.294   2.128  12.165  0.7041  0.4105 -0.3685
 6972TIP3    H142407   1.224   2.133  12.230  1.4417  0.6555  0.4182
 6972TIP3    H242408   1.370   2.095  12.213  1.3412  0.8713 -1.0323
 6973TIP3   OH242409   0.503   5.910  10.396  0.3255 -0.0151  0.6978
 6973TIP3    H142410   0.595   5.906  10.425  0.3581  0.4387  0.6696
 6973TIP3    H242411   0.454   5.922  10.477  0.2698 -0.4784  0.7364
 6974TIP3   OH242412   0.157   1.949  11.892 -0.3989 -0.3149 -0.0298
 6974TIP3    H142413   0.101   2.011  11.940  0.3213  0.3428 -0.0083
 6974TIP3    H242414   0.158   1.983  11.802  0.7698  0.2873  0.1872
 6975TIP3   OH242415   6.216   3.269  15.100  0.2679  0.0243 -0.1670
 6975TIP3    H142416   6.294   3.213  15.099  1.3891  1.5326 -1.0714
 6975TIP3    H242417   6.207   3.300  15.010 -1.3295 -0.0146 -0.0503
 6976TIP3   OH242418   1.339   2.688  14.773  0.1960  0.5606 -0.5817
 6976TIP3    H142419   1.428   2.701  14.803  0.6898 -0.9490 -1.3084
 6976TIP3    H242420   1.323   2.760  14.711  0.7302  1.0886 -0.1148
 6977TIP3   OH242421   3.629   4.972   1.021 -0.0292 -0.2880 -0.5193
 6977TIP3    H142422   3.541   5.001   0.999  0.7260  2.0731 -0.7240
 6977TIP3    H242423   3.650   5.019   1.103  1.0422 -0.7657 -0.5001
 6978TIP3   OH242424   3.303   4.814   5.380  0.1281  0.8075 -0.2270
 6978TIP3    H142425   3.332   4.723   5.374  1.4013  0.9518  2.4511
 6978TIP3    H242426   3.371   4.864   5.335  1.3840  0.6788  1.4330
 6979TIP3   OH242427   4.752   1.461   0.182 -0.0063  0.0400 -0.1264
 6979TIP3    H142428   4.694   1.450   0.258  0.3048 -1.7042 -0.1143
 6979TIP3    H242429   4.713   1.534   0.133 -1.9829 -0.8033  0.1047
 6980TIP3   OH242430   0.782   4.622   2.381  0.4894  0.1502 -0.0407
 6980TIP3    H142431   0.779   4.545   2.438 -3.1878  0.0768 -0.1304
 6980TIP3    H242432   0.805   4.694   2.439  2.5858 -0.7134  0.3026
 6981TIP3   OH242433   5.763   6.714  14.336 -0.6984  0.5485  0.3323
 6981TIP3    H142434   5.853   6.736  14.359 -0.0450 -1.8435  0.3315
 6981TIP3    H242435   5.760   6.619  14.342 -2.3718  0.2831 -2.7217
 6982TIP3   OH242436   6.078   2.671   3.989 -0.2202 -0.2065 -0.2485
 6982TIP3    H142437   6.020   2.673   4.065 -1.7910 -0.9661 -1.3772
 6982TIP3    H242438   6.069   2.582   3.954  2.4748 -0.7369  0.1257
 6983TIP3   OH242439   1.671   1.689  11.161 -0.2696  0.0481  0.3954
 6983TIP3    H142440   1.750   1.672  11.213  0.3211  0.0937 -0.4735
 6983TIP3    H242441   1.633   1.767  11.202  1.8635  2.0119 -1.0490
 6984TIP3   OH242442   6.772   3.144  14.619 -0.4501  0.2024  0.2679
 6984TIP3    H142443   6.820   3.068  14.651  3.8066  2.4936  0.1050
 6984TIP3    H242444   6.752   3.124  14.528  1.0324 -0.5622  0.0857
 6985TIP3   OH242445   6.663   2.194   5.219 -0.2824  0.3114 -0.4783
 6985TIP3    H142446   6.747   2.234   5.197 -1.7360  3.2207 -1.1208
 6985TIP3    H242447   6.656   2.204   5.314 -0.2733  0.8099 -0.5317
 6986TIP3   OH242448   4.433   1.161   0.059  0.0445  0.0422 -0.1139
 6986TIP3    H142449   4.407   1.253   0.063 -1.6387 -0.3751 -0.8612
 6986TIP3    H242450   4.528   1.163   0.073 -0.1777  1.7336  1.6234
 6987TIP3   OH242451   0.983   3.289  15.987  0.0826 -0.4692 -0.5509
 6987TIP3    H142452   0.982   3.228  16.061 -1.1257 -0.7529 -0.7711
 6987TIP3    H242453   0.946   3.370  16.023  0.3879 -0.3062 -0.6057
 6988TIP3   OH242454   6.355   1.076   1.446  0.1484  0.2773 -0.4799
 6988TIP3    H142455   6.302   1.152   1.420 -0.4098  0.1406  0.2216
 6988TIP3    H242456   6.302   1.032   1.513  1.1951  0.1993  0.3300
 6989TIP3   OH242457   1.622   4.430  15.184  0.2927  0.0594  0.5673
 6989TIP3    H142458   1.650   4.353  15.136 -0.2849 -0.4921  1.1002
 6989TIP3    H242459   1.592   4.397  15.269  1.9014  1.0602  1.5859
 6990TIP3   OH242460   2.880   5.133   4.588  0.2244 -0.1013 -0.0325
 6990TIP3    H142461   2.845   5.111   4.674 -1.9255 -0.6453 -0.9989
 6990TIP3    H242462   2.901   5.049   4.548  2.9371  0.1968  0.5601
 6991TIP3   OH242463   0.685   1.202  10.932  0.0755  0.1494  0.0338
 6991TIP3    H142464   0.662   1.291  10.959 -1.5645 -0.1493 -0.2820
 6991TIP3    H242465   0.600   1.159  10.916  0.7610 -1.8434  1.3719
 6992TIP3   OH242466   5.326   2.520  12.701 -0.0948  0.0518  0.1315
 6992TIP3    H142467   5.246   2.564  12.731 -0.1669 -0.3479  0.5534
 6992TIP3    H242468   5.379   2.589  12.662 -0.8136  0.2551 -0.4984
 6993TIP3   OH242469   0.464   4.529  16.275 -0.3180  0.5208 -0.2853
 6993TIP3    H142470   0.386   4.574  16.243 -1.5261 -1.8185 -0.8598
 6993TIP3    H242471   0.530   4.597  16.282 -2.0712  2.3804 -0.9045
 6994TIP3   OH242472   0.540   4.051   2.008  0.1654  0.2249  0.1637
 6994TIP3    H142473   0.445   4.061   2.017  0.1144 -0.2156  0.1441
 6994TIP3    H242474   0.559   3.969   2.054  0.2709 -0.6963 -1.4592
 6995TIP3   OH242475   3.701   0.783  16.159 -0.0610 -0.3557  0.1458
 6995TIP3    H142476   3.642   0.808  16.231  0.4033  0.5921  0.2126
 6995TIP3    H242477   3.743   0.703  16.190  0.1352  0.0423  0.9494
 6996TIP3   OH242478   6.632   6.146   4.196 -0.0956 -0.2579 -0.6020
 6996TIP3    H142479   6.599   6.056   4.189  2.0092 -1.0668 -0.9936
 6996TIP3    H242480   6.611   6.172   4.286 -1.0816 -0.9905 -0.6020
 6997TIP3   OH242481   6.282   3.920   2.930  0.0970  0.1083 -0.0366
 6997TIP3    H142482   6.343   3.966   2.873 -2.1540  1.8101 -1.2575
 6997TIP3    H242483   6.256   3.842   2.881  0.5218 -0.0959  0.0590
 6998TIP3   OH242484   5.361   4.546   6.353  0.2557 -0.1725 -0.4575
 6998TIP3    H142485   5.407   4.572   6.433  1.3476  3.0862 -2.0096
 6998TIP3    H242486   5.429   4.514   6.295  0.0858  1.2436 -1.4721
 6999TIP3   OH242487   0.962   0.719   4.991 -0.0047 -0.4506 -0.6251
 6999TIP3    H142488   0.936   0.770   4.914  1.3470  0.2778 -0.6372
 6999TIP3    H242489   1.035   0.768   5.029  0.6377 -1.8180 -0.0013
 7000TIP3   OH242490   0.424   2.506   4.458  0.4688  0.0304  0.1814
 7000TIP3    H142491   0.357   2.535   4.395 -0.3642 -1.1492  0.5015
 7000TIP3    H242492   0.425   2.411   4.450  1.8241  0.0037  0.4978
 7001TIP3   OH242493   5.017   4.384  12.806  0.7277 -0.5309 -0.8212
 7001TIP3    H142494   5.015   4.479  12.819 -1.5607 -0.3128 -2.3004
 7001TIP3    H242495   5.004   4.347  12.894 -1.5217  0.6130 -0.6120
 7002TIP3   OH242496   5.674   1.038  13.682  0.5171 -0.6371 -0.4468
 7002TIP3    H142497   5.674   1.039  13.778 -1.2851 -1.0208 -0.4143
 7002TIP3    H242498   5.623   1.115  13.658  1.1026 -0.4497 -1.1151
 7003TIP3   OH242499   5.933   2.567  12.580  0.2205  0.1737 -0.2217
 7003TIP3    H142500   5.927   2.634  12.648  0.5368 -0.1741  0.1592
 7003TIP3    H242501   5.906   2.486  12.624  0.6116 -0.0893 -0.4574
 7004TIP3   OH242502   2.997   5.056   0.531  0.4705 -0.3733 -0.0801
 7004TIP3    H142503   3.005   4.966   0.562 -0.5366 -0.1880  0.7967
 7004TIP3    H242504   2.972   5.048   0.439 -0.1874 -1.0010  0.1446
 7005TIP3   OH242505   6.320   3.964   1.034 -0.4462 -0.0692 -0.7943
 7005TIP3    H142506   6.411   3.952   1.060 -0.5561  1.0125  0.1524
 7005TIP3    H242507   6.269   3.912   1.096 -0.5919  1.0593  0.0633
 7006TIP3   OH242508   6.254   2.781  13.422 -0.1623  0.7641 -0.0239
 7006TIP3    H142509   6.216   2.780  13.509 -0.0977  3.1165  0.1149
 7006TIP3    H242510   6.346   2.804  13.436  0.7107 -1.9994 -0.5546
 7007TIP3   OH242511   2.231   0.089  13.769 -0.0789 -0.5175 -0.3902
 7007TIP3    H142512   2.146   0.111  13.732  0.0775  0.4032 -0.2395
 7007TIP3    H242513   2.226  -0.004  13.788 -0.9187 -0.5480 -0.7297
 7008TIP3   OH242514   5.245   2.428  17.106  0.3046 -0.1862 -0.7479
 7008TIP3    H142515   5.225   2.337  17.085 -0.7703  0.0874 -0.9420
 7008TIP3    H242516   5.171   2.458  17.158  1.0811  0.3228  0.1091
 7009TIP3   OH242517   0.277   2.862  11.823 -0.0991  0.4687  0.3897
 7009TIP3    H142518   0.293   2.848  11.730  0.1027  1.4757  0.2689
 7009TIP3    H242519   0.335   2.799  11.867 -0.0605  0.1208 -0.1513
 7010TIP3   OH242520   2.645   1.525   2.291  0.7263  0.5397 -0.5442
 7010TIP3    H142521   2.674   1.437   2.316  0.0841  0.4271 -0.1597
 7010TIP3    H242522   2.556   1.532   2.327 -0.0475  0.5681 -2.3315
 7011TIP3   OH242523   4.255   5.886   0.747 -0.7453  0.0240  0.2515
 7011TIP3    H142524   4.215   5.839   0.674 -2.0844  1.1131  0.2317
 7011TIP3    H242525   4.287   5.817   0.805 -1.1852 -0.8771 -0.5414
 7012TIP3   OH242526   1.673   3.811  13.782 -0.1239 -0.3246  0.3458
 7012TIP3    H142527   1.728   3.882  13.746  0.3335 -1.0866 -0.4935
 7012TIP3    H242528   1.694   3.811  13.875 -0.7832  1.2071  0.5371
 7013TIP3   OH242529   0.429   2.008  16.796  0.7448 -0.0255  0.2410
 7013TIP3    H142530   0.421   1.954  16.718  1.0269  0.2331  0.0333
 7013TIP3    H242531   0.520   1.997  16.824  0.7112  0.0773  0.3907
 7014TIP3   OH242532   1.896   3.169  16.668  0.5533 -0.2262  0.2178
 7014TIP3    H142533   1.907   3.263  16.658  0.8346 -0.1427  1.2441
 7014TIP3    H242534   1.978   3.139  16.705  0.7513 -0.9992 -0.8011
 7015TIP3   OH242535   1.574   5.813  16.829 -0.6661 -0.0549 -0.0800
 7015TIP3    H142536   1.508   5.877  16.801 -0.2611  0.1778 -0.5288
 7015TIP3    H242537   1.651   5.835  16.777 -0.3818 -0.6250  0.0950
 7016TIP3   OH242538   4.235   1.475  11.995 -0.6222  0.4659 -0.1650
 7016TIP3    H142539   4.264   1.559  12.030 -0.1868 -0.0947  0.8599
 7016TIP3    H242540   4.153   1.457  12.041 -0.4366  0.0834  0.0269
 7017TIP3   OH242541   0.949   0.344   0.309 -0.2828 -0.1231  0.0793
 7017TIP3    H142542   1.000   0.264   0.294  0.2689 -0.0800  1.5739
 7017TIP3    H242543   0.900   0.356   0.227  1.0808 -0.9063 -0.9105
 7018TIP3   OH242544   4.030   0.068  13.672 -0.0427  0.1484 -0.2039
 7018TIP3    H142545   4.096   0.094  13.608  0.5200 -1.3167 -0.2543
 7018TIP3    H242546   4.079   0.031  13.745 -0.7800 -0.4369  0.0126
 7019TIP3   OH242547   0.911   4.145   4.699  0.2189 -0.5184 -0.5262
 7019TIP3    H142548   0.882   4.130   4.790  0.2266 -1.0512 -0.6063
 7019TIP3    H242549   0.875   4.070   4.651 -2.2532  1.2000 -1.5288
 7020TIP3   OH242550   3.673   6.632   4.431  0.4804 -0.3057  0.1982
 7020TIP3    H142551   3.633   6.717   4.416 -0.6722 -0.9906 -0.8241
 7020TIP3    H242552   3.603   6.578   4.467  1.7536 -0.2801  2.9710
 7021TIP3   OH242553   5.028   6.672  13.114  0.1202  0.5277 -0.1284
 7021TIP3    H142554   4.964   6.608  13.082  0.3678  0.4677 -0.5137
 7021TIP3    H242555   4.991   6.705  13.196 -1.0528  1.4651 -0.9945
 7022TIP3   OH242556   5.511   2.814   4.626  0.3263 -0.4970 -0.2079
 7022TIP3    H142557   5.555   2.731   4.640  0.2535 -0.4611  0.2578
 7022TIP3    H242558   5.418   2.791   4.619  0.4314 -0.6033 -1.4531
 7023TIP3   OH242559   3.592   1.193   2.042 -1.2863 -0.1155 -0.1679
 7023TIP3    H142560   3.497   1.199   2.047 -1.1370  1.9883  3.9049
 7023TIP3    H242561   3.619   1.272   1.995 -1.5047  1.4649  2.2366
 7024TIP3   OH242562   2.034   0.569   0.506  1.4647 -0.0884 -0.4950
 7024TIP3    H142563   2.053   0.619   0.426 -1.3625 -0.3423 -1.4354
 7024TIP3    H242564   1.986   0.631   0.561  0.8545 -0.7514 -0.2611
 7025TIP3   OH242565   3.927   1.114  11.649  0.1986  0.4462  0.3270
 7025TIP3    H142566   4.014   1.135  11.614  0.8397  0.0309  1.6051
 7025TIP3    H242567   3.878   1.195  11.642  0.2104  0.3389 -1.6996
 7026TIP3   OH242568   5.814   6.235   0.600  0.0285 -0.3165 -0.2503
 7026TIP3    H142569   5.724   6.260   0.620 -0.0474  0.0801 -1.0224
 7026TIP3    H242570   5.818   6.236   0.504  0.6201 -1.1703 -0.2475
 7027TIP3   OH242571   1.718   1.833  14.643 -0.1892 -0.3677 -0.4123
 7027TIP3    H142572   1.724   1.768  14.573 -1.3117 -0.1193 -0.7552
 7027TIP3    H242573   1.729   1.917  14.598  1.5441 -0.3022  0.0647
 7028TIP3   OH242574   1.692   2.293  14.918  0.3233 -0.3703  0.0098
 7028TIP3    H142575   1.733   2.320  15.000  1.1532 -0.2380 -0.4378
 7028TIP3    H242576   1.754   2.230  14.880  0.1155 -0.1626 -0.6860
 7029TIP3   OH242577   5.620   0.647   2.019  0.1280 -0.0778  0.2390
 7029TIP3    H142578   5.579   0.732   2.034  0.5147  0.2084 -0.2881
 7029TIP3    H242579   5.664   0.656   1.935 -0.5008 -1.0655 -0.2160
 7030TIP3   OH242580   2.415   0.999  17.273  0.0692 -0.2790  0.5269
 7030TIP3    H142581   2.416   0.907  17.301 -0.8665 -0.3993  0.2026
 7030TIP3    H242582   2.487   1.005  17.209  1.5685 -0.2402  2.1463
 7031TIP3   OH242583   1.150   3.878  15.275 -0.8416 -0.4305  0.5718
 7031TIP3    H142584   1.074   3.899  15.221 -0.0100  1.6293  0.0982
 7031TIP3    H242585   1.123   3.898  15.364 -0.9435  0.0673  0.4325
 7032TIP3   OH242586   5.168   6.663   4.746  0.5106 -0.1491 -0.5086
 7032TIP3    H142587   5.134   6.619   4.668  1.7330 -0.7486 -0.7318
 7032TIP3    H242588   5.235   6.723   4.713  0.9033 -0.2685  0.0488
 7033TIP3   OH242589   6.408   1.087   3.608  0.6158 -0.2562 -0.1549
 7033TIP3    H142590   6.392   1.032   3.684  0.4424  0.5033  0.3743
 7033TIP3    H242591   6.494   1.127   3.625  0.7166 -0.3170 -0.5043
 7034TIP3   OH242592   3.120   2.279  15.360  0.0131 -0.3056  0.0483
 7034TIP3    H142593   3.099   2.370  15.376 -0.7310 -0.5525  0.4706
 7034TIP3    H242594   3.072   2.257  15.280  0.3673 -0.2788 -0.1800
 7035TIP3   OH242595   6.448   4.218  11.451  0.5394 -0.5641  0.0296
 7035TIP3    H142596   6.415   4.136  11.486 -0.9178 -0.0108  0.0333
 7035TIP3    H242597   6.427   4.283  11.518  1.6401 -0.1729  0.0136
 7036TIP3   OH242598   6.676   4.998   5.564 -0.0731  0.0224 -0.5404
 7036TIP3    H142599   6.687   4.905   5.546  0.5940 -0.1437  0.6187
 7036TIP3    H242600   6.595   5.022   5.519 -0.7465 -1.3344 -0.0974
 7037TIP3   OH242601   1.374   1.308   6.482  0.3906  0.0078  0.4001
 7037TIP3    H142602   1.417   1.226   6.457  0.4731  0.8461 -2.6994
 7037TIP3    H242603   1.436   1.376   6.455 -0.9968  1.1318 -0.1011
 7038TIP3   OH242604   2.787   6.082  14.237 -0.1348 -0.4487 -0.6038
 7038TIP3    H142605   2.697   6.114  14.227  0.7359  1.7956 -2.2633
 7038TIP3    H242606   2.803   6.086  14.331 -0.9305  1.7932 -0.4992
 7039TIP3   OH242607   3.241   2.952  14.034 -0.4022 -0.3860 -0.6203
 7039TIP3    H142608   3.238   3.048  14.031 -0.6257 -0.3454  0.5076
 7039TIP3    H242609   3.275   2.931  14.121 -0.5010 -1.3354 -0.7934
 7040TIP3   OH242610   2.733   3.547   4.981  0.3885  0.0661  0.2289
 7040TIP3    H142611   2.640   3.567   4.979  0.3657  0.5295  2.6444
 7040TIP3    H242612   2.737   3.452   4.991  0.2450 -0.1029 -1.1134
 7041TIP3   OH242613   6.002   6.363   0.764 -0.1849  0.4681 -0.4429
 7041TIP3    H142614   5.930   6.334   0.709  1.1935 -1.2991 -1.4384
 7041TIP3    H242615   6.070   6.390   0.702  1.5426 -1.8853  0.2675
 7042TIP3   OH242616   5.905   1.236   3.756 -0.0709  0.0257  0.5065
 7042TIP3    H142617   5.859   1.287   3.822  0.0929  1.1611 -0.2209
 7042TIP3    H242618   5.927   1.300   3.688  0.6093 -0.9240 -0.1907
 7043TIP3   OH242619   1.985   5.013  15.006 -0.1437 -0.8326  0.5039
 7043TIP3    H142620   2.034   5.021  15.087 -0.9113 -1.5458  1.0566
 7043TIP3    H242621   2.021   4.934  14.964  2.1921  1.0229 -1.2565
 7044TIP3   OH242622   4.742   5.113  16.243 -0.1352 -0.4125 -0.3402
 7044TIP3    H142623   4.652   5.099  16.213 -1.4054  3.8271  0.7934
 7044TIP3    H242624   4.735   5.112  16.338  0.6739  1.1899 -0.2276
 7045TIP3   OH242625   5.880   0.853   3.182 -0.4371 -0.1078  0.3713
 7045TIP3    H142626   5.871   0.923   3.246 -0.3113 -0.7456  1.1011
 7045TIP3    H242627   5.871   0.772   3.233 -1.2422 -0.6250 -0.5524
 7046TIP3   OH242628   5.880   6.614  13.307  0.4118 -0.3195 -0.0149
 7046TIP3    H142629   5.834   6.537  13.275 -0.4408  0.0313  0.3342
 7046TIP3    H242630   5.814   6.684  13.305  0.5887 -0.0755  1.6263
 7047TIP3   OH242631   0.917   5.961  16.353 -0.6792  0.2685 -0.0938
 7047TIP3    H142632   0.911   6.053  16.377  0.3879  0.0596  1.0603
 7047TIP3    H242633   0.856   5.916  16.412 -0.0371  0.0671  0.4303
 7048TIP3   OH242634   4.859   5.654  13.845 -0.3771 -0.7608  0.1715
 7048TIP3    H142635   4.862   5.748  13.866 -0.5072 -0.4917 -0.9787
 7048TIP3    H242636   4.782   5.622  13.891  0.3686 -0.5838  1.6113
 7049TIP3   OH242637   3.275   0.483   2.583  0.1770  0.2774  0.0418
 7049TIP3    H142638   3.232   0.547   2.526 -0.1352 -0.8046 -0.9810
 7049TIP3    H242639   3.361   0.522   2.601 -0.4739  1.5632  0.5128
 7050TIP3   OH242640   2.155   3.138   3.152  0.3397  0.6902  0.0410
 7050TIP3    H142641   2.239   3.094   3.166  0.2624  0.8583  1.1264
 7050TIP3    H242642   2.110   3.130   3.236 -0.6016  0.8876 -0.4325
 7051TIP3   OH242643   2.848   2.408  14.080  0.5085  0.0066  0.5237
 7051TIP3    H142644   2.931   2.392  14.124 -0.2028 -0.1144  1.8464
 7051TIP3    H242645   2.792   2.335  14.106  0.6064 -1.1019 -2.0557
 7052TIP3   OH242646   2.875   0.151   0.972  0.0114 -0.0812  0.1480
 7052TIP3    H142647   2.903   0.173   0.884  0.6597 -0.0357  0.3587
 7052TIP3    H242648   2.873   0.234   1.019 -0.8027 -0.0380  0.0566
 7053TIP3   OH242649   2.696   1.959   4.322 -0.2104 -0.0401  0.3998
 7053TIP3    H142650   2.600   1.954   4.316 -0.1764  0.5244 -1.4211
 7053TIP3    H242651   2.717   2.043   4.282  1.1650 -1.0963 -1.1996
 7054TIP3   OH242652   6.748   4.109   5.280 -0.1587  0.4203  1.0242
 7054TIP3    H142653   6.677   4.134   5.339 -0.6412 -0.0430  0.6659
 7054TIP3    H242654   6.731   4.160   5.200 -0.3236  0.0268  0.8008
 7055TIP3   OH242655   0.581   5.999  13.486  0.3965  0.3653 -0.5074
 7055TIP3    H142656   0.645   6.062  13.453  2.0374 -0.5918  0.6974
 7055TIP3    H242657   0.577   6.017  13.580  0.3898 -0.8721 -0.2551
 7056TIP3   OH242658   6.508   2.501  16.604 -0.4725 -0.2334 -0.1506
 7056TIP3    H142659   6.514   2.573  16.541 -2.3451  0.4516  0.3670
 7056TIP3    H242660   6.443   2.531  16.668  1.7904 -0.5877  2.5427
 7057TIP3   OH242661   4.098   5.913   5.696 -0.0916 -0.3526  0.2726
 7057TIP3    H142662   4.013   5.871   5.685 -0.1996  0.1636 -1.1858
 7057TIP3    H242663   4.153   5.875   5.627  0.6068 -0.0899  0.6746
 7058TIP3   OH242664   0.704   2.561   0.377  0.3001  0.0668  0.3866
 7058TIP3    H142665   0.739   2.630   0.321  1.8202 -1.2453 -0.3523
 7058TIP3    H242666   0.703   2.600   0.464  0.5291  1.2204 -0.0961
 7059TIP3   OH242667   1.140   0.894  12.789  0.6687  0.1077  0.1045
 7059TIP3    H142668   1.073   0.962  12.783  2.5171  1.9477 -1.6422
 7059TIP3    H242669   1.174   0.902  12.878 -0.1976  0.3936  0.4189
 7060TIP3   OH242670   5.687   4.340  16.305 -0.2569 -0.2575  0.2852
 7060TIP3    H142671   5.782   4.339  16.292  0.0998  0.9212  2.3050
 7060TIP3    H242672   5.666   4.432  16.317 -1.7851 -0.4442 -0.7709
 7061TIP3   OH242673   4.603   2.019  17.008  0.9539  0.1678 -0.1889
 7061TIP3    H142674   4.514   2.052  16.997  0.4235 -1.0807  0.1278
 7061TIP3    H242675   4.659   2.084  16.965 -0.0747  1.1524 -0.0736
 7062TIP3   OH242676   3.393   6.551  14.937 -0.0262 -0.1238  0.5532
 7062TIP3    H142677   3.324   6.512  14.883 -0.0833  1.0161 -0.2206
 7062TIP3    H242678   3.355   6.553  15.025 -0.9166  0.3105  0.1748
 7063TIP3   OH242679   0.080   4.870  14.432  0.6021  0.1147  0.2337
 7063TIP3    H142680   0.054   4.846  14.521  0.8386  1.5590  0.7188
 7063TIP3    H242681   0.026   4.815  14.376 -1.1655  0.7343  1.2416
 7064TIP3   OH242682   4.545   0.147   5.736  0.4184  0.3139 -0.0353
 7064TIP3    H142683   4.518   0.238   5.742  1.5319  0.5905  1.3015
 7064TIP3    H242684   4.477   0.098   5.781 -0.0099  0.5066 -0.4612
 7065TIP3   OH242685   2.746   3.282   2.862  0.1985  0.2853  0.4775
 7065TIP3    H142686   2.654   3.287   2.888 -0.0782  1.4935 -0.6396
 7065TIP3    H242687   2.767   3.189   2.867 -1.1894 -0.0539  0.4122
 7066TIP3   OH242688   4.840   6.288  17.269 -0.2829 -0.1704  0.3202
 7066TIP3    H142689   4.869   6.353  17.204  3.3509 -1.5758  0.2867
 7066TIP3    H242690   4.914   6.280  17.328 -0.5421 -4.2130  0.3399
 7067TIP3   OH242691   3.913   4.902  16.860 -0.3398 -0.3261 -0.5152
 7067TIP3    H142692   3.960   4.930  16.939 -0.3110 -0.4372 -0.4926
 7067TIP3    H242693   3.967   4.933  16.788 -0.0376 -0.7836 -0.4892
 7068TIP3   OH242694   6.784   2.370  15.283  0.1205 -0.6579 -0.0300
 7068TIP3    H142695   6.694   2.395  15.304 -0.0212 -1.7551  0.7705
 7068TIP3    H242696   6.809   2.310  15.353  0.3588 -2.8634 -1.8694
 7069TIP3   OH242697   1.754   2.169  13.300  0.1581  0.0589  0.6725
 7069TIP3    H142698   1.744   2.075  13.289  1.5430 -0.2110  1.4922
 7069TIP3    H242699   1.755   2.182  13.395 -0.1290  0.9235  0.5688
 7070TIP3   OH242700   3.781   0.659  16.895 -0.3629  0.1793  0.0113
 7070TIP3    H142701   3.686   0.654  16.909 -0.4503 -0.1300 -0.6685
 7070TIP3    H242702   3.797   0.605  16.818  0.0512  2.1631 -1.3581
 7071TIP3   OH242703   5.512   3.980   2.947  0.3787 -0.1680 -0.1654
 7071TIP3    H142704   5.583   3.917   2.939  0.2605 -0.1482 -1.7092
 7071TIP3    H242705   5.537   4.052   2.889  0.3905  1.1166  1.3720
 7072TIP3   OH242706   3.677   2.640  11.103 -0.5812  0.1711  0.0947
 7072TIP3    H142707   3.599   2.596  11.137 -0.7047  0.9822  0.8841
 7072TIP3    H242708   3.644   2.724  11.069 -0.2448 -0.0418 -0.7806
 7073TIP3   OH242709   1.628   3.023   2.636 -0.1299  0.3869  0.4909
 7073TIP3    H142710   1.568   2.995   2.566  0.2003 -0.6025  0.5890
 7073TIP3    H242711   1.597   2.979   2.714  0.6578 -0.0538  0.5662
 7074TIP3   OH242712   3.261   1.071  16.693  0.7185 -0.0449 -0.3372
 7074TIP3    H142713   3.222   1.060  16.607  0.4615 -0.7201 -0.1382
 7074TIP3    H242714   3.270   1.166  16.703 -1.7532  0.2120 -0.0142
 7075TIP3   OH242715   0.870   3.969  16.334 -0.1739 -0.0712 -0.2103
 7075TIP3    H142716   0.851   4.061  16.314 -0.2142 -0.0423 -0.0447
 7075TIP3    H242717   0.789   3.936  16.374 -0.3696 -0.3445 -0.8247
 7076TIP3   OH242718   1.327   6.090   4.608 -0.2087  0.0427 -0.2374
 7076TIP3    H142719   1.318   6.028   4.536 -0.9613 -2.1897  1.6558
 7076TIP3    H242720   1.238   6.119   4.626 -0.3080 -0.9386  0.9978
 7077TIP3   OH242721   3.152   4.611  14.018  0.2292 -0.2794 -0.2042
 7077TIP3    H142722   3.182   4.683  14.074 -0.1777 -0.2899  0.0269
 7077TIP3    H242723   3.233   4.569  13.989  0.7825  2.6963 -3.6558
 7078TIP3   OH242724   6.537   2.026   0.735  0.0326  0.2609  0.4504
 7078TIP3    H142725   6.460   2.004   0.681 -0.1969 -0.2917  0.9900
 7078TIP3    H242726   6.583   2.093   0.685 -0.4983  0.1849 -0.1527
 7079TIP3   OH242727   4.787   2.466   0.785  0.1309 -0.1583 -0.6495
 7079TIP3    H142728   4.699   2.481   0.821  0.2085 -0.8001 -0.1765
 7079TIP3    H242729   4.784   2.376   0.753  0.8039 -0.4070 -0.0423
 7080TIP3   OH242730   1.233   3.418  14.417 -0.0676 -0.1043  0.4293
 7080TIP3    H142731   1.226   3.399  14.511 -3.6684 -2.6544 -0.1619
 7080TIP3    H242732   1.272   3.340  14.379 -0.9403 -0.1476 -0.4278
 7081TIP3   OH242733   5.629   6.381   4.108  0.3219  0.3501 -0.5881
 7081TIP3    H142734   5.672   6.422   4.033 -0.2536  0.4240 -0.8828
 7081TIP3    H242735   5.649   6.438   4.182  2.6230 -0.7731 -0.2376
 7082TIP3   OH242736   6.524   4.730  14.384 -0.2761  0.2481 -0.1069
 7082TIP3    H142737   6.614   4.720  14.353  0.4241  1.1995  1.5039
 7082TIP3    H242738   6.516   4.823  14.404 -1.0607 -0.1209  1.3759
 7083TIP3   OH242739   5.412   4.245   0.261 -0.2359 -0.1820  0.2654
 7083TIP3    H142740   5.348   4.174   0.261 -0.2283 -0.1891  0.2367
 7083TIP3    H242741   5.399   4.288   0.176 -0.1699 -0.2136  0.2393
 7084TIP3   OH242742   6.408   3.753   4.003  0.6636  0.3439 -0.1489
 7084TIP3    H142743   6.388   3.755   4.096  0.8527 -0.8582 -0.0584
 7084TIP3    H242744   6.326   3.778   3.959  0.3717  0.2143  0.3211
 7085TIP3   OH242745   6.330   0.847   5.405  0.3405 -0.0832 -0.7695
 7085TIP3    H142746   6.236   0.834   5.397  0.2944 -1.5181  1.2336
 7085TIP3    H242747   6.342   0.882   5.493  1.6979 -0.2339 -0.8704
 7086TIP3   OH242748   2.532   4.453   6.046  0.4932  0.8296 -0.6098
 7086TIP3    H142749   2.474   4.386   6.009 -0.3728  0.6918  0.9433
 7086TIP3    H242750   2.605   4.403   6.084  0.1916  0.8047 -0.0570
 7087TIP3   OH242751   1.796   5.256   3.376  0.1602 -0.4596 -0.2662
 7087TIP3    H142752   1.831   5.264   3.287 -0.9029  0.5732 -0.6080
 7087TIP3    H242753   1.702   5.251   3.364  0.0790 -3.1770  0.6382
 7088TIP3   OH242754   4.700   1.774  17.053 -0.0298 -0.2512  0.3317
 7088TIP3    H142755   4.661   1.857  17.027  0.5604 -0.6026 -1.8063
 7088TIP3    H242756   4.626   1.717  17.072 -0.4543  0.4266  0.7512
 7089TIP3   OH242757   5.464   6.280   3.470  0.0337  0.0186  0.9241
 7089TIP3    H142758   5.520   6.211   3.435 -0.8871  0.4179 -1.5253
 7089TIP3    H242759   5.376   6.242   3.472 -0.0036  0.1039  2.6775
 7090TIP3   OH242760   1.067   6.239  11.254 -0.0054 -0.1006 -0.3358
 7090TIP3    H142761   1.129   6.236  11.327 -0.2931  0.7877 -0.0405
 7090TIP3    H242762   1.120   6.265  11.179 -0.1168  1.4065  0.0648
 7091TIP3   OH242763   4.695   0.879   2.633  0.0311 -0.6301  0.1924
 7091TIP3    H142764   4.599   0.882   2.632  0.0296  1.3183 -1.0684
 7091TIP3    H242765   4.719   0.899   2.723 -0.7870  0.6376  0.1633
 7092TIP3   OH242766   3.854   6.493   5.839 -0.5185  0.0081 -0.2010
 7092TIP3    H142767   3.836   6.529   5.926  0.7640 -0.4401  0.2624
 7092TIP3    H242768   3.869   6.571   5.784 -0.1791  0.2559  0.2393
 7093TIP3   OH242769   1.773   4.280  14.496  0.2821  0.1108 -0.3817
 7093TIP3    H142770   1.704   4.222  14.464  0.6352 -1.4663  1.5356
 7093TIP3    H242771   1.740   4.369  14.480 -2.4314 -0.5770  0.9006
 7094TIP3   OH242772   1.123   6.421  16.943 -0.2269  0.5773 -0.5170
 7094TIP3    H142773   1.140   6.468  17.024 -0.3879  0.9679 -0.7070
 7094TIP3    H242774   1.138   6.486  16.874  0.1416  0.1871 -0.8116
 7095TIP3   OH242775   1.223   4.264   5.115 -0.0096  0.0537 -0.0345
 7095TIP3    H142776   1.130   4.250   5.129  0.1257  0.8230  2.0107
 7095TIP3    H242777   1.239   4.352   5.147  1.6010 -0.4403  0.6225
 7096TIP3   OH242778   0.171   3.979  11.233  0.2850  0.0895  0.3490
 7096TIP3    H142779   0.227   3.976  11.311  1.2960  0.0382 -0.3624
 7096TIP3    H242780   0.173   3.889  11.199 -0.0856  0.1309  0.2159
 7097TIP3   OH242781   2.111   2.906   5.915  0.2097 -0.2934 -0.0702
 7097TIP3    H142782   2.184   2.950   5.872 -0.0097  0.0552 -0.0908
 7097TIP3    H242783   2.033   2.939   5.870 -0.0671  0.5568  1.0045
 7098TIP3   OH242784   1.042   4.851  17.026  0.2142  0.3321 -0.3682
 7098TIP3    H142785   1.007   4.798  16.954 -0.2626 -0.1565  0.2166
 7098TIP3    H242786   1.029   4.942  16.997  4.3972  0.3231 -3.0795
 7099TIP3   OH242787   5.253   2.328   4.189 -0.2861  0.5383 -0.3417
 7099TIP3    H142788   5.256   2.265   4.117 -0.8540 -1.6100  1.4130
 7099TIP3    H242789   5.263   2.275   4.268  1.5986  2.9211  1.1810
 7100TIP3   OH242790   4.239   0.555   1.222 -0.3358 -0.0169  0.2751
 7100TIP3    H142791   4.218   0.603   1.302 -0.0808  1.2384 -0.3893
 7100TIP3    H242792   4.154   0.538   1.181 -0.3655  0.8031 -0.0093
 7101TIP3   OH242793   5.093   2.773   4.077 -0.5431  0.0673 -0.2110
 7101TIP3    H142794   5.089   2.697   4.134 -0.5433  0.4311  0.2815
 7101TIP3    H242795   5.063   2.742   3.992  1.9837 -1.1508 -0.7530
 7102TIP3   OH242796   2.774   0.445   1.097  0.2166 -0.2995  0.0937
 7102TIP3    H142797   2.827   0.407   1.167 -1.1898 -0.4589  1.1158
 7102TIP3    H242798   2.683   0.431   1.125 -0.3728  0.9628 -1.0468
 7103TIP3   OH242799   4.658   1.736  11.995 -0.9884  0.1186 -0.7248
 7103TIP3    H142800   4.739   1.771  12.033 -1.0110  0.0137 -0.5773
 7103TIP3    H242801   4.658   1.766  11.904 -0.7216  0.0154 -0.7591
 7104TIP3   OH242802   2.179   4.897  15.547 -0.2802 -0.7995  0.3397
 7104TIP3    H142803   2.090   4.920  15.520 -0.5447 -0.0609  1.7436
 7104TIP3    H242804   2.177   4.802  15.557 -0.2119 -1.1096 -1.9129
 7105TIP3   OH242805   1.163   1.360  15.843  0.0865 -0.2501 -0.1344
 7105TIP3    H142806   1.204   1.284  15.801  0.1382  0.6631 -1.8531
 7105TIP3    H242807   1.235   1.406  15.885 -0.2023 -2.0805  2.5799
 7106TIP3   OH242808   1.727   3.753   3.534  0.1843 -0.0807  0.0225
 7106TIP3    H142809   1.650   3.748   3.477  0.6786 -0.9305 -0.5919
 7106TIP3    H242810   1.792   3.801   3.482  0.1550  0.4393  0.4544
 7107TIP3   OH242811   2.162   2.952  15.877 -0.4758 -0.2488 -0.2567
 7107TIP3    H142812   2.184   2.984  15.964  1.8483  0.2533 -0.9568
 7107TIP3    H242813   2.204   2.866  15.871 -1.6592 -0.8351 -0.4816
 7108TIP3   OH242814   5.315   4.716   0.207  0.2575  0.3587  0.0390
 7108TIP3    H142815   5.346   4.642   0.259  1.5987  0.8327 -0.0484
 7108TIP3    H242816   5.241   4.681   0.157 -0.0729 -0.5114  1.1089
 7109TIP3   OH242817   6.817   1.091  17.115 -0.2235 -0.0141  0.1275
 7109TIP3    H142818   6.853   1.178  17.095  0.8599 -0.6326 -0.6546
 7109TIP3    H242819   6.775   1.102  17.200  1.8707  0.7285  1.1317
 7110TIP3   OH242820   5.441   1.440  17.126  0.2540 -0.4531  0.2521
 7110TIP3    H142821   5.373   1.450  17.192  1.0989 -0.5083  1.1630
 7110TIP3    H242822   5.395   1.442  17.042 -0.6042  2.2588  0.7043
 7111TIP3   OH242823   3.186   1.466   1.004  0.0374 -0.4738  0.2556
 7111TIP3    H142824   3.100   1.426   1.019 -0.7906  0.8816 -0.6887
 7111TIP3    H242825   3.214   1.496   1.090 -1.4935  1.0736  0.2748
 7112TIP3   OH242826   2.868   5.264   2.519  0.3362 -0.3373 -0.0206
 7112TIP3    H142827   2.926   5.240   2.447  2.3345 -1.5902  1.8968
 7112TIP3    H242828   2.874   5.190   2.580 -0.8232  0.9289  1.7060
 7113TIP3   OH242829   6.302   2.694  15.861  0.1685  0.2701 -0.6033
 7113TIP3    H142830   6.398   2.695  15.861  0.2156 -1.2894  0.1884
 7113TIP3    H242831   6.277   2.783  15.838  1.7859 -0.0708 -4.5400
 7114TIP3   OH242832   2.691   0.436   3.182 -0.0983 -0.9366 -0.0151
 7114TIP3    H142833   2.750   0.511   3.185  0.1172 -1.0263 -1.4501
 7114TIP3    H242834   2.680   0.417   3.089 -1.9637 -1.2738  0.2404
 7115TIP3   OH242835   6.673   1.604  12.837  0.9000  0.0442  0.2504
 7115TIP3    H142836   6.752   1.639  12.795 -0.3990  1.2135 -1.3139
 7115TIP3    H242837   6.648   1.529  12.783  0.7101 -0.0975  0.5302
 7116TIP3   OH242838   6.238   4.816   4.277 -0.1343  0.4094 -0.0164
 7116TIP3    H142839   6.211   4.897   4.234  0.7167 -0.1342 -1.6532
 7116TIP3    H242840   6.173   4.751   4.251 -0.6499  0.4696  1.0575
 7117TIP3   OH242841   0.895   5.259   6.010  1.0092 -0.0386 -0.0333
 7117TIP3    H142842   0.882   5.193   5.942 -0.0118  2.0170 -1.9571
 7117TIP3    H242843   0.883   5.211   6.092  0.9307 -2.3369 -1.2959
 7118TIP3   OH242844   0.573   6.020   4.112 -0.0125  0.1903  0.2296
 7118TIP3    H142845   0.499   6.034   4.172 -0.8057 -1.3982 -0.3001
 7118TIP3    H242846   0.588   5.925   4.114  0.6569  0.2309 -1.2371
 7119TIP3   OH242847   3.596   4.018  11.920 -0.1704  0.3620 -0.0422
 7119TIP3    H142848   3.604   4.092  11.980  1.3240 -0.2419  0.5305
 7119TIP3    H242849   3.686   3.996  11.896 -0.4998 -2.0263  0.7225
 7120TIP3   OH242850   5.738   5.164  10.998 -0.4254  0.4049 -0.4540
 7120TIP3    H142851   5.822   5.179  10.954 -0.2400 -1.8479 -0.9880
 7120TIP3    H242852   5.675   5.211  10.944  0.3547  1.3310 -0.5939
 7121TIP3   OH242853   1.853   1.283   2.124  0.1168 -0.6226 -0.1186
 7121TIP3    H142854   1.895   1.289   2.209  1.2997  1.1080 -0.7621
 7121TIP3    H242855   1.922   1.305   2.062 -1.0939 -0.3751 -1.4278
 7122TIP3   OH242856   5.320   2.240  14.049 -0.0567 -0.0595  0.7080
 7122TIP3    H142857   5.339   2.257  14.141 -2.0866 -0.9604  1.3543
 7122TIP3    H242858   5.267   2.315  14.022 -1.3785 -0.8762  0.9613
 7123TIP3   OH242859   5.083   4.235  11.549 -0.4673 -0.2472  0.4625
 7123TIP3    H142860   5.112   4.314  11.594  0.3219 -0.1820 -0.1345
 7123TIP3    H242861   5.091   4.256  11.456 -3.0776 -0.0093  0.2093
 7124TIP3   OH242862   6.359   0.738   1.356  0.5257  0.0887 -0.0699
 7124TIP3    H142863   6.359   0.834   1.366  1.6704 -0.0634  1.9267
 7124TIP3    H242864   6.370   0.724   1.263  1.7350  1.9229 -0.2559
 7125TIP3   OH242865   0.139   1.199   5.370  0.2447  0.3824 -0.2011
 7125TIP3    H142866   0.102   1.216   5.284 -2.9963  1.1618  1.1751
 7125TIP3    H242867   0.078   1.137   5.411  0.5404  1.5389  2.1936
 7126TIP3   OH242868   5.127   0.761  15.091 -0.0578 -0.0165  0.5372
 7126TIP3    H142869   5.068   0.813  15.036  1.2761  1.7999  0.7637
 7126TIP3    H242870   5.080   0.751  15.174 -0.2786  0.9619  0.5380
 7127TIP3   OH242871   2.175   5.844  11.166 -0.3440 -0.2376 -0.5838
 7127TIP3    H142872   2.126   5.798  11.235 -1.5725  0.6567 -0.8280
 7127TIP3    H242873   2.224   5.775  11.122 -2.2206 -1.3859 -1.0126
 7128TIP3   OH242874   3.901   2.290  14.945  0.1900  0.4857  0.1859
 7128TIP3    H142875   3.811   2.301  14.977  1.0007  0.6131  2.7042
 7128TIP3    H242876   3.897   2.215  14.887 -1.4302  0.0086  0.8518
 7129TIP3   OH242877   2.678   4.642   0.098 -0.3623  0.8623  0.5756
 7129TIP3    H142878   2.746   4.600   0.151  0.5183  1.4807 -0.0317
 7129TIP3    H242879   2.610   4.575   0.088  0.5492 -0.0660  0.4726
 7130TIP3   OH242880   5.182   2.030  14.438  0.0291  0.6729  0.0416
 7130TIP3    H142881   5.087   2.033  14.431 -0.1518 -0.6097  1.3466
 7130TIP3    H242882   5.210   1.984  14.359 -0.5626 -0.1061  0.2696
 7131TIP3   OH242883   3.761   0.788  14.600  0.3724  0.0745 -0.0802
 7131TIP3    H142884   3.834   0.734  14.571  0.0431 -0.6578  0.4062
 7131TIP3    H242885   3.742   0.756  14.688  0.0633  0.8849  0.1565
 7132TIP3   OH242886   5.097   5.661  11.971  0.0879 -0.5241 -0.5909
 7132TIP3    H142887   5.011   5.622  11.989  0.7103 -1.3506  0.7544
 7132TIP3    H242888   5.123   5.702  12.053  1.1797 -0.7057 -0.8228
 7133TIP3   OH242889   1.961   0.179  10.422  0.1271  0.1380 -0.3495
 7133TIP3    H142890   1.960   0.174  10.327 -1.2310 -3.6571 -0.2941
 7133TIP3    H242891   1.868   0.187  10.446  0.4357  0.8169  0.7128
 7134TIP3   OH242892   3.559   0.379   0.748 -0.5546 -0.0459  0.6073
 7134TIP3    H142893   3.572   0.404   0.656 -1.8405 -0.5482  0.2695
 7134TIP3    H242894   3.558   0.284   0.746  2.4247 -0.2132  1.6184
 7135TIP3   OH242895   5.147   3.367  12.456 -0.3064 -0.0248 -0.1749
 7135TIP3    H142896   5.132   3.294  12.396 -1.3926 -0.4989  0.6665
 7135TIP3    H242897   5.073   3.365  12.516  0.4192  0.8686  0.7723
 7136TIP3   OH242898   2.175   1.044   1.609 -0.6365  0.3785 -0.5386
 7136TIP3    H142899   2.229   0.974   1.571  1.6009  1.2306  0.8555
 7136TIP3    H242900   2.181   1.030   1.703 -0.0986  2.4051 -0.2125
 7137TIP3   OH242901   0.788   3.333   1.534  0.6815  0.2306  0.0033
 7137TIP3    H142902   0.754   3.399   1.474  0.3301 -0.7682 -0.9496
 7137TIP3    H242903   0.773   3.250   1.487  1.3870 -0.4837  1.0245
 7138TIP3   OH242904   0.553   6.321   3.083  0.5714  0.3315  0.9397
 7138TIP3    H142905   0.502   6.285   3.156 -0.2577 -1.8422 -0.6019
 7138TIP3    H242906   0.542   6.416   3.091 -1.3219  0.0610  2.3569
 7139TIP3   OH242907   4.429   3.978   0.842 -0.3889 -0.4085  0.4763
 7139TIP3    H142908   4.358   4.028   0.882 -1.9928 -0.9566 -1.4962
 7139TIP3    H242909   4.424   3.892   0.882  1.0883  0.3383  2.4207
 7140TIP3   OH242910   1.233   1.447   4.209 -0.1167 -0.3717 -0.3802
 7140TIP3    H142911   1.237   1.361   4.251  1.2877  0.0877  0.4818
 7140TIP3    H242912   1.323   1.464   4.182 -0.7591 -0.1175 -2.5695
 7141TIP3   OH242913   0.983   6.307   5.477  0.0733 -0.9694  0.3083
 7141TIP3    H142914   0.936   6.342   5.552 -1.1971  0.4246 -1.0500
 7141TIP3    H242915   0.934   6.227   5.453 -0.5063 -0.5391  0.0248
 7142TIP3   OH242916   3.868   5.344  11.941 -0.3133 -0.3408 -0.6571
 7142TIP3    H142917   3.811   5.319  12.013  0.1379 -0.5116 -0.3522
 7142TIP3    H242918   3.818   5.409  11.892 -1.5412 -1.8325 -1.4924
 7143TIP3   OH242919   1.815   0.356   0.034 -0.2538  0.0633  0.2812
 7143TIP3    H142920   1.725   0.324   0.041 -0.4167  0.1372 -1.2064
 7143TIP3    H242921   1.836   0.387   0.122 -0.9547 -1.8233  1.1725
 7144TIP3   OH242922   6.031   0.540  15.227 -0.0859 -0.1843  0.6440
 7144TIP3    H142923   5.936   0.547  15.233 -0.2532 -1.3962 -0.2383
 7144TIP3    H242924   6.058   0.621  15.184 -0.8656 -0.4388 -0.3574
 7145TIP3   OH242925   0.639   5.086   1.177 -0.2434  0.3106  0.0935
 7145TIP3    H142926   0.723   5.049   1.151 -0.3493 -0.3714  0.6958
 7145TIP3    H242927   0.608   5.132   1.099  0.4064  0.0710 -0.3152
 7146TIP3   OH242928   0.332   2.941   5.612  0.6087  0.4574  0.3271
 7146TIP3    H142929   0.394   2.871   5.591  1.3321  1.5557 -1.4273
 7146TIP3    H242930   0.385   3.007   5.656  0.0273  0.1512  1.5266
 7147TIP3   OH242931   4.478   3.782  11.811 -0.0877  0.7772  0.4302
 7147TIP3    H142932   4.398   3.834  11.802 -0.4146  0.4737  1.4565
 7147TIP3    H242933   4.449   3.691  11.801 -0.0404  0.6049  1.7364
 7148TIP3   OH242934   2.857   3.597   3.818  0.2346 -0.3392 -0.2550
 7148TIP3    H142935   2.905   3.661   3.871 -0.4829 -0.7100  0.8811
 7148TIP3    H242936   2.830   3.646   3.741 -1.2932  1.1051  1.1145
 7149TIP3   OH242937   0.931   6.620  17.127 -0.2140  0.1203 -0.1672
 7149TIP3    H142938   0.966   6.695  17.080 -0.0182  0.4061  0.4264
 7149TIP3    H242939   0.847   6.651  17.163  0.3930  0.4189  1.0218
 7150TIP3   OH242940   0.336   0.810   1.065 -0.8340 -0.1267 -0.8996
 7150TIP3    H142941   0.317   0.873   1.135  0.7625  0.9447 -1.3607
 7150TIP3    H242942   0.364   0.865   0.992 -0.8586 -1.3204 -1.8257
 7151TIP3   OH242943   1.696   3.787   6.060 -0.3192 -0.8555 -0.3814
 7151TIP3    H142944   1.659   3.700   6.072 -0.5666 -0.9250 -1.5026
 7151TIP3    H242945   1.636   3.830   5.999  0.1571 -0.1296 -0.3520
 7152TIP3   OH242946   5.264   5.290   4.227 -0.7401  0.1319  0.1845
 7152TIP3    H142947   5.221   5.260   4.147  0.1637  0.2942 -0.3731
 7152TIP3    H242948   5.348   5.327   4.198  0.0461 -0.6899  1.2789
 7153TIP3   OH242949   6.093   5.122   1.693  0.0028 -0.1127 -0.4658
 7153TIP3    H142950   6.071   5.214   1.677 -2.0767 -0.4872  0.0643
 7153TIP3    H242951   6.103   5.084   1.606  1.4464  0.6953 -0.6922
 7154TIP3   OH242952   4.235   4.270  11.307 -0.1972 -0.0159  0.2196
 7154TIP3    H142953   4.247   4.294  11.399 -0.2150 -0.0280  0.2249
 7154TIP3    H242954   4.284   4.335  11.258  2.4550 -1.7697  0.3395
 7155TIP3   OH242955   2.546   2.396  12.125  0.3824 -0.1407  0.2311
 7155TIP3    H142956   2.492   2.412  12.203 -0.8830  1.0161 -0.8119
 7155TIP3    H242957   2.482   2.374  12.057  1.5662 -2.4370 -0.2020
 7156TIP3   OH242958   5.714   3.456  14.404 -0.0333  0.5920  0.1442
 7156TIP3    H142959   5.622   3.438  14.386 -0.0376  0.8009 -0.0356
 7156TIP3    H242960   5.759   3.436  14.322  0.0409  0.8070  0.1324
 7157TIP3   OH242961   1.905   5.396  14.514 -0.3197 -0.3762 -0.1080
 7157TIP3    H142962   1.839   5.343  14.558 -0.2927 -0.3107  0.0138
 7157TIP3    H242963   1.977   5.402  14.577 -0.9392  1.0851  0.5292
 7158TIP3   OH242964   3.428   0.637   3.904  0.6306  0.3295 -0.3386
 7158TIP3    H142965   3.375   0.620   3.827  0.9224 -0.7066 -0.3181
 7158TIP3    H242966   3.439   0.732   3.904 -1.3637  0.5954 -0.2260
 7159TIP3   OH242967   5.960   3.235   0.959  0.1818  0.1593 -0.4991
 7159TIP3    H142968   5.907   3.215   0.882 -1.5734  3.5041 -0.3308
 7159TIP3    H242969   6.029   3.292   0.927 -0.6503  1.7096  0.3690
 7160TIP3   OH242970   2.276   1.378  10.722  0.2697  0.5640 -0.4048
 7160TIP3    H142971   2.260   1.472  10.724  0.8924  0.6699  0.5216
 7160TIP3    H242972   2.223   1.342  10.793  1.8885  0.5661  0.8707
 7161TIP3   OH242973   2.620   2.011   1.041  0.0296 -0.1816  0.0265
 7161TIP3    H142974   2.554   1.942   1.030  0.2090 -0.0583 -2.2109
 7161TIP3    H242975   2.570   2.092   1.047 -0.0804 -0.0281 -2.1984
 7162TIP3   OH242976   2.343   5.828  16.828 -0.2612 -0.1751  0.3723
 7162TIP3    H142977   2.374   5.917  16.847  1.1334 -0.7362  0.8682
 7162TIP3    H242978   2.367   5.777  16.905 -0.8093 -1.0362 -0.0165
 7163TIP3   OH242979   1.883   3.663  15.715  0.3523  0.1572  0.2682
 7163TIP3    H142980   1.839   3.742  15.681 -0.8915 -0.7967 -0.4450
 7163TIP3    H242981   1.841   3.647  15.800 -1.0060 -0.9309 -0.5493
 7164TIP3   OH242982   6.021   6.741  15.028  0.6370 -0.4248  0.2426
 7164TIP3    H142983   5.967   6.675  14.985 -0.2715 -0.9128  2.0231
 7164TIP3    H242984   6.001   6.823  14.983  0.1348 -0.9941 -0.5816
 7165TIP3   OH242985   4.844   5.208   6.248 -0.2059  0.0044  0.0758
 7165TIP3    H142986   4.758   5.228   6.211 -0.2189  0.2481  0.2370
 7165TIP3    H242987   4.827   5.187   6.339  0.0183  1.0442  0.3698
 7166TIP3   OH242988   2.088   1.358   2.304 -0.1575 -0.7351 -0.7055
 7166TIP3    H142989   2.143   1.280   2.313  1.6834  0.7043  1.9366
 7166TIP3    H242990   2.028   1.353   2.378  1.3212  1.2242  0.7431
 7167TIP3   OH242991   0.269   3.876   6.274  0.3120  0.1842 -0.2958
 7167TIP3    H142992   0.194   3.824   6.246 -0.4549  1.4085 -0.5572
 7167TIP3    H242993   0.289   3.844   6.362 -2.5517  1.9613  1.1210
 7168TIP3   OH242994   3.357   3.812  12.412 -0.5971  0.2133 -0.4931
 7168TIP3    H142995   3.314   3.820  12.497  1.1467 -0.4195  0.4974
 7168TIP3    H242996   3.380   3.902  12.389  2.0056  0.1693  1.4537
 7169TIP3   OH242997   3.181   4.024  16.659 -0.1751  0.5073  0.1476
 7169TIP3    H142998   3.244   3.977  16.604 -0.5811  0.4553 -0.2764
 7169TIP3    H242999   3.235   4.066  16.726  0.5697  2.1166 -1.3567
 7170TIP3   OH243000   1.243   3.928   1.101  0.1753  0.5657 -0.2207
 7170TIP3    H143001   1.332   3.961   1.110  2.0179 -3.8428  0.1532
 7170TIP3    H243002   1.205   3.939   1.189  1.2543  0.2891  0.2995
 7171TIP3   OH243003   3.755   3.545  16.175 -0.2958 -0.1818  0.0099
 7171TIP3    H143004   3.686   3.489  16.210 -0.5511  0.6077  0.8261
 7171TIP3    H243005   3.808   3.569  16.252 -0.6563  1.3029 -0.1678
 7172TIP3   OH243006   4.525   2.381  13.110 -0.0651 -0.5082  0.8462
 7172TIP3    H143007   4.573   2.414  13.034  0.1296  0.6245  1.4199
 7172TIP3    H243008   4.434   2.407  13.095 -0.0653 -0.4880  0.8801
 7173TIP3   OH243009   0.045   1.258   5.113  0.1155 -0.3559  0.1631
 7173TIP3    H143010  -0.003   1.335   5.142 -1.3184 -1.8018  1.8222
 7173TIP3    H243011   0.126   1.293   5.075  0.0417  1.9029  1.9120
 7174TIP3   OH243012   4.617   5.024   4.773  0.1189  0.3981  0.0607
 7174TIP3    H143013   4.635   5.118   4.777  2.2684  0.0142  0.5300
 7174TIP3    H243014   4.687   4.988   4.719 -0.9286 -0.9039 -0.4781
 7175TIP3   OH243015   0.868   4.669   2.117 -0.4962  0.0587 -0.0390
 7175TIP3    H143016   0.804   4.633   2.056 -2.2736  2.5729  0.1422
 7175TIP3    H243017   0.830   4.653   2.204 -0.9994  1.6289  0.0690
 7176TIP3   OH243018   4.929   2.270  11.624 -0.2080 -0.4077 -0.6096
 7176TIP3    H143019   4.855   2.209  11.629 -1.0485  0.5160 -1.3979
 7176TIP3    H243020   4.902   2.344  11.679  0.5675 -0.4969 -0.1006
 7177TIP3   OH243021   6.785   4.939   3.033  0.1166  0.2642 -0.0581
 7177TIP3    H143022   6.783   5.031   3.057  2.4910  0.8863 -1.8678
 7177TIP3    H243023   6.827   4.937   2.947 -1.2199 -2.4086 -0.7903
 7178TIP3   OH243024   0.141   4.197  11.521 -0.0690  0.2070 -0.1181
 7178TIP3    H143025   0.059   4.182  11.473 -0.2516 -0.3404  0.3422
 7178TIP3    H243026   0.112   4.213  11.611  0.2925  0.7970 -0.1055
 7179TIP3   OH243027   2.405   0.654  13.084 -0.2580  0.6269 -0.3323
 7179TIP3    H143028   2.402   0.726  13.021  0.2905  0.6170 -0.3782
 7179TIP3    H243029   2.498   0.646  13.106 -0.4769  0.7873  0.6640
 7180TIP3   OH243030   5.244   1.487   2.455  0.1104  0.4328 -0.2327
 7180TIP3    H143031   5.259   1.484   2.550  3.2823 -3.1537 -0.6198
 7180TIP3    H243032   5.150   1.473   2.446 -0.0816 -0.6258  2.3752
 7181TIP3   OH243033   0.310   1.128  14.856  0.3754  0.0247  0.0433
 7181TIP3    H143034   0.247   1.057  14.846  0.0200  0.4412 -0.8256
 7181TIP3    H243035   0.361   1.104  14.933 -0.0402 -0.9359  0.0415
 7182TIP3   OH243036   4.902   5.812  13.135 -0.5175  0.1399 -0.2774
 7182TIP3    H143037   4.843   5.768  13.196  0.8166  0.2216  1.1394
 7182TIP3    H243038   4.982   5.761  13.139 -0.9004 -0.8495 -3.2984
 7183TIP3   OH243039   6.483   5.999  14.195  0.5608 -0.3236  0.3162
 7183TIP3    H143040   6.414   5.950  14.241  0.6571 -2.0938 -1.2878
 7183TIP3    H243041   6.435   6.061  14.141  0.2968 -0.4039  0.4538
 7184TIP3   OH243042   5.016   1.085   0.285 -0.0422  1.2006 -0.0228
 7184TIP3    H143043   5.042   1.038   0.205 -0.6452 -0.5224  0.7485
 7184TIP3    H243044   5.011   1.017   0.352 -0.2236  2.5096  1.3349
 7185TIP3   OH243045   5.495   0.857  14.086 -0.6895  0.0809 -0.0005
 7185TIP3    H143046   5.527   0.948  14.091  0.3198 -0.3099  1.1445
 7185TIP3    H243047   5.481   0.842  13.993  1.8173  0.5563 -0.5285
 7186TIP3   OH243048   0.020   2.209  12.686  1.2003  0.1562  0.4268
 7186TIP3    H143049   0.065   2.132  12.651  0.6595 -1.2099  2.5637
 7186TIP3    H243050   0.005   2.265  12.609  1.1019 -2.1006 -1.3021
 7187TIP3   OH243051   1.961   1.162  16.230  0.6566  0.3248 -0.6260
 7187TIP3    H143052   1.922   1.076  16.217 -0.0585  0.5852 -0.2589
 7187TIP3    H243053   1.887   1.220  16.248  1.1728  0.9109 -0.3277
 7188TIP3   OH243054   1.800   4.373   3.242 -0.0906  0.2154 -0.5329
 7188TIP3    H143055   1.834   4.456   3.210 -0.2421  0.2181 -0.6891
 7188TIP3    H243056   1.850   4.355   3.321 -2.0915  1.9481  1.2257
 7189TIP3   OH243057   5.095   0.556   4.016  0.0992 -0.2740 -0.1035
 7189TIP3    H143058   5.113   0.648   3.995 -0.1930 -0.2918 -0.4375
 7189TIP3    H243059   5.074   0.557   4.110  1.9855 -0.2752  0.3677
 7190TIP3   OH243060   1.379   3.431   2.699 -0.3939 -0.3311 -0.4098
 7190TIP3    H143061   1.335   3.355   2.662 -1.0700 -0.2377  0.1762
 7190TIP3    H243062   1.472   3.407   2.700 -0.3769 -0.4053 -1.9503
 7191TIP3   OH243063   3.147   5.844  17.132 -0.4219 -0.2470  0.0042
 7191TIP3    H143064   3.062   5.885  17.146 -0.0517 -0.1536  2.2512
 7191TIP3    H243065   3.129   5.750  17.131 -0.5485 -0.2348  0.6800
 7192TIP3   OH243066   3.083   2.413  14.224  0.0290 -0.6079  0.5868
 7192TIP3    H143067   3.079   2.492  14.278 -1.4044 -0.9659  1.0569
 7192TIP3    H243068   3.106   2.343  14.285  0.8215 -0.6502  0.2581
 7193TIP3   OH243069   6.737   1.330  14.673  0.4711  0.3968  0.7848
 7193TIP3    H143070   6.642   1.330  14.667  0.5625  0.5308 -1.3112
 7193TIP3    H243071   6.758   1.248  14.718 -0.6326  0.7741  2.0606
 7194TIP3   OH243072   1.014   0.479  11.295 -0.1362 -0.2355  0.2149
 7194TIP3    H143073   1.079   0.436  11.240  0.4004 -0.3549  0.9275
 7194TIP3    H243074   1.055   0.484  11.382 -1.2361 -0.6755  0.7775
 7195TIP3   OH243075   4.933   5.244  15.970  0.3263  0.1747  0.2014
 7195TIP3    H143076   5.010   5.240  15.913  0.8113  0.5992  0.8074
 7195TIP3    H243077   4.968   5.232  16.058 -0.1692  1.3150  0.5684
 7196TIP3   OH243078   0.922   6.526  11.098 -0.1807  0.0003  0.3580
 7196TIP3    H143079   0.835   6.503  11.063 -0.1060  0.6878 -0.3181
 7196TIP3    H243080   0.932   6.619  11.077 -0.1863  0.5046  2.3828
 7197TIP3   OH243081   6.202   0.177  11.820  0.9126  0.6183 -0.1892
 7197TIP3    H143082   6.118   0.178  11.865  0.6852 -0.8835 -0.5124
 7197TIP3    H243083   6.201   0.256  11.765 -0.2169  0.7098 -0.0583
 7198TIP3   OH243084   3.590   1.434  14.138 -0.6680 -0.3707  0.0761
 7198TIP3    H143085   3.500   1.458  14.119 -0.5130  0.7685  0.7089
 7198TIP3    H243086   3.601   1.450  14.231  0.0249 -1.0562  0.1252
 7199TIP3   OH243087   4.204   4.933   5.965 -0.4404 -0.6749  0.0825
 7199TIP3    H143088   4.212   5.014   6.017 -0.3595 -0.5947 -0.0536
 7199TIP3    H243089   4.218   4.863   6.028 -1.5950 -0.6184  0.4165
 7200TIP3   OH243090   6.578   5.931  14.739  0.1422 -0.3650 -0.1032
 7200TIP3    H143091   6.605   5.987  14.667 -0.6249 -1.9037 -1.6682
 7200TIP3    H243092   6.562   5.991  14.812 -0.2760  1.3763 -1.5698
 7201TIP3   OH243093   2.147   2.237   2.295 -0.1412  0.0361  0.3581
 7201TIP3    H143094   2.053   2.246   2.314 -0.6211 -1.7788 -0.8916
 7201TIP3    H243095   2.155   2.152   2.252  2.0877  0.1990  0.3257
 7202TIP3   OH243096   2.400   0.648  12.174 -0.1643 -0.1981  0.1204
 7202TIP3    H143097   2.347   0.644  12.254  0.8332  1.3137  0.8970
 7202TIP3    H243098   2.336   0.662  12.104 -0.9061  0.2844  0.8759
 7203TIP3   OH243099   5.362   4.343   1.617 -0.1342 -0.1118  0.0340
 7203TIP3    H143100   5.436   4.336   1.558 -0.4254  0.0096 -0.3482
 7203TIP3    H243101   5.290   4.299   1.571 -0.7274  1.1704 -0.3125
 7204TIP3   OH243102   0.296   3.789  10.640 -0.0197 -0.0182  0.2813
 7204TIP3    H143103   0.390   3.770  10.634  0.2893  1.5268 -0.1105
 7204TIP3    H243104   0.264   3.732  10.709  1.1537 -0.7634  0.2296
 7205TIP3   OH243105   3.786   5.546  15.654 -0.5042  0.0341  0.2405
 7205TIP3    H143106   3.745   5.615  15.706 -3.5033 -1.4917  0.0989
 7205TIP3    H243107   3.860   5.516  15.707 -0.7738  1.4815  1.5076
 7206TIP3   OH243108   5.721   4.427  16.716 -0.4055 -0.0364  0.2119
 7206TIP3    H143109   5.638   4.384  16.739 -1.1581 -0.4300 -2.8574
 7206TIP3    H243110   5.781   4.354  16.699 -0.4664  0.1566 -0.9106
 7207TIP3   OH243111   1.694   6.285  13.492 -0.4785 -0.3168  0.2063
 7207TIP3    H143112   1.716   6.375  13.515 -0.3913 -0.0736 -0.7761
 7207TIP3    H243113   1.695   6.237  13.575  0.9807  0.2649  0.5542
 7208TIP3   OH243114   2.839   4.383   1.750  0.3353  0.1618  0.1037
 7208TIP3    H143115   2.935   4.383   1.756  0.4701 -2.2133 -1.1804
 7208TIP3    H243116   2.810   4.368   1.840  1.1570  0.7215  0.4810
 7209TIP3   OH243117   0.817   4.140  13.270  0.6157  0.4046 -0.0849
 7209TIP3    H143118   0.782   4.221  13.234 -2.4218 -0.6039  0.3126
 7209TIP3    H243119   0.874   4.168  13.343 -0.4466  2.1677  0.1015
 7210TIP3   OH243120   2.845   5.332   5.872  0.1213 -0.6304  0.2402
 7210TIP3    H143121   2.891   5.384   5.807 -1.4001  2.5764  1.5131
 7210TIP3    H243122   2.767   5.300   5.827  0.1889 -0.3328 -0.0915
 7211TIP3   OH243123   1.466   0.408   1.170  0.2795  0.0570  0.1192
 7211TIP3    H143124   1.541   0.448   1.215 -0.0132  0.1154  0.5584
 7211TIP3    H243125   1.399   0.476   1.172  0.4807  0.3014 -0.9956
 7212TIP3   OH243126   0.033   2.199   1.367 -0.0019  0.1345 -0.3955
 7212TIP3    H143127   0.028   2.104   1.357  0.2018  0.0744  0.1043
 7212TIP3    H243128  -0.032   2.220   1.435 -1.8639  0.6242 -2.1993
 7213TIP3   OH243129   2.294   0.192   3.689  0.1878 -0.1618 -0.5305
 7213TIP3    H143130   2.334   0.203   3.775 -0.9148 -1.0516  0.1284
 7213TIP3    H243131   2.259   0.278   3.667  2.7098  0.7499 -1.3083
 7214TIP3   OH243132   6.232   6.498   4.814 -0.3153 -0.2947  0.3144
 7214TIP3    H143133   6.276   6.557   4.874 -0.0008 -0.3192  0.1098
 7214TIP3    H243134   6.146   6.482   4.854 -0.2934  0.0758  0.5063
 7215TIP3   OH243135   6.478   4.438   2.278 -0.1558  0.3041  0.1470
 7215TIP3    H143136   6.545   4.473   2.219  0.4441  1.2205  1.3234
 7215TIP3    H243137   6.403   4.423   2.222  0.3115  1.3945 -0.8215
 7216TIP3   OH243138   2.261   0.312  14.960  0.2184  0.0488 -0.6932
 7216TIP3    H143139   2.181   0.358  14.984  0.8663  1.3815 -0.9926
 7216TIP3    H243140   2.313   0.310  15.041  0.4907  0.4805 -0.8569
 7217TIP3   OH243141   6.538   3.579   4.638  0.5211 -0.0170  0.3906
 7217TIP3    H143142   6.481   3.631   4.581  0.7079  1.0883  1.1819
 7217TIP3    H243143   6.481   3.545   4.706  0.2700 -1.4658 -0.5092
 7218TIP3   OH243144   4.052   3.209  14.320 -0.1676  0.4045 -0.0159
 7218TIP3    H143145   4.037   3.277  14.387  0.4332  0.4052  0.1213
 7218TIP3    H243146   3.965   3.194  14.282 -0.9967 -1.1579  2.2464
 7219TIP3   OH243147   3.285   4.145  13.038  0.3554 -0.3024  0.7790
 7219TIP3    H143148   3.232   4.069  13.013 -0.5786  0.0975  1.4422
 7219TIP3    H243149   3.220   4.215  13.049  0.9717  0.0853  2.0820
 7220TIP3   OH243150   5.742   3.384  11.726  0.3695 -0.2784  0.0357
 7220TIP3    H143151   5.759   3.374  11.820  2.4741  1.5499 -0.0664
 7220TIP3    H243152   5.705   3.471  11.718 -1.3889 -1.0451 -0.7250
 7221TIP3   OH243153   2.232   2.421   3.269 -0.1900  0.2813 -0.2203
 7221TIP3    H143154   2.298   2.354   3.254  0.4046  0.7574  0.2281
 7221TIP3    H243155   2.262   2.496   3.217 -0.2792  0.5612  0.1288
 7222TIP3   OH243156   0.414   1.437  15.144 -0.5576 -0.6909 -0.5920
 7222TIP3    H143157   0.324   1.461  15.166 -0.2588  1.6122 -1.6136
 7222TIP3    H243158   0.430   1.356  15.192 -2.4002  0.0694  1.4406
 7223TIP3   OH243159   0.369   2.054   5.251  0.6507 -0.4474  0.0890
 7223TIP3    H143160   0.421   1.982   5.288  1.8442 -0.0818 -0.8089
 7223TIP3    H243161   0.417   2.133   5.276 -0.4135  0.0213  0.6905
 7224TIP3   OH243162   4.395   2.024   1.496  0.7814 -0.6286  0.0870
 7224TIP3    H143163   4.363   2.092   1.555  1.5359  1.9985 -2.3271
 7224TIP3    H243164   4.475   1.991   1.538  1.4519  1.3371  0.4616
 7225TIP3   OH243165   4.457   5.676   0.942  0.4214 -0.0092  0.6267
 7225TIP3    H143166   4.510   5.701   0.867 -0.8179  0.2735 -0.1749
 7225TIP3    H243167   4.443   5.582   0.931 -0.1192  0.1127  0.2692
 7226TIP3   OH243168   4.867   1.067   3.113 -0.3482  0.2568  0.1227
 7226TIP3    H143169   4.832   1.146   3.154 -1.0834  0.3094 -0.5735
 7226TIP3    H243170   4.819   0.995   3.155 -2.3042  0.3901 -1.7016
 7227TIP3   OH243171   4.865   2.196  13.317 -0.2829 -0.4357 -0.5105
 7227TIP3    H143172   4.772   2.218  13.317 -0.3009 -0.4897 -0.1475
 7227TIP3    H243173   4.906   2.260  13.259 -0.3702  0.3756  0.3006
 7228TIP3   OH243174   1.870   0.866   3.543 -0.3639 -0.3057  0.2948
 7228TIP3    H143175   1.919   0.795   3.503 -0.5053 -0.3458  0.1930
 7228TIP3    H243176   1.918   0.945   3.519 -0.8350 -0.2658 -0.5414
 7229TIP3   OH243177   6.550   5.957   1.614  0.0273  0.0080 -0.3690
 7229TIP3    H143178   6.644   5.940   1.617  0.4228  1.8720 -0.8357
 7229TIP3    H243179   6.542   6.044   1.575 -1.8599  0.1789  0.2714
 7230TIP3   OH243180   2.998   5.404  15.046  0.2476  0.1261  0.3160
 7230TIP3    H143181   2.943   5.377  14.972  1.2377 -2.5708  0.4490
 7230TIP3    H243182   3.035   5.488  15.020 -0.9371  0.1503 -1.4079
 7231TIP3   OH243183   4.686   0.893  11.360  0.5181  0.1034  0.0852
 7231TIP3    H143184   4.728   0.811  11.384  0.1886 -0.3365 -0.8137
 7231TIP3    H243185   4.758   0.951  11.335  0.6953 -0.1176  0.0859
 7232TIP3   OH243186   2.094   2.754  14.642 -0.1508 -0.0700 -0.1508
 7232TIP3    H143187   2.014   2.720  14.681  0.2761  0.1757  1.0067
 7232TIP3    H243188   2.164   2.703  14.683  0.3421  0.4716 -0.3032
 7233TIP3   OH243189   0.087   5.072  11.598  0.6653 -0.2854 -0.0488
 7233TIP3    H143190   0.045   5.041  11.679  0.3632 -1.3752 -0.5955
 7233TIP3    H243191   0.151   5.136  11.627 -0.2127  0.1682  0.9586
 7234TIP3   OH243192   5.352   5.560  14.581 -0.2300 -0.0418  0.0847
 7234TIP3    H143193   5.281   5.589  14.523 -1.7606 -0.4886  1.6690
 7234TIP3    H243194   5.427   5.551  14.523 -0.9918  2.1423 -1.3518
 7235TIP3   OH243195   1.746   4.377   2.122  0.6020 -0.4537  0.0405
 7235TIP3    H143196   1.814   4.426   2.169  0.7273 -0.2387 -0.3622
 7235TIP3    H243197   1.774   4.378   2.031 -0.1069 -0.0931 -0.1764
 7236TIP3   OH243198   3.609   5.757   3.190 -0.2315 -0.0382 -0.2159
 7236TIP3    H143199   3.696   5.782   3.221 -0.3782 -1.8527  1.9400
 7236TIP3    H243200   3.625   5.706   3.110  0.6949 -0.4115  0.1975
 7237TIP3   OH243201   5.809   6.743   3.546  0.2958  0.3843  0.6889
 7237TIP3    H143202   5.819   6.769   3.638  0.5975 -0.0082  0.7717
 7237TIP3    H243203   5.735   6.795   3.514  0.1857  0.5215  1.1571
 7238TIP3   OH243204   0.621   1.903  10.312  0.3347 -0.5004 -0.1746
 7238TIP3    H143205   0.526   1.913  10.319  0.5923  1.5825  1.1449
 7238TIP3    H243206   0.641   1.923  10.221 -0.4964 -1.1674 -0.5178
 7239TIP3   OH243207   4.303   4.851   2.815  0.4519 -0.0503 -0.3071
 7239TIP3    H143208   4.379   4.824   2.764 -1.0512 -1.0634 -2.1534
 7239TIP3    H243209   4.295   4.785   2.883  0.7398 -0.4018 -0.6119
 7240TIP3   OH243210   0.962   3.263  16.843  0.1059  0.0528 -0.2663
 7240TIP3    H143211   0.986   3.204  16.772  0.2578 -0.4933  0.2284
 7240TIP3    H243212   1.010   3.344  16.826  1.1144 -0.5052 -0.1042
 7241TIP3   OH243213   0.418   1.810  12.972 -0.1536  0.3543  0.1824
 7241TIP3    H143214   0.329   1.780  12.954 -0.0907  0.8806 -1.1278
 7241TIP3    H243215   0.465   1.797  12.890  1.1546 -0.4436  1.0120
 7242TIP3   OH243216   2.538   1.885   0.124 -0.6760  0.4409 -0.2831
 7242TIP3    H143217   2.631   1.862   0.122 -0.7768 -0.2258  1.0929
 7242TIP3    H243218   2.494   1.804   0.149 -1.6506  0.7069 -1.0935
 7243TIP3   OH243219   2.903   3.250   3.290  0.4559 -0.0374 -0.9436
 7243TIP3    H143220   2.918   3.330   3.339  3.9291 -0.5538 -0.8824
 7243TIP3    H243221   2.846   3.276   3.218  0.1518  2.0774 -0.0125
 7244TIP3   OH243222   6.542   1.864  11.888 -0.1004 -0.8906  0.0819
 7244TIP3    H143223   6.545   1.859  11.984 -0.4792 -1.4026  0.0731
 7244TIP3    H243224   6.603   1.796  11.859 -0.2843 -1.0035 -0.0406
 7245TIP3   OH243225   4.034   5.682   1.971 -0.2784  0.0733 -0.1699
 7245TIP3    H143226   3.956   5.689   2.025  1.2384  2.3910  1.9358
 7245TIP3    H243227   4.025   5.599   1.925 -2.0895 -1.6357  3.0155
 7246TIP3   OH243228   1.807   5.079  11.531  0.1938 -0.6169 -0.1493
 7246TIP3    H143229   1.761   5.039  11.457  0.4566 -1.2933  0.0459
 7246TIP3    H243230   1.887   5.027  11.541 -0.0189 -0.7752  0.8475
 7247TIP3   OH243231   3.698   1.722   5.695 -0.1098 -0.5885  0.1259
 7247TIP3    H143232   3.759   1.658   5.656  0.9533 -0.4383  1.4735
 7247TIP3    H243233   3.754   1.779   5.747 -1.4536 -0.7677  1.8445
 7248TIP3   OH243234   4.964   3.275  17.274 -0.6412  0.2929 -0.1458
 7248TIP3    H143235   4.897   3.314  17.217 -0.4133  0.8630 -0.0335
 7248TIP3    H243236   5.047   3.292  17.230 -0.3970  1.3740  0.6872
 7249TIP3   OH243237   1.608   2.401   1.246 -0.1658 -0.4255  0.3747
 7249TIP3    H143238   1.655   2.340   1.190 -2.3673  0.8868 -3.2682
 7249TIP3    H243239   1.660   2.481   1.244 -0.6312 -0.1290 -0.5739
 7250TIP3   OH243240   0.186   3.305   5.242 -0.0891 -0.2949 -0.1700
 7250TIP3    H143241   0.254   3.249   5.205 -0.0764  0.3336 -1.1394
 7250TIP3    H243242   0.148   3.350   5.166 -1.2397 -0.2584  0.4086
 7251TIP3   OH243243   2.201   2.799   3.696  0.1837  0.4594 -0.0314
 7251TIP3    H143244   2.186   2.768   3.785 -0.3100  2.1333  0.5142
 7251TIP3    H243245   2.296   2.811   3.691  0.3357 -0.7181 -0.1241
 7252TIP3   OH243246   2.688   1.884  12.386  0.6006  0.1146  0.0635
 7252TIP3    H143247   2.597   1.905  12.406  1.0209  2.0335  0.1993
 7252TIP3    H243248   2.715   1.823  12.455 -0.2486  0.4603  0.7169
 7253TIP3   OH243249   2.195   5.025  10.044  0.3411 -0.0021  0.1787
 7253TIP3    H143250   2.170   4.997   9.956  0.4203 -1.0281  0.4625
 7253TIP3    H243251   2.278   5.070  10.032  0.3201 -0.0806 -0.2806
 7254TIP3   OH243252   5.756   1.744  11.504 -0.2454 -0.1047 -0.5304
 7254TIP3    H143253   5.731   1.829  11.539 -0.0606  0.4939 -1.7731
 7254TIP3    H243254   5.713   1.681  11.561 -3.0866  0.8296 -1.4424
 7255TIP3   OH243255   4.720   1.299  10.751 -0.1098  0.4292  0.0227
 7255TIP3    H143256   4.783   1.227  10.753  0.2551  0.7321 -0.2980
 7255TIP3    H243257   4.740   1.350  10.830 -0.3115  0.2269  0.2046
 7256TIP3   OH243258   2.746   1.581  11.089 -0.2875 -0.3905 -0.4024
 7256TIP3    H143259   2.797   1.648  11.043 -1.1704  0.2025 -0.5446
 7256TIP3    H243260   2.706   1.627  11.163 -0.4122 -0.8963 -0.1483
 7257TIP3   OH243261   6.553   1.912  13.726 -0.0852  0.5463  0.0110
 7257TIP3    H143262   6.612   1.961  13.667  0.3685  0.3619  0.3051
 7257TIP3    H243263   6.481   1.884  13.670 -0.6168  1.9820 -0.0639
 7258TIP3   OH243264   5.869   2.450   6.067  0.2751  0.2208 -0.3143
 7258TIP3    H143265   5.830   2.427   6.151 -2.3254  0.5478 -1.3079
 7258TIP3    H243266   5.948   2.397   6.061  1.1235  0.9299  2.7264
 7259TIP3   OH243267   0.069   3.206   2.906  0.4737 -0.3439  0.3971
 7259TIP3    H143268   0.113   3.195   2.990 -1.2210 -0.6156  1.2971
 7259TIP3    H243269   0.069   3.301   2.891 -0.9540 -0.0810  1.7398
 7260TIP3   OH243270   1.344   1.255  13.217 -0.1677 -0.0225 -0.3772
 7260TIP3    H143271   1.289   1.219  13.146  0.0261 -4.2363  1.2925
 7260TIP3    H243272   1.282   1.277  13.286 -0.1961  2.1416 -1.0406
 7261TIP3   OH243273   3.719   2.361   3.332  0.8758 -0.3844 -0.5219
 7261TIP3    H143274   3.643   2.329   3.381 -0.1563 -1.1127 -2.4932
 7261TIP3    H243275   3.685   2.377   3.244  2.5606  1.2976 -0.9262
 7262TIP3   OH243276   3.739   6.751  14.640 -0.1758 -0.3416 -0.0767
 7262TIP3    H143277   3.686   6.830  14.632  0.6132  0.3860  1.4763
 7262TIP3    H243278   3.764   6.730  14.550  0.0138  1.4653 -0.4796
 7263TIP3   OH243279   2.242   4.628   2.179 -0.4635  0.1084 -0.2015
 7263TIP3    H143280   2.276   4.579   2.104 -0.7182  0.3957 -0.5135
 7263TIP3    H243281   2.304   4.611   2.250  0.4888  0.8546 -0.8271
 7264TIP3   OH243282   2.415   2.044  17.163 -0.7209  0.8519  0.7411
 7264TIP3    H143283   2.501   2.053  17.203  0.1693  1.0405 -1.1181
 7264TIP3    H243284   2.358   2.100  17.216 -0.4926 -1.5912  3.9441
 7265TIP3   OH243285   2.326   4.852  11.139 -0.1275  0.2255  0.2417
 7265TIP3    H143286   2.418   4.872  11.154  0.1129 -1.2494  0.8640
 7265TIP3    H243287   2.323   4.820  11.049  0.0847 -0.4021  0.4582
 7266TIP3   OH243288   2.362   3.947  14.479 -0.2329 -0.2119  0.4156
 7266TIP3    H143289   2.442   3.909  14.517 -0.2211  0.6089  1.2483
 7266TIP3    H243290   2.294   3.882  14.495  0.2447 -0.8928 -0.2474
 7267TIP3   OH243291   2.839   2.335  14.826 -0.1689  0.2509 -0.2067
 7267TIP3    H143292   2.812   2.385  14.749  0.1375  0.8988  0.0994
 7267TIP3    H243293   2.813   2.389  14.900 -0.7765 -0.5377  0.1540
 7268TIP3   OH243294   6.400   3.396   3.552  0.3813  0.0512 -0.5926
 7268TIP3    H143295   6.405   3.322   3.491 -0.6023  0.5061 -1.2431
 7268TIP3    H243296   6.350   3.462   3.505  0.5878  0.8433  0.2851
 7269TIP3   OH243297   2.868   1.232   4.918 -0.0590 -0.4472 -0.6161
 7269TIP3    H143298   2.906   1.320   4.918  0.5567 -0.6743  0.9195
 7269TIP3    H243299   2.942   1.174   4.935 -0.4607 -1.2749 -1.5976
 7270TIP3   OH243300   0.010   2.457   1.723 -0.1235  0.3560 -0.1391
 7270TIP3    H143301  -0.081   2.433   1.741 -0.2251  1.5464  1.0583
 7270TIP3    H243302   0.060   2.378   1.743 -1.0126 -0.9616 -2.6419
 7271TIP3   OH243303   3.190   5.252  11.076 -0.7568  0.1728 -0.1157
 7271TIP3    H143304   3.175   5.336  11.033 -0.3082  0.7995  0.8919
 7271TIP3    H243305   3.108   5.205  11.067 -1.5552  1.3569  0.6525
 7272TIP3   OH243306   1.068   6.730  12.322 -0.3159  0.1817  0.6204
 7272TIP3    H143307   1.072   6.736  12.226 -1.5668 -0.7239  0.4916
 7272TIP3    H243308   1.056   6.821  12.351  0.4516  0.5127 -0.0435
 7273TIP3   OH243309   6.174   5.195  14.971 -0.2717 -0.0312  0.9633
 7273TIP3    H143310   6.154   5.154  15.056  0.0838 -0.3139  0.9110
 7273TIP3    H243311   6.123   5.276  14.972 -0.6268 -0.2506  1.2576
 7274TIP3   OH243312   5.499   3.059   3.668 -0.4602  0.6221 -0.0598
 7274TIP3    H143313   5.468   3.008   3.743 -1.0696  0.7253 -0.2416
 7274TIP3    H243314   5.459   3.145   3.679 -0.5220  0.6477 -0.4842
 7275TIP3   OH243315   1.605   5.867   3.391  0.3738 -0.1780 -0.2520
 7275TIP3    H143316   1.594   5.783   3.436  1.3050 -1.0797 -1.6477
 7275TIP3    H243317   1.698   5.886   3.396  0.5148 -0.3385 -1.8331
 7276TIP3   OH243318   1.893   0.733   0.876  0.4775  0.6361 -0.5851
 7276TIP3    H143319   1.799   0.749   0.887  0.3229 -0.8978  0.6834
 7276TIP3    H243320   1.903   0.639   0.892  2.3592  0.9380  0.2946
 7277TIP3   OH243321   0.565   5.161  17.269 -0.1369 -0.3665 -0.0440
 7277TIP3    H143322   0.654   5.158  17.233  0.4572  1.1956  1.1784
 7277TIP3    H243323   0.575   5.128  17.358 -0.2446  2.1174  0.9645
 7278TIP3   OH243324   3.957   6.390  13.438  0.3743  0.6753  0.2629
 7278TIP3    H143325   3.891   6.322  13.422 -0.1046  1.4787 -1.4213
 7278TIP3    H243326   4.036   6.342  13.463 -0.3441 -0.4004  0.5333
 7279TIP3   OH243327   4.861   1.454  13.854  0.5200  0.0409 -0.0973
 7279TIP3    H143328   4.836   1.429  13.765  1.2472 -0.0014 -0.2952
 7279TIP3    H243329   4.778   1.469  13.898  0.1478  1.7979 -1.2697
 7280TIP3   OH243330   5.858   2.843   3.425 -0.4157 -0.5141 -0.0446
 7280TIP3    H143331   5.876   2.935   3.407  0.1985 -0.4474  0.8471
 7280TIP3    H243332   5.768   2.830   3.396 -0.9818  0.7232  1.0547
 7281TIP3   OH243333   4.340   5.247  15.549  0.2748 -0.6742 -0.3721
 7281TIP3    H143334   4.340   5.237  15.644 -0.7390 -0.6893 -0.3542
 7281TIP3    H243335   4.253   5.216  15.522  1.2011 -2.3954 -1.5075
 7282TIP3   OH243336   3.972   4.632  15.333 -0.0644 -0.1137 -0.7004
 7282TIP3    H143337   3.880   4.620  15.309 -0.2301  1.5883 -1.0044
 7282TIP3    H243338   4.019   4.571  15.275 -1.0616 -2.2097  0.5752
 7283TIP3   OH243339   5.763   1.873   0.973  0.4715 -0.4902 -0.4401
 7283TIP3    H143340   5.834   1.810   0.982 -0.8797 -2.1122 -0.6730
 7283TIP3    H243341   5.787   1.924   0.896  3.0236  1.3234  1.3745
 7284TIP3   OH243342   0.077   4.525  11.944  0.2167  0.2922 -0.2445
 7284TIP3    H143343   0.039   4.606  11.910  0.7644  0.4261 -0.5410
 7284TIP3    H243344   0.059   4.460  11.876  0.6028  0.3770 -0.4276
 7285TIP3   OH243345   1.461   4.041  15.547 -0.5785 -0.4297  0.5979
 7285TIP3    H143346   1.390   4.028  15.610  0.1653 -1.8861  1.1669
 7285TIP3    H243347   1.448   3.972  15.482 -0.1167 -0.2225  0.2774
 7286TIP3   OH243348   2.302   3.570  13.450  0.0696  0.1106 -1.1051
 7286TIP3    H143349   2.363   3.610  13.388 -0.6693  0.3473 -1.6963
 7286TIP3    H243350   2.349   3.569  13.533  0.2118  1.9788 -1.1317
 7287TIP3   OH243351   1.909   0.137  14.902  0.1887  0.1324 -0.5519
 7287TIP3    H143352   1.989   0.179  14.932  0.5293 -0.9253  0.0795
 7287TIP3    H243353   1.931   0.101  14.817  0.1704  0.4411 -0.6880
 7288TIP3   OH243354   4.964   5.588   0.412  0.1218 -0.2417 -0.2879
 7288TIP3    H143355   4.879   5.545   0.411 -0.0609 -0.0670  1.8290
 7288TIP3    H243356   5.003   5.569   0.327 -1.7967 -0.7915 -1.0766
 7289TIP3   OH243357   0.097   4.422   3.193 -0.2698 -0.4327  0.1274
 7289TIP3    H143358   0.063   4.495   3.141  1.7444 -0.2271 -1.0343
 7289TIP3    H243359   0.167   4.385   3.138 -0.7118 -2.7498  1.0283
 7290TIP3   OH243360   5.442   6.217  11.445  0.4050 -0.7336 -0.0883
 7290TIP3    H143361   5.460   6.200  11.352 -0.9043 -1.1232 -0.2849
 7290TIP3    H243362   5.524   6.195  11.489  0.8578 -1.1134 -1.0801
 7291TIP3   OH243363   5.389   4.487  16.701 -0.5110  0.3646  0.0076
 7291TIP3    H143364   5.307   4.446  16.672 -0.6998  0.6397  0.1505
 7291TIP3    H243365   5.456   4.423  16.678 -1.0566 -1.6342  3.1969
 7292TIP3   OH243366   4.444   0.663  15.822 -0.1643  0.4322 -0.2540
 7292TIP3    H143367   4.482   0.596  15.766 -0.0311 -0.0847  0.4398
 7292TIP3    H243368   4.358   0.680  15.785 -0.1724 -0.0688 -0.4672
 7293TIP3   OH243369   2.253   4.834  15.933 -0.5693  0.2732  0.0984
 7293TIP3    H143370   2.187   4.902  15.920 -0.1805  0.3242 -2.0867
 7293TIP3    H243371   2.324   4.858  15.874  0.7010 -0.6716  1.1773
 7294TIP3   OH243372   2.875   3.094   3.857  0.0048 -0.2364 -0.5927
 7294TIP3    H143373   2.830   3.171   3.821 -0.7364 -0.6517 -0.5741
 7294TIP3    H243374   2.847   3.021   3.802  0.6202 -0.5224 -0.5445
 7295TIP3   OH243375   4.444   0.513  13.512  0.5487  0.2801 -0.3774
 7295TIP3    H143376   4.437   0.501  13.606  0.1553  0.0024 -0.4384
 7295TIP3    H243377   4.405   0.598  13.495 -0.5893 -0.2420 -0.4392
 7296TIP3   OH243378   2.360   2.777   6.571 -0.0665  0.1977  0.1856
 7296TIP3    H143379   2.269   2.803   6.556 -0.5142  0.0099  2.2516
 7296TIP3    H243380   2.354   2.685   6.595  0.1112  1.0971  4.2886
 7297TIP3   OH243381   1.635   4.518   3.760  1.0397  0.4503 -0.1808
 7297TIP3    H143382   1.544   4.543   3.773  1.0357  0.7387 -0.7426
 7297TIP3    H243383   1.632   4.424   3.745  0.9350  0.2988  0.7436
 7298TIP3   OH243384   0.412   3.010  15.295 -0.1387 -0.2365  0.0932
 7298TIP3    H143385   0.375   3.073  15.356  0.1554  0.5388 -0.5172
 7298TIP3    H243386   0.350   2.937  15.295 -0.5791  0.1290  0.6578
 7299TIP3   OH243387   5.529   4.076  11.885 -0.5581 -0.1676  0.1001
 7299TIP3    H143388   5.554   4.105  11.973 -0.7770 -1.0263  0.4459
 7299TIP3    H243389   5.612   4.060  11.841 -0.4620 -0.4784  0.3961
 7300TIP3   OH243390   2.376   2.009  16.874  0.2140 -0.4918 -0.0150
 7300TIP3    H143391   2.432   1.932  16.872  0.7976 -0.1515 -3.1053
 7300TIP3    H243392   2.414   2.065  16.941  2.8103 -0.8819 -1.0443
 7301TIP3   OH243393   6.254   4.194  10.411  0.1180  1.2339  0.4630
 7301TIP3    H143394   6.219   4.237  10.333 -0.7796 -0.0017  0.1480
 7301TIP3    H243395   6.232   4.102  10.399  2.8595  0.4667  0.6252
 7302TIP3   OH243396   0.187   2.513   4.745  0.9850  0.1293 -0.3528
 7302TIP3    H143397   0.156   2.577   4.681  3.3657  0.4568 -1.2928
 7302TIP3    H243398   0.120   2.444   4.744 -0.4773  1.4856 -1.0211
 7303TIP3   OH243399   5.981   3.676   5.688 -0.2592  0.1616  0.0529
 7303TIP3    H143400   6.053   3.729   5.653  0.2298  0.1561  1.0299
 7303TIP3    H243401   6.022   3.594   5.714 -1.0504 -0.8206 -1.6480
 7304TIP3   OH243402   4.106   5.630   0.278 -0.1964 -1.1817 -0.0020
 7304TIP3    H143403   4.187   5.583   0.259  1.4310  0.9165  1.3010
 7304TIP3    H243404   4.082   5.604   0.367 -0.6619 -1.3515 -0.1696
 7305TIP3   OH243405   2.607   0.850  14.421  0.0377 -0.0603  0.1288
 7305TIP3    H143406   2.523   0.806  14.431  0.4367 -1.4961 -2.0927
 7305TIP3    H243407   2.590   0.940  14.452 -2.0791 -0.5137  0.4678
 7306TIP3   OH243408   6.064   3.791   6.426 -0.3854 -0.0248 -1.1103
 7306TIP3    H143409   6.086   3.811   6.335 -0.5292  2.2175 -0.7074
 7306TIP3    H243410   5.992   3.850   6.447 -1.3202 -1.4892  0.0703
 7307TIP3   OH243411   1.318   5.824  12.309  0.2757  0.0816  0.1967
 7307TIP3    H143412   1.303   5.862  12.222  2.1917 -1.0154 -0.6851
 7307TIP3    H243413   1.362   5.893  12.358  0.3015  0.3014 -0.1322
 7308TIP3   OH243414   1.087   0.782   2.484 -0.0288 -0.5000  0.2650
 7308TIP3    H143415   1.047   0.752   2.565  1.0291 -1.2235  0.5432
 7308TIP3    H243416   1.039   0.737   2.414  0.7394 -1.9447  0.6249
 7309TIP3   OH243417   6.043   1.548   0.906  0.2033 -0.0153 -0.1463
 7309TIP3    H143418   5.963   1.582   0.946  0.9654  0.1687  1.2716
 7309TIP3    H243419   6.109   1.615   0.924  0.6840 -0.1331 -1.3523
 7310TIP3   OH243420   1.773   3.717   3.032  0.1880 -0.3923 -0.3261
 7310TIP3    H143421   1.790   3.770   2.954  0.3037  2.6116  1.5669
 7310TIP3    H243422   1.678   3.709   3.036  0.1432  0.1271 -0.3583
 7311TIP3   OH243423   4.526   3.569  16.886 -0.4579  0.2622 -0.2961
 7311TIP3    H143424   4.504   3.476  16.893  1.6282 -0.1591  2.0955
 7311TIP3    H243425   4.458   3.606  16.829 -2.4554 -2.3520  0.2166
 7312TIP3   OH243426   4.028   5.352  10.674  0.5890 -0.5870  0.0114
 7312TIP3    H143427   4.071   5.433  10.645  0.3310 -0.6418 -0.5472
 7312TIP3    H243428   3.985   5.319  10.595  1.5681 -1.8343 -0.0256
 7313TIP3   OH243429   2.729   1.492  14.492  0.0854  0.2810  0.1994
 7313TIP3    H143430   2.811   1.541  14.505 -0.4878  0.8634  1.8899
 7313TIP3    H243431   2.676   1.549  14.436 -0.2140  1.2289  1.3923
 7314TIP3   OH243432   4.733   5.737  13.333 -0.5413 -0.6336  0.0676
 7314TIP3    H143433   4.774   5.783  13.406 -1.5876  0.8045 -0.1944
 7314TIP3    H243434   4.681   5.668  13.375 -0.6063 -0.2414  0.6500
 7315TIP3   OH243435   5.521   2.101   0.798  0.0629 -0.1298  0.6939
 7315TIP3    H143436   5.546   2.013   0.771  2.1649 -0.3647  3.0089
 7315TIP3    H243437   5.567   2.159   0.737 -0.9830 -0.5850 -0.5688
 7316TIP3   OH243438   3.493   4.841  13.546 -0.1995 -0.3256  0.3951
 7316TIP3    H143439   3.432   4.868  13.478  0.2158 -0.1762  0.0807
 7316TIP3    H243440   3.573   4.817  13.499 -0.5053 -2.0052  0.6683
 7317TIP3   OH243441   4.490   2.380  15.768  0.2204  0.7959  0.8105
 7317TIP3    H143442   4.555   2.322  15.809  0.2225 -0.7307 -1.1689
 7317TIP3    H243443   4.426   2.320  15.729  0.1184  2.1038 -1.1906
 7318TIP3   OH243444   2.229   3.600   4.673 -0.7330 -0.0575 -0.2721
 7318TIP3    H143445   2.180   3.671   4.632  0.6292  0.1327 -1.6420
 7318TIP3    H243446   2.300   3.643   4.721  0.6626 -0.4830 -1.8697
 7319TIP3   OH243447   3.655   2.173   4.337  0.0910  0.0667 -0.1830
 7319TIP3    H143448   3.617   2.259   4.321  0.3226  0.5072  1.5042
 7319TIP3    H243449   3.658   2.164   4.432  0.8281 -1.4717 -0.3092
 7320TIP3   OH243450   2.815   6.660  12.726 -0.2252 -0.5234 -0.4064
 7320TIP3    H143451   2.867   6.691  12.800 -1.4792 -0.3732  0.4375
 7320TIP3    H243452   2.858   6.699  12.650 -0.1631  1.0954  0.4057
 7321TIP3   OH243453   5.703   6.207   3.707 -0.3548 -0.5389 -0.0312
 7321TIP3    H143454   5.656   6.192   3.788 -1.8062  1.4774 -0.4303
 7321TIP3    H243455   5.643   6.178   3.638  0.0838 -0.4387 -0.4668
 7322TIP3   OH243456   0.576   2.718   4.530  0.0817 -0.3571  0.5181
 7322TIP3    H143457   0.595   2.752   4.442  1.8895  0.8749  1.3320
 7322TIP3    H243458   0.525   2.639   4.514 -0.3319  0.2743 -1.6122
 7323TIP3   OH243459   0.273   2.659   4.249  0.0575 -0.5332 -0.8528
 7323TIP3    H143460   0.199   2.618   4.203  0.6619  0.2366 -2.5899
 7323TIP3    H243461   0.339   2.671   4.182  0.1567  2.6929 -0.3321
 7324TIP3   OH243462   2.790   6.574  16.318 -0.0293 -0.1418 -0.0481
 7324TIP3    H143463   2.710   6.599  16.366  1.6085 -0.0133  2.8722
 7324TIP3    H243464   2.759   6.514  16.250 -2.5098 -1.3597  1.9526
 7325TIP3   OH243465   4.651   4.568   5.229 -0.4798 -0.1805  0.3882
 7325TIP3    H143466   4.623   4.501   5.167  1.9667  1.1346 -2.3730
 7325TIP3    H243467   4.728   4.531   5.272 -1.8588 -0.8766  2.4019
 7326TIP3   OH243468   2.992   2.044   3.302  0.1898  0.2539  0.0826
 7326TIP3    H143469   3.070   2.026   3.250  1.1231  0.2854  1.4081
 7326TIP3    H243470   2.955   1.958   3.321  0.7826  0.1256  0.7129
 7327TIP3   OH243471   2.033   4.261  14.025 -0.5636  0.3096 -0.1940
 7327TIP3    H143472   1.996   4.280  14.112  0.8953  1.0871  0.2983
 7327TIP3    H243473   2.126   4.282  14.034 -0.4775  0.9148 -2.1026
 7328TIP3   OH243474   1.430   1.074   1.622  0.4247 -0.4447 -0.0894
 7328TIP3    H143475   1.438   1.011   1.694  2.8472 -0.4132 -0.2502
 7328TIP3    H243476   1.380   1.147   1.659  0.2593 -1.1172  1.0616
 7329TIP3   OH243477   5.831   6.693   5.290  0.4801 -0.2373  0.3521
 7329TIP3    H143478   5.847   6.780   5.327 -0.5447  0.1908 -0.1633
 7329TIP3    H243479   5.744   6.700   5.251 -0.0840 -1.8194  1.2456
 7330TIP3   OH243480   6.077   3.538  15.818 -0.3166 -0.1078  0.2853
 7330TIP3    H143481   6.056   3.445  15.812  0.8986 -0.3681 -0.1792
 7330TIP3    H243482   6.082   3.568  15.728  0.4668  0.1230  0.3967
 7331TIP3   OH243483   2.350   4.874  11.442 -0.1712  0.0978 -0.8033
 7331TIP3    H143484   2.423   4.824  11.479 -0.1934  0.4873 -0.2299
 7331TIP3    H243485   2.380   4.899  11.355  0.7714  1.0662 -0.2216
 7332TIP3   OH243486   6.673   2.302  15.702 -0.0148  0.0961 -0.4089
 7332TIP3    H143487   6.596   2.273  15.652 -0.3475 -1.3965  0.8811
 7332TIP3    H243488   6.679   2.396  15.685 -0.2193 -0.2866 -3.0585
 7333TIP3   OH243489   1.407   3.386   1.988  0.0578  0.6770 -0.7547
 7333TIP3    H143490   1.326   3.395   1.939  0.7054  0.3619 -1.9256
 7333TIP3    H243491   1.473   3.431   1.935  0.7644  0.4226 -0.1198
 7334TIP3   OH243492   6.733   5.722  13.351  0.1609  0.4596  0.0678
 7334TIP3    H143493   6.710   5.630  13.367  1.7821 -0.8303 -3.7049
 7334TIP3    H243494   6.825   5.729  13.377  0.7060  0.2790 -1.6515
 7335TIP3   OH243495   3.984   4.847   3.929 -0.2674 -0.1712 -0.1887
 7335TIP3    H143496   3.908   4.854   3.987 -0.7077 -1.5165 -0.5709
 7335TIP3    H243497   4.019   4.759   3.946  0.7527  0.1476 -0.5731
 7336TIP3   OH243498   1.005   2.633   2.291  0.1475  0.4466 -0.3890
 7336TIP3    H143499   0.967   2.721   2.296  0.2876  0.5473 -1.0661
 7336TIP3    H243500   0.938   2.576   2.329  0.3434  0.9265  0.7096
 7337TIP3   OH243501   3.356   3.264  15.446  0.2390  0.1554  0.1071
 7337TIP3    H143502   3.316   3.185  15.408  1.9084 -1.9390  2.3904
 7337TIP3    H243503   3.283   3.326  15.453 -1.5833 -1.8464 -0.0632
 7338TIP3   OH243504   4.493   3.717   5.060  0.2350 -0.1230 -0.7778
 7338TIP3    H143505   4.529   3.678   5.140 -0.1549 -0.2984 -0.6881
 7338TIP3    H243506   4.424   3.775   5.091  1.6375  1.6450 -0.7974
 7339TIP3   OH243507   1.998   3.811  17.001  0.0465  0.3691  0.1926
 7339TIP3    H143508   1.926   3.867  17.031  0.0054  0.0678  0.6694
 7339TIP3    H243509   2.071   3.834  17.059  0.5441  1.1479 -0.7081
 7340TIP3   OH243510   1.222   2.685  12.284 -0.3922 -0.4368  0.7020
 7340TIP3    H143511   1.308   2.719  12.310 -0.0103 -1.3957  0.7453
 7340TIP3    H243512   1.228   2.591  12.301 -1.0689 -0.6806 -0.3216
 7341TIP3   OH243513   1.717   6.254  16.121  0.4237  0.1045  0.3623
 7341TIP3    H143514   1.633   6.209  16.127 -0.0076  1.0672  1.7959
 7341TIP3    H243515   1.701   6.342  16.154  0.9160  1.9121 -3.6189
 7342TIP3   OH243516   1.615   6.653  15.250 -0.2533  0.4326  0.3601
 7342TIP3    H143517   1.521   6.675  15.253 -0.2616  0.3692  0.6346
 7342TIP3    H243518   1.649   6.687  15.333 -0.3058 -0.7701  0.8854
 7343TIP3   OH243519   1.657   5.027  12.130  0.0474 -0.1608 -0.1272
 7343TIP3    H143520   1.726   4.966  12.157  1.5230  0.7962 -1.5478
 7343TIP3    H243521   1.686   5.111  12.166 -1.4385 -0.0813  0.9477
 7344TIP3   OH243522   3.612   4.107   3.982  0.4075 -0.5328 -0.7381
 7344TIP3    H143523   3.692   4.092   3.931  0.1924 -0.0811 -1.2130
 7344TIP3    H243524   3.613   4.201   4.000 -0.3511 -0.4073 -1.3132
 7345TIP3   OH243525   6.430   3.833   4.874 -0.0126 -0.3354  0.1052
 7345TIP3    H143526   6.484   3.818   4.796 -0.1655  0.5479 -0.1832
 7345TIP3    H243527   6.380   3.912   4.853 -0.3061 -0.2847  0.9735
 7346TIP3   OH243528   4.995   3.346  13.049  0.2768 -0.0445  0.3603
 7346TIP3    H143529   4.911   3.353  13.095  0.4971  1.6264  0.5870
 7346TIP3    H243530   5.052   3.300  13.110 -0.5049 -1.3905  0.1183
 7347TIP3   OH243531   3.868   1.550   0.987 -0.2666  0.1193  1.1036
 7347TIP3    H143532   3.829   1.486   1.046  1.4546 -2.0000  0.0656
 7347TIP3    H243533   3.961   1.528   0.985  0.1938  1.9203 -0.2191
 7348TIP3   OH243534   5.900   0.897  11.132  0.0979  0.0348 -0.9849
 7348TIP3    H143535   5.858   0.815  11.104  0.3717 -1.3168  2.1270
 7348TIP3    H243536   5.987   0.894  11.093  0.3117 -1.4926 -0.4583
 7349TIP3   OH243537   4.813   2.053  16.640 -0.4944 -0.4131  0.0896
 7349TIP3    H143538   4.750   2.063  16.569 -0.1484 -1.2427 -0.3422
 7349TIP3    H243539   4.781   2.111  16.709 -2.5895 -1.9270  0.4748
 7350TIP3   OH243540   0.839   3.854   2.359  0.0341  0.1739 -0.3854
 7350TIP3    H143541   0.824   3.883   2.449  1.6731 -0.3109  0.0740
 7350TIP3    H243542   0.837   3.759   2.363  0.8976  0.1321 -0.7054
 7351TIP3   OH243543   2.144   2.897   6.460 -0.0027  0.0242  0.0588
 7351TIP3    H143544   2.059   2.853   6.450  0.4541 -0.8505 -0.0765
 7351TIP3    H243545   2.187   2.885   6.375  0.7350 -0.5855  0.5019
 7352TIP3   OH243546   1.870   3.167   0.892 -0.1954  0.0589  0.6961
 7352TIP3    H143547   1.794   3.153   0.949 -1.1747 -0.5291 -0.6835
 7352TIP3    H243548   1.912   3.081   0.888  1.2039  0.6185  2.2884
 7353TIP3   OH243549   4.170   5.313  14.311 -0.5554  0.5924 -0.1334
 7353TIP3    H143550   4.089   5.362  14.326 -0.3880  1.2552 -1.2955
 7353TIP3    H243551   4.227   5.340  14.383 -1.0324  0.8547  0.1546
 7354TIP3   OH243552   3.507   0.757   1.390  0.3811 -0.1831 -0.3629
 7354TIP3    H143553   3.460   0.704   1.327 -0.7650  0.8433 -0.4113
 7354TIP3    H243554   3.541   0.831   1.340  2.2756 -0.9974 -0.3708
 7355TIP3   OH243555   0.028   1.358   4.387 -0.5608  0.3244  0.1683
 7355TIP3    H143556  -0.050   1.414   4.392 -0.9628 -0.2360  0.1877
 7355TIP3    H243557   0.012   1.288   4.450 -0.1386  0.0875  0.0148
 7356TIP3   OH243558   5.006   2.774  17.136  0.6442 -0.0135  0.2755
 7356TIP3    H143559   5.027   2.813  17.051  1.6421 -0.2286  0.4116
 7356TIP3    H243560   4.974   2.848  17.189 -0.6446  0.0000 -0.4827
 7357TIP3   OH243561   6.429   1.821  14.349  0.7678 -0.2321 -0.0683
 7357TIP3    H143562   6.461   1.866  14.271 -0.8446 -0.7102 -1.0505
 7357TIP3    H243563   6.506   1.811  14.404  1.6426  1.5583 -0.8740
 7358TIP3   OH243564   2.148   0.269  11.907  0.5749  0.3601 -0.1120
 7358TIP3    H143565   2.146   0.305  11.996 -1.1255  0.5374 -0.2055
 7358TIP3    H243566   2.162   0.345  11.851  1.9985  0.2073 -0.0064
 7359TIP3   OH243567   2.909   5.920  16.309 -0.0266  0.1615  0.1471
 7359TIP3    H143568   2.917   5.920  16.405 -1.8137  0.8217  0.3292
 7359TIP3    H243569   2.994   5.950  16.278  0.6069 -0.1176  1.5130
 7360TIP3   OH243570   3.255   1.301   2.898 -0.3105  0.0303  0.2681
 7360TIP3    H143571   3.305   1.331   2.974 -0.3577  0.3911  0.1612
 7360TIP3    H243572   3.270   1.369   2.832 -2.1325  0.9392  0.7181
 7361TIP3   OH243573   0.470   1.942  10.627 -0.2294  0.6487 -0.5900
 7361TIP3    H143574   0.405   1.913  10.563 -2.1624  1.2644  1.0133
 7361TIP3    H243575   0.465   2.037  10.625  0.0097  0.6787  0.1671
 7362TIP3   OH243576   5.015   5.462  15.342  0.0804  0.3870  0.0897
 7362TIP3    H143577   5.056   5.433  15.260  1.2902 -1.2693  1.2213
 7362TIP3    H243578   4.934   5.411  15.347  1.2844 -1.5712  1.1388
 7363TIP3   OH243579   1.849   6.084  14.904 -0.6582 -0.0356  0.3038
 7363TIP3    H143580   1.834   6.124  14.990  0.4938  1.9065 -0.3292
 7363TIP3    H243581   1.937   6.048  14.909 -1.2307 -1.5072  0.4525
 7364TIP3   OH243582   2.478   3.703   4.236  0.0344 -0.2567  0.3262
 7364TIP3    H143583   2.519   3.728   4.153 -0.5385  0.6282  0.3009
 7364TIP3    H243584   2.517   3.762   4.300 -1.2545  0.6763  0.2850
 7365TIP3   OH243585   3.617   0.476  15.875  0.1309  0.2005  0.1571
 7365TIP3    H143586   3.696   0.530  15.881  0.1686  0.5235 -2.1499
 7365TIP3    H243587   3.635   0.415  15.804 -1.3348 -0.3633  0.2342
 7366TIP3   OH243588   5.172   3.365   0.635 -0.3611 -0.3282 -0.1960
 7366TIP3    H143589   5.119   3.400   0.706 -0.3977  0.6120 -0.6815
 7366TIP3    H243590   5.124   3.385   0.555 -1.6517 -3.6605 -0.4321
 7367TIP3   OH243591   4.673   6.701   0.204  0.3602  0.0995 -0.2586
 7367TIP3    H143592   4.630   6.641   0.144  2.8346 -2.5460  0.3829
 7367TIP3    H243593   4.670   6.656   0.289  0.4585  1.8953  0.7493
 7368TIP3   OH243594   5.623   4.789   1.983  0.2662 -0.4965 -0.3507
 7368TIP3    H143595   5.660   4.870   2.019  2.3158 -1.6540  0.3052
 7368TIP3    H243596   5.643   4.793   1.890 -0.5397  0.2043 -0.4993
 7369TIP3   OH243597   2.187   1.145  10.456 -0.0100 -0.1694  0.2511
 7369TIP3    H143598   2.111   1.202  10.442 -0.3167 -0.4229  0.8610
 7369TIP3    H243599   2.149   1.058  10.469  0.5135 -0.8066 -2.0840
 7370TIP3   OH243600   6.024   5.784  15.179 -0.0714  0.2038  0.6138
 7370TIP3    H143601   6.093   5.733  15.135  1.0292  2.5219 -0.5065
 7370TIP3    H243602   6.053   5.791  15.269  0.1950 -0.3801  0.5822
 7371TIP3   OH243603   3.520   5.888  16.889  0.2118 -0.2350  0.2488
 7371TIP3    H143604   3.429   5.861  16.881  0.0607 -0.2599  1.8460
 7371TIP3    H243605   3.566   5.810  16.921  0.6680 -0.0144  0.1412
 7372TIP3   OH243606   2.617   5.519   3.668 -0.5733  0.7497  0.6830
 7372TIP3    H143607   2.547   5.524   3.733 -0.9108 -3.0065  0.8559
 7372TIP3    H243608   2.680   5.457   3.705  1.3801  1.7246 -0.7968
 7373TIP3   OH243609   3.339   4.512   5.406 -0.2845 -0.3646  0.2899
 7373TIP3    H143610   3.258   4.464   5.422 -0.4046  0.0667  1.0158
 7373TIP3    H243611   3.350   4.510   5.311 -0.4252 -1.5937  0.2861
 7374TIP3   OH243612   4.062   6.769   4.806  0.3230  0.3656 -0.3811
 7374TIP3    H143613   4.063   6.844   4.747 -1.4711  0.7043 -0.0381
 7374TIP3    H243614   4.149   6.731   4.799  0.3810  0.8283 -2.6790
 7375TIP3   OH243615   6.728   5.927  15.328 -0.1662  0.9125  0.4001
 7375TIP3    H143616   6.757   6.013  15.297  0.7914  0.7446  0.7908
 7375TIP3    H243617   6.800   5.896  15.382  0.1530 -0.7879 -0.9365
 7376TIP3   OH243618   4.384   5.858  11.804  0.6081  0.5957  0.4383
 7376TIP3    H143619   4.477   5.865  11.827  0.3159 -0.6387  2.1120
 7376TIP3    H243620   4.380   5.890  11.714  2.6887  0.5184  0.2679
 7377TIP3   OH243621   6.461   5.165   3.929 -0.0135 -0.2346 -0.4421
 7377TIP3    H143622   6.418   5.162   4.014  2.3960  0.4909  0.9096
 7377TIP3    H243623   6.476   5.259   3.914  0.4059 -0.4203 -1.2214
 7378TIP3   OH243624   6.185   0.389  14.256 -0.2560 -0.2941  0.3152
 7378TIP3    H143625   6.101   0.383  14.302 -0.2501 -1.1258  0.2293
 7378TIP3    H243626   6.243   0.434  14.319 -0.8840  0.7329  0.1804
 7379TIP3   OH243627   2.834   3.713   2.116  0.6463  0.2013 -0.2094
 7379TIP3    H143628   2.925   3.742   2.121  0.0755  1.8948  1.9748
 7379TIP3    H243629   2.784   3.782   2.160 -1.4620 -1.6562  0.5017
 7380TIP3   OH243630   5.963   2.463  13.006  0.1232 -0.1396 -0.5699
 7380TIP3    H143631   5.891   2.526  13.009 -0.2659 -0.5818 -0.6954
 7380TIP3    H243632   6.036   2.509  13.048  0.0636  0.6876 -1.3410
 7381TIP3   OH243633   0.202   1.280  11.354  0.8653 -0.1950  0.3850
 7381TIP3    H143634   0.263   1.209  11.332  1.7256  0.7341 -0.3506
 7381TIP3    H243635   0.117   1.249  11.322  1.5763 -0.0886 -1.7881
 7382TIP3   OH243636   1.007   3.646  15.397  0.1099 -0.0725 -0.1819
 7382TIP3    H143637   1.041   3.714  15.456  0.6901  0.3913 -1.0228
 7382TIP3    H243638   1.045   3.668  15.312 -1.0252 -0.5016 -0.8121
 7383TIP3   OH243639   4.340   3.996   3.500 -0.0268  0.3446  0.2443
 7383TIP3    H143640   4.265   4.049   3.472 -0.4729 -1.1684 -1.6796
 7383TIP3    H243641   4.409   4.060   3.515 -1.5310  1.7436  1.5904
 7384TIP3   OH243642   1.626   4.529  12.337  0.1941  0.3262  0.2456
 7384TIP3    H143643   1.568   4.565  12.270  0.2176 -2.4261 -1.3928
 7384TIP3    H243644   1.569   4.471  12.388  0.7465  0.4029  0.9548
 7385TIP3   OH243645   1.538   5.041   1.295 -0.1444 -0.1978 -0.1483
 7385TIP3    H143646   1.523   5.074   1.383  0.4961  1.2802 -0.5577
 7385TIP3    H243647   1.520   5.115   1.238 -2.3983 -1.6354 -1.4357
 7386TIP3   OH243648   0.469   0.793  15.083  0.5502 -0.3758  0.4324
 7386TIP3    H143649   0.564   0.778  15.081  1.0019  1.8773 -1.8097
 7386TIP3    H243650   0.461   0.888  15.089 -1.4235 -0.2548 -2.1664
 7387TIP3   OH243651   2.730   3.820  13.999  0.6202  0.9672 -0.2039
 7387TIP3    H143652   2.792   3.886  13.969  1.3925  0.0322 -0.7283
 7387TIP3    H243653   2.742   3.818  14.094  1.2085  0.9807 -0.2724
 7388TIP3   OH243654   0.243   1.482  12.804 -0.0883  0.3801  0.1406
 7388TIP3    H143655   0.158   1.438  12.800  0.9639 -2.0418  1.9735
 7388TIP3    H243656   0.270   1.473  12.895  2.3235  0.7326 -0.4780
 7389TIP3   OH243657   6.227   0.958   3.147 -0.4661 -0.3033  0.1435
 7389TIP3    H143658   6.258   0.976   3.235  0.4021  1.2213 -0.4312
 7389TIP3    H243659   6.170   1.032   3.125 -0.2366 -0.3749 -0.7605
 7390TIP3   OH243660   1.487   1.113  15.791  0.0655 -0.5266  0.2072
 7390TIP3    H143661   1.537   1.183  15.834 -2.6838  2.1937 -0.6727
 7390TIP3    H243662   1.438   1.158  15.721 -3.4212 -2.9227  0.8653
 7391TIP3   OH243663   1.901   2.819   3.076  0.4438 -0.2924  0.0364
 7391TIP3    H143664   1.915   2.815   3.171  2.6703  2.4165 -0.0313
 7391TIP3    H243665   1.838   2.889   3.063 -1.2198 -1.8170 -0.4804
 7392TIP3   OH243666   0.574   3.604  16.593  0.0141  0.1342  0.3653
 7392TIP3    H143667   0.587   3.555  16.675 -1.1142 -1.4048 -0.3316
 7392TIP3    H243668   0.492   3.651  16.606 -0.5468 -0.6898 -0.1324
 7393TIP3   OH243669   4.875   3.624   2.509 -0.6472 -0.1871  0.0917
 7393TIP3    H143670   4.852   3.587   2.424 -1.2259  1.7624 -0.6631
 7393TIP3    H243671   4.798   3.608   2.564 -0.9336 -0.0197 -0.2545
 7394TIP3   OH243672   3.284   5.812   3.585 -0.1869 -0.6343 -0.1460
 7394TIP3    H143673   3.327   5.855   3.659  1.4236 -2.5542  0.1542
 7394TIP3    H243674   3.238   5.738   3.624 -2.1172  0.1998 -0.7369
 7395TIP3   OH243675   2.806   0.792   0.071 -0.4199 -0.2664 -0.3215
 7395TIP3    H143676   2.723   0.797   0.025 -0.1679  1.0276 -0.6790
 7395TIP3    H243677   2.792   0.842   0.152  0.0529  0.0770 -0.4494
 7396TIP3   OH243678   3.522   4.223  14.788 -0.2381  0.0856 -0.0094
 7396TIP3    H143679   3.434   4.256  14.772 -0.1672 -0.0055 -0.6317
 7396TIP3    H243680   3.556   4.278  14.858 -0.7030  0.2811  0.0654
 7397TIP3   OH243681   1.674   1.251  15.945  0.4558 -0.1196 -0.2452
 7397TIP3    H143682   1.673   1.344  15.967  0.8345 -0.4481  1.3178
 7397TIP3    H243683   1.686   1.207  16.029  1.7496 -1.5296 -1.1162
 7398TIP3   OH243684   4.376   1.041   4.527 -0.2564 -0.1010  0.0977
 7398TIP3    H143685   4.410   1.111   4.472  0.9615  0.0444  1.0122
 7398TIP3    H243686   4.432   0.966   4.508 -0.2680 -0.2459  0.6160
 7399TIP3   OH243687   4.079   3.895   2.842  0.3143  0.0860 -0.1650
 7399TIP3    H143688   4.085   3.990   2.854  0.4071 -0.0946  1.3828
 7399TIP3    H243689   4.169   3.866   2.836  0.2740  0.1749 -1.5825
 7400TIP3   OH243690   1.644   3.260  16.843 -0.5828 -0.3748  0.1836
 7400TIP3    H143691   1.692   3.190  16.799 -1.4174 -1.0327  0.2980
 7400TIP3    H243692   1.612   3.221  16.924 -3.7394 -0.9193 -1.1621
 7401TIP3   OH243693   5.441   2.534   2.131 -0.5873  0.0169 -0.8371
 7401TIP3    H143694   5.498   2.582   2.190  0.0740 -1.4932 -0.2031
 7401TIP3    H243695   5.446   2.582   2.048 -0.0926  1.1103 -0.1896
 7402TIP3   OH243696   3.980   3.252   3.928 -0.0232  0.6370  0.3501
 7402TIP3    H143697   3.917   3.322   3.910  0.0289  0.9802  1.4669
 7402TIP3    H243698   3.989   3.251   4.023  2.6208  1.4588  0.2043
 7403TIP3   OH243699   5.787   1.443   5.590 -0.4182 -0.2742 -0.1670
 7403TIP3    H143700   5.878   1.433   5.619  0.3487  1.3425 -1.8122
 7403TIP3    H243701   5.752   1.512   5.646 -0.4816 -0.5629  0.1503
 7404TIP3   OH243702   1.826   5.200  14.894 -0.2764 -0.3778  0.1216
 7404TIP3    H143703   1.861   5.134  14.954  0.1260 -1.1425 -0.9225
 7404TIP3    H243704   1.812   5.277  14.949 -0.2329 -1.1537  1.2572
 7405TIP3   OH243705   0.806   2.031  10.932  0.4788 -0.3845  0.0951
 7405TIP3    H143706   0.901   2.040  10.926  0.4166 -0.6335 -2.0902
 7405TIP3    H243707   0.772   2.117  10.906  0.1019 -0.2503  1.0037
 7406TIP3   OH243708   0.546   0.293   2.249 -0.1551 -0.1348 -0.2690
 7406TIP3    H143709   0.620   0.256   2.199  0.3653 -0.7023  0.8787
 7406TIP3    H243710   0.557   0.388   2.242  0.8428 -0.2093  0.0812
 7407TIP3   OH243711   2.609   2.133  16.645  0.6259 -0.0579 -0.4117
 7407TIP3    H143712   2.651   2.049  16.665 -1.0742 -1.1675 -1.2450
 7407TIP3    H243713   2.538   2.110  16.585 -0.6480  1.8364  0.2862
 7408TIP3   OH243714   1.032   5.209  14.415  0.0531 -0.0896  0.1808
 7408TIP3    H143715   0.962   5.262  14.377  0.3759  0.4669  0.3519
 7408TIP3    H243716   1.064   5.155  14.342 -1.7573 -1.7122  0.4943
 7409TIP3   OH243717   2.101   4.761  15.006  0.1274 -0.8962 -0.3591
 7409TIP3    H143718   2.134   4.790  15.091  1.8670  0.2451 -1.3611
 7409TIP3    H243719   2.042   4.689  15.027  1.2786 -1.3214  1.7498
 7410TIP3   OH243720   1.011   6.648  12.014  0.2889 -0.0856 -0.5678
 7410TIP3    H143721   0.954   6.724  12.016 -1.3686 -1.2569  1.4754
 7410TIP3    H243722   0.951   6.573  12.008  1.7321 -1.3106 -0.4908
 7411TIP3   OH243723   0.852   5.737  14.513 -0.3598  0.1213 -0.1860
 7411TIP3    H143724   0.761   5.737  14.542 -0.5965  0.0117 -0.9208
 7411TIP3    H243725   0.893   5.807  14.564 -0.9097  0.3327 -0.0249
 7412TIP3   OH243726   5.849   1.773  16.330  0.0138  0.3188  0.0608
 7412TIP3    H143727   5.890   1.730  16.255  0.6465  0.0747  0.5290
 7412TIP3    H243728   5.923   1.806  16.381 -0.2962 -1.0074  1.4476
 7413TIP3   OH243729   0.275   4.048   0.742  0.1384  0.2642 -0.1710
 7413TIP3    H143730   0.291   3.958   0.771  1.2530 -0.1125 -1.8322
 7413TIP3    H243731   0.235   4.091   0.818 -1.5097 -1.9221  0.2876
 7414TIP3   OH243732   2.213   0.220  16.342  0.2684 -0.4055  0.1685
 7414TIP3    H143733   2.231   0.144  16.397 -0.7619 -0.3851  0.5574
 7414TIP3    H243734   2.300   0.258  16.324  0.7461 -1.3696  0.3862
 7415TIP3   OH243735   1.566   3.512   0.472 -0.3335  0.0935  0.0023
 7415TIP3    H143736   1.632   3.573   0.440 -1.3967  0.8094 -0.9257
 7415TIP3    H243737   1.577   3.435   0.416 -0.7729  0.5181 -0.6963
 7416TIP3   OH243738   4.169   0.918  13.760 -0.4885  0.0994  0.3854
 7416TIP3    H143739   4.188   1.011  13.771 -2.7144  0.5709  0.6808
 7416TIP3    H243740   4.083   0.916  13.718 -0.3630 -1.8259  0.1468
 7417TIP3   OH243741   5.225   0.999   5.138  0.2375 -0.8334 -0.0014
 7417TIP3    H143742   5.153   1.062   5.130  0.8879  0.0381  0.7818
 7417TIP3    H243743   5.181   0.916   5.156 -0.6162 -0.5185 -0.5537
 7418TIP3   OH243744   0.433   3.873   2.435 -0.4794 -0.0062  0.1238
 7418TIP3    H143745   0.400   3.784   2.448  0.1213 -0.0665  1.3286
 7418TIP3    H243746   0.438   3.910   2.523 -0.6415  1.1963 -0.3606
 7419TIP3   OH243747   2.418   1.490   1.200  0.9241 -0.1049 -0.7207
 7419TIP3    H143748   2.425   1.431   1.125 -1.0040 -0.2048 -0.8730
 7419TIP3    H243749   2.391   1.574   1.163  0.4972 -0.0085 -0.2071
 7420TIP3   OH243750   3.165   2.909  11.483  0.0709  0.2437  0.3738
 7420TIP3    H143751   3.220   2.910  11.405 -0.5799  0.8033 -0.0858
 7420TIP3    H243752   3.213   2.856  11.546  1.0414  0.5638 -0.0884
 7421TIP3   OH243753   3.967   0.303  13.072 -0.3724 -0.0431 -0.5851
 7421TIP3    H143754   4.060   0.328  13.069  0.2953 -2.3400 -1.6247
 7421TIP3    H243755   3.965   0.228  13.131 -1.7468  0.4863  0.0759
 7422TIP3   OH243756   4.678   0.614  12.095  0.2497 -0.3284  0.8922
 7422TIP3    H143757   4.623   0.613  12.017  0.8269 -2.3230  0.4562
 7422TIP3    H243758   4.623   0.653  12.163 -0.3280  1.2881 -0.4270
 7423TIP3   OH243759   5.468   3.739  12.462  0.0750 -0.0979 -0.3890
 7423TIP3    H143760   5.398   3.696  12.413 -0.6199  1.3116 -0.7024
 7423TIP3    H243761   5.545   3.731  12.406 -0.7689  1.7139 -1.9169
 7424TIP3   OH243762   0.717   2.308   1.306  0.7690  0.3909 -0.4860
 7424TIP3    H143763   0.688   2.396   1.329  0.4963  0.3385 -0.6183
 7424TIP3    H243764   0.812   2.315   1.296  0.6983  0.7759 -0.9476
 7425TIP3   OH243765   6.794   0.042   2.715  0.7554  0.2002 -0.1860
 7425TIP3    H143766   6.737   0.093   2.773 -0.5981 -1.0061 -0.3772
 7425TIP3    H243767   6.881   0.047   2.755 -0.2123 -1.0542  2.3429
 7426TIP3   OH243768   3.309   0.887   4.947 -0.0451 -0.4860 -0.6584
 7426TIP3    H143769   3.343   0.973   4.972  0.8518 -0.9028 -0.4302
 7426TIP3    H243770   3.265   0.903   4.863  1.2875 -0.0539 -1.2984
 7427TIP3   OH243771   4.158   0.214  16.606 -0.2817 -0.4993 -0.1184
 7427TIP3    H143772   4.158   0.234  16.700  2.0527 -0.2980 -0.1029
 7427TIP3    H243773   4.159   0.300  16.563 -0.0709 -0.5907 -0.2971
 7428TIP3   OH243774   2.553   6.400   0.069  0.0481  0.0282 -0.1372
 7428TIP3    H143775   2.553   6.378   0.162 -1.2326  1.6061  0.3025
 7428TIP3    H243776   2.634   6.363   0.035  1.0985  0.3683  1.8482
 7429TIP3   OH243777   6.251   5.024  10.775  0.4692 -0.5384  0.0290
 7429TIP3    H143778   6.191   4.978  10.833 -0.4493 -0.3146 -0.7102
 7429TIP3    H243779   6.240   4.982  10.690 -2.2047  2.3893 -1.3133
 7430TIP3   OH243780   1.004   6.124   0.154 -0.4183 -0.1007  0.0903
 7430TIP3    H143781   1.011   6.202   0.099  0.3192 -0.5331 -0.4332
 7430TIP3    H243782   1.094   6.098   0.172 -0.6520 -1.0014  0.0188
 7431TIP3   OH243783   4.758   1.775   3.833  0.1901 -0.2453 -0.2934
 7431TIP3    H143784   4.803   1.760   3.917 -1.3452 -1.4694  0.3528
 7431TIP3    H243785   4.726   1.865   3.840 -0.8459 -0.6716  0.9306
 7432TIP3   OH243786   5.871   4.254  15.004 -0.4965  0.5028  0.5159
 7432TIP3    H143787   5.781   4.222  15.009 -0.5174  0.4997  0.0970
 7432TIP3    H243788   5.862   4.349  14.999 -0.4756  0.5012  0.4488
 7433TIP3   OH243789   6.767   1.963  14.063 -0.0465 -0.1301  0.1427
 7433TIP3    H143790   6.830   1.908  14.016 -1.1745 -0.9399 -0.4908
 7433TIP3    H243791   6.789   2.052  14.038 -0.4059 -0.5229 -1.7257
 7434TIP3   OH243792   5.371   0.040   1.245 -0.0500  0.5838  0.4829
 7434TIP3    H143793   5.456  -0.005   1.242 -0.4185 -0.1109  0.4059
 7434TIP3    H243794   5.355   0.066   1.154 -0.0284  0.5209  0.4611
 7435TIP3   OH243795   2.815   0.263   1.541 -0.7021 -0.2185  0.4609
 7435TIP3    H143796   2.746   0.301   1.487 -0.9688 -0.0253  0.9254
 7435TIP3    H243797   2.805   0.169   1.531 -0.9909 -0.1900  0.4735
 7436TIP3   OH243798   4.342   3.638  12.615  0.0361  0.1864 -0.0209
 7436TIP3    H143799   4.401   3.662  12.543  0.4133 -1.2699 -0.2293
 7436TIP3    H243800   4.296   3.561  12.584 -1.1713  0.6347  0.5974
 7437TIP3   OH243801   4.045   3.889   0.785  0.2609  0.3488 -0.5628
 7437TIP3    H143802   3.958   3.904   0.822  0.0786 -1.3782 -0.2055
 7437TIP3    H243803   4.105   3.927   0.850 -0.1867  1.6220 -0.8504
 7438TIP3   OH243804   2.467   0.823  16.681  0.5794  0.0853 -0.1479
 7438TIP3    H143805   2.418   0.747  16.711  0.6137  0.0922 -0.0751
 7438TIP3    H243806   2.553   0.814  16.723  0.5580  0.2043 -0.0807
 7439TIP3   OH243807   2.739   2.506   5.847 -0.3082  0.2226  0.0741
 7439TIP3    H143808   2.663   2.447   5.852 -3.1317  3.1017 -3.3473
 7439TIP3    H243809   2.751   2.537   5.937 -3.0557 -0.5351  0.8031
 7440TIP3   OH243810   1.377   0.102  11.529 -0.3054  0.2646 -0.1756
 7440TIP3    H143811   1.433   0.030  11.557  0.3887  0.5327 -0.8295
 7440TIP3    H243812   1.312   0.061  11.472  0.8745  0.3030 -1.6121
 7441TIP3   OH243813   2.991   1.511   3.119 -0.6524 -0.0323 -0.3558
 7441TIP3    H143814   3.078   1.552   3.124 -0.4039 -0.4099 -1.2561
 7441TIP3    H243815   2.988   1.451   3.193 -0.7949  1.1560  0.6425
 7442TIP3   OH243816   0.059   1.693  11.375 -0.1497  0.4774 -0.3008
 7442TIP3    H143817   0.143   1.740  11.375  1.0611 -1.5278  1.2012
 7442TIP3    H243818  -0.005   1.759  11.351  1.7630  2.2891 -0.7105
 7443TIP3   OH243819   5.111   2.001  15.941 -0.1570  0.0210 -0.1225
 7443TIP3    H143820   5.110   1.949  16.022  0.6577 -2.2584 -1.4936
 7443TIP3    H243821   5.203   2.026  15.929  0.7162 -3.6058 -2.5843
 7444TIP3   OH243822   2.219   5.757   5.136  0.1385  0.1413 -0.1888
 7444TIP3    H143823   2.269   5.699   5.194  0.8250  0.8831 -0.0207
 7444TIP3    H243824   2.156   5.699   5.093  1.2240 -0.8503 -0.4978
 7445TIP3   OH243825   5.775   6.464   0.954  0.3805 -0.2319  0.1612
 7445TIP3    H143826   5.845   6.469   1.019  2.0699 -0.2081 -1.5661
 7445TIP3    H243827   5.820   6.443   0.872 -1.6509 -0.2164 -1.0203
 7446TIP3   OH243828   1.944   2.115   5.667 -0.0026 -0.3599 -0.1929
 7446TIP3    H143829   2.008   2.066   5.616  0.1013  0.4989 -0.9117
 7446TIP3    H243830   1.877   2.142   5.604 -0.6437 -0.5283  0.3984
 7447TIP3   OH243831   3.925   1.956  16.937  0.0183 -0.1887 -0.3975
 7447TIP3    H143832   3.943   2.003  16.856 -0.5705  1.0746  0.1798
 7447TIP3    H243833   3.979   1.877  16.931 -0.0058 -0.1184 -2.0014
 7448TIP3   OH243834   5.303   0.027   0.969  1.1835 -0.1127  0.1804
 7448TIP3    H143835   5.224  -0.025   0.980  1.0711  0.2815  1.4588
 7448TIP3    H243836   5.347  -0.011   0.893 -0.0007 -0.6196 -0.2727
 7449TIP3   OH243837   1.547   4.790   2.885 -0.4376 -0.2226 -0.1894
 7449TIP3    H143838   1.608   4.839   2.830 -0.4244 -0.7366 -0.6490
 7449TIP3    H243839   1.470   4.847   2.892  0.4134  0.8109  1.1327
 7450TIP3   OH243840   6.236   2.247   2.347 -0.2242  0.4686 -0.3403
 7450TIP3    H143841   6.245   2.179   2.281 -1.0195  1.3482 -1.4041
 7450TIP3    H243842   6.202   2.202   2.425 -1.1498 -0.2819 -1.1576
 7451TIP3   OH243843   2.090   1.834  13.525 -0.5737  0.1348 -0.4699
 7451TIP3    H143844   1.997   1.821  13.541 -0.2857 -0.9339  0.4030
 7451TIP3    H243845   2.120   1.752  13.485  0.2833 -0.0984  0.6138
 7452TIP3   OH243846   0.605   1.033   2.787 -0.1414  0.2331 -0.0062
 7452TIP3    H143847   0.580   1.111   2.737 -0.0148  0.0650 -0.3308
 7452TIP3    H243848   0.580   1.054   2.877 -2.5425 -0.3625 -0.4684
 7453TIP3   OH243849   2.937   3.431   3.518 -0.7947  0.2956  0.0543
 7453TIP3    H143850   3.019   3.480   3.514 -0.4673 -0.2390  0.0028
 7453TIP3    H243851   2.870   3.493   3.491 -0.5014  0.9410  0.8061
 7454TIP3   OH243852   2.980   1.742   4.822 -0.2727 -0.3110  0.0192
 7454TIP3    H143853   2.975   1.764   4.915  1.7076 -0.4585  0.2027
 7454TIP3    H243854   2.951   1.821   4.777 -0.5371  0.0250  0.7626
 7455TIP3   OH243855   3.326   6.787   3.158 -0.3774 -0.0098  0.4459
 7455TIP3    H143856   3.390   6.856   3.144 -0.2049 -0.5346 -1.7175
 7455TIP3    H243857   3.369   6.725   3.217 -0.5011  1.6049  2.3320
 7456TIP3   OH243858   2.227   6.641  15.824  0.5008 -0.7641  0.2798
 7456TIP3    H143859   2.195   6.636  15.735  0.8446 -0.1832  0.1198
 7456TIP3    H243860   2.264   6.729  15.832 -0.4539 -0.4361  1.3097
 7457TIP3   OH243861   4.917   5.498   2.796  0.1700 -0.4250  0.4499
 7457TIP3    H143862   4.990   5.484   2.736  0.6751 -1.0637  1.2003
 7457TIP3    H243863   4.841   5.513   2.739  0.7734 -0.3094 -0.3349
 7458TIP3   OH243864   4.019   2.045   1.475 -0.1972 -0.3807  0.0850
 7458TIP3    H143865   4.086   2.025   1.409  0.6727  2.7625 -0.1072
 7458TIP3    H243866   4.069   2.067   1.554 -0.9055  1.9988 -0.0560
 7459TIP3   OH243867   2.196   5.365   3.798 -0.2718 -0.2532 -0.2029
 7459TIP3    H143868   2.113   5.409   3.817 -0.2248 -0.3759  0.3168
 7459TIP3    H243869   2.178   5.312   3.720 -0.1067  1.2866 -1.3405
 7460TIP3   OH243870   0.153   5.373  16.777 -0.2273  0.9330 -0.1285
 7460TIP3    H143871   0.104   5.431  16.834 -1.1115 -1.8936  2.2780
 7460TIP3    H243872   0.088   5.338  16.715 -0.4373  0.1389  0.5227
 7461TIP3   OH243873   2.909   2.968   2.074  0.3506  0.0935  0.3110
 7461TIP3    H143874   2.857   3.031   2.025 -0.3789  0.4253  1.4608
 7461TIP3    H243875   2.993   3.012   2.089 -0.0073  0.6453  0.7499
 7462TIP3   OH243876   4.316   3.602   5.848  0.1118  0.4781 -0.6088
 7462TIP3    H143877   4.349   3.603   5.938 -0.1348 -2.0959 -0.4180
 7462TIP3    H243878   4.226   3.636   5.855  0.2407  0.6958  0.0294
 7463TIP3   OH243879   0.525   5.088   3.903  0.3479  0.1721 -0.0033
 7463TIP3    H143880   0.538   5.178   3.874  4.2607  0.1411  1.0750
 7463TIP3    H243881   0.571   5.035   3.838 -0.0529 -0.8647  0.5378
 7464TIP3   OH243882   5.035   6.654   1.392 -0.0774  0.3832 -0.0088
 7464TIP3    H143883   4.947   6.641   1.428 -1.0581 -0.9868 -2.6794
 7464TIP3    H243884   5.083   6.575   1.417 -0.5440 -0.2394 -1.0133
 7465TIP3   OH243885   0.642   0.017  11.895 -0.2749  0.0208  0.7797
 7465TIP3    H143886   0.569  -0.024  11.849 -1.0543  0.6890  1.4041
 7465TIP3    H243887   0.649   0.104  11.856 -0.2853  0.2212  1.2242
 7466TIP3   OH243888   6.164   4.961   1.459  0.2087 -0.3973  0.6620
 7466TIP3    H143889   6.181   4.936   1.369 -2.0832 -2.7031  0.7556
 7466TIP3    H243890   6.231   4.916   1.510  1.6253  1.0634  0.1579
 7467TIP3   OH243891   1.152   0.043  11.382 -0.2655 -0.5068 -0.7252
 7467TIP3    H143892   1.179   0.079  11.298 -1.0378  2.0307  0.0451
 7467TIP3    H243893   1.060   0.018  11.369 -0.3441 -0.2429 -0.6809
 7468TIP3   OH243894   4.208   0.520   3.804 -0.2445 -0.5163 -0.0067
 7468TIP3    H143895   4.153   0.483   3.873 -0.0661 -1.0449 -0.1358
 7468TIP3    H243896   4.271   0.450   3.785 -0.3939 -0.4409 -0.8079
 7469TIP3   OH243897   1.524   2.439  15.654  0.1654 -0.3432 -0.5341
 7469TIP3    H143898   1.492   2.524  15.621 -0.8591  0.2198  1.7416
 7469TIP3    H243899   1.618   2.451  15.666  0.2854 -0.0518 -1.6658
 7470TIP3   OH243900   5.501   0.349   5.821  0.1098  0.5569 -0.1131
 7470TIP3    H143901   5.566   0.385   5.761  0.6264 -0.3832 -0.1226
 7470TIP3    H243902   5.456   0.426   5.856  0.3047  1.1518 -1.1281
 7471TIP3   OH243903   4.111   2.193   4.574 -0.0024 -0.3174 -0.5058
 7471TIP3    H143904   4.056   2.115   4.575  0.6985 -0.8403 -1.5607
 7471TIP3    H243905   4.053   2.263   4.545 -0.7367 -0.3494  0.8326
 7472TIP3   OH243906   3.717   6.313   0.266  0.2203 -0.2303  0.1092
 7472TIP3    H143907   3.780   6.332   0.196 -0.5390  0.8972 -0.2992
 7472TIP3    H243908   3.719   6.392   0.321  0.9102 -1.1463  1.4759
 7473TIP3   OH243909   5.910   1.341  12.491  0.3691 -0.0598 -0.4180
 7473TIP3    H143910   5.957   1.356  12.409 -1.1159  0.4918 -1.1907
 7473TIP3    H243911   5.884   1.428  12.520  3.1643  0.0956  2.1227
 7474TIP3   OH243912   3.010   2.309   6.299 -0.3465  0.5834  0.0530
 7474TIP3    H143913   2.974   2.329   6.213 -3.2429 -0.9116  0.7934
 7474TIP3    H243914   3.071   2.237   6.284 -1.3742 -0.1546 -0.6887
 7475TIP3   OH243915   4.990   4.033  15.015  0.2250  0.1934  0.2836
 7475TIP3    H143916   5.058   4.091  14.980  0.0169  0.6258  0.5768
 7475TIP3    H243917   4.930   4.019  14.942  1.1669 -1.0343 -0.2834
 7476TIP3   OH243918   1.863   1.684   1.987 -0.0401  0.3551  0.7998
 7476TIP3    H143919   1.826   1.595   1.990  0.8620 -0.0202  1.4509
 7476TIP3    H243920   1.948   1.675   2.031 -1.1236  2.1138  3.4753
 7477TIP3   OH243921   4.212   0.424   6.122  0.2746 -0.2768 -0.3786
 7477TIP3    H143922   4.285   0.476   6.154 -0.5433  1.0035 -0.5022
 7477TIP3    H243923   4.140   0.444   6.182 -0.0793 -1.2170 -0.4756
 7478TIP3   OH243924   3.382   3.432  10.927 -0.0457 -0.1623  0.4702
 7478TIP3    H143925   3.323   3.500  10.959  0.3248  0.4458 -0.0993
 7478TIP3    H243926   3.367   3.358  10.984 -0.2322  0.5104  1.3130
 7479TIP3   OH243927   2.309   4.894   4.544 -0.2494 -0.4960  0.2259
 7479TIP3    H143928   2.286   4.821   4.603  1.4945 -2.9323 -1.8978
 7479TIP3    H243929   2.359   4.954   4.600 -0.6222 -1.5366  1.7675
 7480TIP3   OH243930   1.150   1.458  11.523 -0.4607 -0.3598 -0.0550
 7480TIP3    H143931   1.171   1.413  11.441  0.6396  0.3812 -0.2006
 7480TIP3    H243932   1.235   1.477  11.563 -0.9880 -1.2807  1.6017
 7481TIP3   OH243933   5.657   4.937   1.486 -0.2075  0.3767  0.1226
 7481TIP3    H143934   5.659   4.874   1.558  0.1931  0.8780  0.5626
 7481TIP3    H243935   5.699   5.015   1.522 -1.7237  1.2985 -0.0333
 7482TIP3   OH243936   0.587   2.794  15.195 -0.5316 -0.4225 -0.5892
 7482TIP3    H143937   0.667   2.811  15.246 -0.2225 -0.3146 -1.1018
 7482TIP3    H243938   0.539   2.876  15.199 -0.7406 -0.5613 -0.0755
 7483TIP3   OH243939   4.802   6.570  14.900  0.1388  0.4384  0.1377
 7483TIP3    H143940   4.866   6.514  14.944  0.2343  0.5346  0.1197
 7483TIP3    H243941   4.726   6.569  14.959  0.0081  0.0053 -0.0326
 7484TIP3   OH243942   3.303   2.663  15.439  0.0094  0.6403  0.2122
 7484TIP3    H143943   3.343   2.693  15.520 -0.4825 -0.3857  0.8571
 7484TIP3    H243944   3.363   2.691  15.370  1.3826 -0.0740  1.0801
 7485TIP3   OH243945   0.728   6.516  13.646  0.4993  0.5827  0.2740
 7485TIP3    H143946   0.772   6.491  13.728  0.9733 -1.9493 -0.6519
 7485TIP3    H243947   0.636   6.494  13.660  0.7736 -1.0621 -0.2244
 7486TIP3   OH243948   6.018   5.142   5.114 -0.7633  0.8591  0.4284
 7486TIP3    H143949   6.062   5.172   5.034  0.2526  1.1694  1.0806
 7486TIP3    H243950   6.029   5.047   5.113  1.1551  1.0222  1.2288
 7487TIP3   OH243951   1.487   6.427  10.086 -0.3305  0.5545 -0.1337
 7487TIP3    H143952   1.394   6.449  10.090 -0.7475  0.0113 -3.4764
 7487TIP3    H243953   1.498   6.353  10.146 -2.4624 -0.4391 -0.8792
 7488TIP3   OH243954   4.744   4.169  12.716  0.2011 -0.7633 -0.4026
 7488TIP3    H143955   4.673   4.120  12.674 -0.4255 -1.5909  1.5053
 7488TIP3    H243956   4.823   4.141  12.670 -0.4175 -1.8649 -0.8282
 7489TIP3   OH243957   6.586   2.338   1.777 -0.0573  0.3026 -0.4054
 7489TIP3    H143958   6.498   2.374   1.778 -0.2573 -0.0213 -2.1510
 7489TIP3    H243959   6.598   2.301   1.864 -1.9453 -0.3114 -0.3540
 7490TIP3   OH243960   0.084   3.710   3.878  0.6461 -0.7113  0.5543
 7490TIP3    H143961   0.012   3.694   3.817 -0.0841 -0.4635  1.3463
 7490TIP3    H243962   0.133   3.627   3.878  1.5184 -0.2788 -1.4422
 7491TIP3   OH243963   0.775   5.263  16.698 -0.4117 -0.1477  0.0348
 7491TIP3    H143964   0.820   5.339  16.659 -0.7187  0.6439  1.1853
 7491TIP3    H243965   0.827   5.188  16.669  1.3491  0.6864  0.8527
 7492TIP3   OH243966   1.923   1.939  14.790 -0.0550  0.0059 -0.0457
 7492TIP3    H143967   1.952   1.885  14.717 -1.1826  0.5518 -0.9408
 7492TIP3    H243968   1.838   1.974  14.762  0.2605  1.5903  0.8079
 7493TIP3   OH243969   1.762   2.901  14.622 -0.3062 -0.4379 -0.2083
 7493TIP3    H143970   1.692   2.941  14.569  0.3735 -0.9980 -1.5855
 7493TIP3    H243971   1.763   2.810  14.594  0.3031 -0.6670  0.5547
 7494TIP3   OH243972   3.202   6.151   5.628 -0.3404  0.2053  0.0084
 7494TIP3    H143973   3.138   6.219   5.646  0.2969  0.8205  0.0052
 7494TIP3    H243974   3.161   6.096   5.561 -0.6862  0.8455 -0.3140
 7495TIP3   OH243975   4.478   0.649  11.919 -0.3191  0.5404 -0.3272
 7495TIP3    H143976   4.460   0.742  11.909 -1.1735  0.1752 -2.9319
 7495TIP3    H243977   4.400   0.614  11.963 -0.6226  0.8456 -0.6176
 7496TIP3   OH243978   4.759   3.152   0.642  0.1782 -0.2482 -0.1710
 7496TIP3    H143979   4.708   3.181   0.718 -0.5666 -1.7518 -0.0742
 7496TIP3    H243980   4.824   3.092   0.679  0.0731 -0.6714 -0.6676
 7497TIP3   OH243981   5.468   2.305   1.514  0.7899 -0.2661 -0.2365
 7497TIP3    H143982   5.478   2.379   1.455  1.7947 -1.2922 -1.4207
 7497TIP3    H243983   5.387   2.322   1.561  1.1975  1.7606 -0.1854
 7498TIP3   OH243984   1.544   1.342  11.874  0.2132  0.2728  0.3794
 7498TIP3    H143985   1.562   1.436  11.866  0.2306  0.2336 -0.0903
 7498TIP3    H243986   1.626   1.300  11.849  1.1115  0.1453  3.2200
 7499TIP3   OH243987   1.277   5.913  12.041 -0.1060 -0.4018 -0.3488
 7499TIP3    H143988   1.363   5.944  12.015 -0.2164  0.5824  0.3818
 7499TIP3    H243989   1.223   5.924  11.963  0.1621  0.0696 -0.4714
 7500TIP3   OH243990   5.817   2.741  16.557 -0.0720  0.1455 -0.0439
 7500TIP3    H143991   5.815   2.738  16.462 -0.2510 -1.3834 -0.0261
 7500TIP3    H243992   5.910   2.740  16.579  0.0402  2.2875 -0.1813
 7501TIP3   OH243993   2.960   3.927  16.262  0.0896 -0.7425  0.3649
 7501TIP3    H143994   2.984   3.848  16.312 -0.0806 -2.4355 -2.0449
 7501TIP3    H243995   2.900   3.895  16.195 -0.6639  1.6374 -0.1703
 7502TIP3   OH243996   0.323   0.596  11.231 -0.3868 -1.0219 -0.0725
 7502TIP3    H143997   0.353   0.637  11.150 -1.7758 -1.0716 -0.6309
 7502TIP3    H243998   0.280   0.666  11.280  1.9447 -0.5398  1.4920
 7503TIP3   OH243999   6.755   3.918   3.622  0.6024  0.3673  0.5905
 7503TIP3    H144000   6.705   3.865   3.684  0.5006 -0.2978 -0.0430
 7503TIP3    H244001   6.785   3.993   3.673  1.0830 -0.4934  1.6175
 7504TIP3   OH244002   6.664   3.127  11.685  0.0990  0.2385  0.2025
 7504TIP3    H144003   6.713   3.076  11.619  0.2118  2.2850 -1.3842
 7504TIP3    H244004   6.728   3.141  11.755  1.0571  0.8109 -0.7503
 7505TIP3   OH244005   2.003   6.220  11.979 -0.4892  0.6088 -0.1705
 7505TIP3    H144006   2.049   6.144  12.014  0.1499  0.2374 -1.7299
 7505TIP3    H244007   2.071   6.272  11.937 -1.3806  0.2346 -2.2173
 7506TIP3   OH244008   1.417   2.651  13.635  0.1019 -0.1990 -0.2765
 7506TIP3    H144009   1.439   2.559  13.623  1.1094  0.2367 -2.0515
 7506TIP3    H244010   1.340   2.665  13.579 -1.3119 -0.3761  1.5232
 7507TIP3   OH244011   1.160   3.975  12.788 -0.0730 -0.2349  0.0261
 7507TIP3    H144012   1.246   4.011  12.810  0.2293 -1.1069  0.2922
 7507TIP3    H244013   1.178   3.894  12.741 -0.7502 -0.5351  0.2662
 7508TIP3   OH244014   1.820   2.450   0.126  0.3985  0.0927 -0.1210
 7508TIP3    H144015   1.903   2.466   0.082  0.7566  2.2142  1.1932
 7508TIP3    H244016   1.842   2.443   0.218 -0.8009 -0.1632  0.1702
 7509TIP3   OH244017   4.166   1.172  15.521 -0.0858 -0.2993 -0.8452
 7509TIP3    H144018   4.219   1.149  15.598 -0.0031  0.9114 -0.5260
 7509TIP3    H244019   4.084   1.124  15.534  0.0358 -0.3328 -0.1390
 7510TIP3   OH244020   3.053   3.711  16.397  0.2998 -0.2787  0.0615
 7510TIP3    H144021   3.109   3.654  16.449  1.1336 -1.0889 -1.6775
 7510TIP3    H244022   2.964   3.689  16.425  0.6919 -1.2644  0.5745
 7511TIP3   OH244023   3.742   0.223   0.248  0.2515  0.1694  0.9658
 7511TIP3    H144024   3.835   0.216   0.230 -0.5723 -2.7435 -4.2689
 7511TIP3    H244025   3.715   0.302   0.200 -0.4643 -1.6760 -1.9022
 7512TIP3   OH244026   2.752   5.205   6.113  0.3294 -0.2702 -0.3945
 7512TIP3    H144027   2.811   5.258   6.168  0.1008 -0.1399 -0.2755
 7512TIP3    H244028   2.785   5.218   6.024  1.1254 -1.0274 -0.2260
 7513TIP3   OH244029   1.626   4.999  15.119 -0.1692  0.3466 -0.2016
 7513TIP3    H144030   1.708   5.041  15.144 -0.3312  0.6553 -0.1842
 7513TIP3    H244031   1.559   5.044  15.171 -0.5468  1.2187 -1.3938
 7514TIP3   OH244032   2.993   0.261   4.568  0.6040 -0.0830  0.2110
 7514TIP3    H144033   3.071   0.212   4.596 -0.1892 -1.5845 -0.1079
 7514TIP3    H244034   3.025   0.319   4.499  1.3865 -0.9217 -0.1494
 7515TIP3   OH244035   4.333   1.884   3.319  0.3566  0.0797  0.5859
 7515TIP3    H144036   4.286   1.964   3.294  0.5887  0.4078  1.1753
 7515TIP3    H244037   4.379   1.858   3.240 -0.5422 -0.0582  0.0920
 7516TIP3   OH244038   3.688   4.466  13.584  0.1165  0.3102 -0.0753
 7516TIP3    H144039   3.727   4.400  13.526  0.7004  1.8300 -1.4921
 7516TIP3    H244040   3.594   4.447  13.583  0.1170  0.3202 -1.5672
 7517TIP3   OH244041   5.973   2.101   5.120 -0.5094  0.1500  0.4249
 7517TIP3    H144042   5.957   2.009   5.139 -1.1211 -0.0080 -0.7773
 7517TIP3    H244043   5.899   2.147   5.159 -0.1483  0.1587  1.1187
 7518TIP3   OH244044   3.438   5.156   1.356 -0.4916 -0.4720 -0.1886
 7518TIP3    H144045   3.385   5.087   1.316 -0.4812 -0.7789  0.3181
 7518TIP3    H244046   3.391   5.237   1.337  0.2843 -0.4088 -2.1566
 7519TIP3   OH244047   2.810   0.634   0.437 -0.5676  0.3733 -0.6782
 7519TIP3    H144048   2.731   0.677   0.470  0.0110  0.6172  0.4337
 7519TIP3    H244049   2.876   0.650   0.504  0.3470 -0.1136 -1.4313
 7520TIP3   OH244050   2.842   6.785  15.272  0.3484  0.1387  0.1516
 7520TIP3    H144051   2.867   6.779  15.180 -0.5810 -0.9407 -0.0472
 7520TIP3    H244052   2.779   6.858  15.275 -0.6865 -0.7118 -0.3325
 7521TIP3   OH244053   1.263   5.448   2.681  0.5064 -0.2609 -0.1459
 7521TIP3    H144054   1.322   5.386   2.724 -1.7406 -2.5422 -0.0867
 7521TIP3    H244055   1.241   5.407   2.597 -0.8752  0.5286 -0.2071
 7522TIP3   OH244056   3.550   4.976   1.869  0.2567  0.1523 -0.3501
 7522TIP3    H144057   3.461   4.940   1.871 -0.7727  2.5565  0.8349
 7522TIP3    H244058   3.541   5.059   1.822  2.1511 -0.1180 -1.2843
 7523TIP3   OH244059   6.251   2.481   5.433  0.6146  0.0049 -0.2032
 7523TIP3    H144060   6.198   2.534   5.493  2.2564 -0.0402  1.3709
 7523TIP3    H244061   6.297   2.546   5.379  0.5457  0.1060 -0.1413
 7524TIP3   OH244062   3.590   5.836   2.308  0.2037 -0.2162 -0.1326
 7524TIP3    H144063   3.582   5.748   2.345  0.2621 -0.1303  0.0883
 7524TIP3    H244064   3.520   5.886   2.349 -1.0078 -0.6112 -1.6263
 7525TIP3   OH244065   2.065   1.605  14.165  0.2938  0.0084  0.6263
 7525TIP3    H144066   2.072   1.692  14.125 -1.5119  0.1566  0.5181
 7525TIP3    H244067   1.979   1.573  14.137  1.6789 -2.7178 -1.0325
 7526TIP3   OH244068   4.123   0.145   0.661  0.1981  0.3958 -0.1727
 7526TIP3    H144069   4.105   0.224   0.611 -2.2116 -0.7571 -1.3135
 7526TIP3    H244070   4.175   0.175   0.736  2.5418  2.4426 -2.4396
 7527TIP3   OH244071   1.864   4.468   1.886  0.3591 -0.3895  0.1114
 7527TIP3    H144072   1.930   4.453   1.818 -1.4089 -2.7033 -1.2900
 7527TIP3    H244073   1.849   4.562   1.886  0.6538 -0.2751 -2.5510
 7528TIP3   OH244074   1.334   5.773  13.798 -0.2858  0.1700 -0.1453
 7528TIP3    H144075   1.323   5.863  13.830  1.2000  0.1347  0.5351
 7528TIP3    H244076   1.246   5.747  13.770 -1.1501  1.0948  1.5649
 7529TIP3   OH244077   1.312   3.549  10.706 -0.1355 -0.3467 -0.4493
 7529TIP3    H144078   1.305   3.460  10.740 -0.6411  0.0958  0.6508
 7529TIP3    H244079   1.329   3.537  10.612  1.5587 -1.6090 -0.0436
 7530TIP3   OH244080   6.439   5.579   0.556 -0.7446  0.1370  0.3791
 7530TIP3    H144081   6.513   5.569   0.498 -1.1681  0.7377 -0.2815
 7530TIP3    H244082   6.459   5.523   0.631  0.4592  0.4524  0.3076
 7531TIP3   OH244083   1.010   2.087  15.737 -0.3682 -0.1299  0.0604
 7531TIP3    H144084   1.044   2.005  15.702  2.1077  0.2780  1.2463
 7531TIP3    H244085   0.997   2.143  15.660  2.3914 -0.1326 -0.5157
 7532TIP3   OH244086   3.468   4.831  17.115  0.2461 -0.2000  0.2101
 7532TIP3    H144087   3.534   4.850  17.048  0.3427 -0.5953  0.1917
 7532TIP3    H244088   3.396   4.789  17.067  0.2504 -0.3438  0.3302
 7533TIP3   OH244089   3.167   0.471  15.706 -0.3737 -0.0301 -0.2145
 7533TIP3    H144090   3.250   0.513  15.726  0.0941 -0.5269 -1.0476
 7533TIP3    H244091   3.140   0.510  15.622  1.6990 -3.5284 -2.7940
 7534TIP3   OH244092   3.895   6.305  16.636 -0.0157  0.3440  0.3064
 7534TIP3    H144093   3.831   6.346  16.578 -0.4073  1.0929  1.2432
 7534TIP3    H244094   3.867   6.330  16.724 -0.0536 -1.6689  0.9021
 7535TIP3   OH244095   1.554   3.700   2.618  0.2003 -0.5812 -0.0967
 7535TIP3    H144096   1.481   3.640   2.601 -0.4131  0.2350 -0.4241
 7535TIP3    H244097   1.602   3.703   2.535 -1.2556  1.3417 -0.9224
 7536TIP3   OH244098   3.529   0.651  16.816 -0.1889 -0.2639 -0.1208
 7536TIP3    H144099   3.457   0.590  16.826  0.5082 -1.2503 -0.8672
 7536TIP3    H244100   3.489   0.731  16.781 -1.0108 -0.5383  0.1850
 7537TIP3   OH244101   6.729   2.790   2.024  0.4229 -0.2158 -0.3384
 7537TIP3    H144102   6.723   2.802   1.929 -2.7205  0.8157 -0.1209
 7537TIP3    H244103   6.808   2.837   2.049  0.9336  0.1011 -2.3653
 7538TIP3   OH244104   0.579   1.848  14.484  0.0404  0.1331  0.0818
 7538TIP3    H144105   0.547   1.761  14.509  1.1790 -0.1728  0.5024
 7538TIP3    H244106   0.630   1.878  14.560 -0.2693  1.1434 -0.0859
 7539TIP3   OH244107   5.517   5.887   1.324  0.2956  0.1962  0.5001
 7539TIP3    H144108   5.472   5.963   1.361 -0.9180 -0.0020 -0.5036
 7539TIP3    H244109   5.571   5.854   1.396  0.4248  1.6687  1.1129
 7540TIP3   OH244110   4.847   0.096  16.830  0.7495  0.1267 -0.4927
 7540TIP3    H144111   4.860   0.052  16.914  1.5496 -1.0891 -1.2204
 7540TIP3    H244112   4.903   0.174  16.835  0.8393  0.0286  0.0741
 7541TIP3   OH244113   2.026   0.852   4.757  0.2946 -0.1774 -0.4962
 7541TIP3    H144114   1.974   0.795   4.702 -0.6058  1.1116 -1.0273
 7541TIP3    H244115   2.020   0.814   4.844  0.1481 -1.1649 -0.9266
 7542TIP3   OH244116   4.076   1.808  15.558  0.3109  0.3347  0.4940
 7542TIP3    H144117   4.135   1.880  15.578 -0.3050 -0.0397  4.4266
 7542TIP3    H244118   4.130   1.745  15.510  2.7132  0.7424  2.4426
 7543TIP3   OH244119   5.096   3.628   2.911 -0.0797 -0.1207 -0.8525
 7543TIP3    H144120   5.163   3.693   2.933 -0.9521  0.6180 -0.3633
 7543TIP3    H244121   5.014   3.676   2.910 -0.6346 -1.0407 -1.3663
 7544TIP3   OH244122   4.690   1.923  13.067 -0.1430  0.2112 -0.2966
 7544TIP3    H144123   4.694   1.977  12.988 -1.6222  0.2949 -0.3253
 7544TIP3    H244124   4.681   1.833  13.034 -2.1942  0.3693 -0.2442
 7545TIP3   OH244125   1.911   4.894   4.906  0.2332  0.7809  0.4947
 7545TIP3    H144126   1.845   4.828   4.889  0.5439  0.1570  1.6176
 7545TIP3    H244127   1.905   4.954   4.831 -1.6774  0.8241  0.6225
 7546TIP3   OH244128   4.043   5.548   3.759 -0.0686  0.7378 -0.7036
 7546TIP3    H144129   4.033   5.606   3.834 -0.6114  0.6047 -0.6713
 7546TIP3    H244130   4.093   5.600   3.695  0.6248  0.7558 -0.1578
 7547TIP3   OH244131   4.438   6.044  17.063  0.5457 -0.2768 -0.4339
 7547TIP3    H144132   4.432   6.023  17.156  0.4799 -0.8258 -0.5585
 7547TIP3    H244133   4.419   5.961  17.019  2.3983 -0.4799 -0.9297
 7548TIP3   OH244134   4.548   1.399   3.416 -0.2116 -0.5326 -0.2602
 7548TIP3    H144135   4.496   1.465   3.369  0.8089  0.1531 -0.4777
 7548TIP3    H244136   4.567   1.440   3.501  0.2676 -0.6237 -0.3229
 7549TIP3   OH244137   1.919   2.991  13.349  0.0042 -0.4499 -0.1158
 7549TIP3    H144138   1.860   2.917  13.347  1.0087 -1.2829 -2.0998
 7549TIP3    H244139   1.875   3.059  13.298  0.4455 -0.8462 -1.0477
 7550TIP3   OH244140   5.303   1.488  12.592 -0.0766 -0.6050 -0.7184
 7550TIP3    H144141   5.362   1.470  12.666  0.8065  1.0035 -0.9802
 7550TIP3    H244142   5.232   1.539  12.631  2.0251  3.2296 -1.3385
 7551TIP3   OH244143   0.998   5.547  16.288  0.0380  0.3403  0.3044
 7551TIP3    H144144   1.071   5.561  16.348  0.8890  1.1067 -0.8691
 7551TIP3    H244145   0.924   5.591  16.330  0.5032  0.4483  1.0216
 7552TIP3   OH244146   1.774   0.572  13.482  0.0131 -0.4078  0.0126
 7552TIP3    H144147   1.688   0.581  13.443  0.0154 -0.9319 -0.1213
 7552TIP3    H244148   1.813   0.659  13.477  0.1090 -0.5190 -1.3650
 7553TIP3   OH244149   1.354   0.948  11.250  0.0112  0.2096  0.3313
 7553TIP3    H144150   1.306   0.915  11.326 -0.5450 -0.4001 -0.2637
 7553TIP3    H244151   1.296   1.014  11.212  0.5828  0.9962  0.8175
 7554TIP3   OH244152   0.055   4.527  15.637  0.2352 -0.1942  0.3385
 7554TIP3    H144153   0.118   4.573  15.582 -0.7286 -0.6970 -1.2666
 7554TIP3    H244154   0.004   4.597  15.678  0.9748  0.1949  0.6118
 7555TIP3   OH244155   4.846   3.042   3.099  0.4217 -0.7412  0.1049
 7555TIP3    H144156   4.808   3.120   3.140 -1.1662 -0.8902 -0.9567
 7555TIP3    H244157   4.873   3.073   3.012  1.8529 -0.8838  0.4879
 7556TIP3   OH244158   4.407   6.290  17.133  0.1941  0.0765 -0.2589
 7556TIP3    H144159   4.439   6.285  17.223  0.2353  0.1009 -0.2731
 7556TIP3    H244160   4.388   6.199  17.109 -0.9166  0.1787  0.1708
 7557TIP3   OH244161   4.400   0.956  11.252  0.0710  0.0912 -0.4817
 7557TIP3    H144162   4.366   0.927  11.168 -1.0261  0.7670 -0.2935
 7557TIP3    H244163   4.495   0.957  11.241 -0.0631  0.2149 -1.7294
 7558TIP3   OH244164   0.516   2.683   1.695  0.6536  0.0602  0.3517
 7558TIP3    H144165   0.594   2.641   1.732  1.3612  0.8525 -0.1800
 7558TIP3    H244166   0.499   2.635   1.614  0.6851 -0.0187  0.3922
 7559TIP3   OH244167   3.627   2.068   2.007 -0.4288  0.4153  0.1009
 7559TIP3    H144168   3.559   2.049   1.942  1.5641  0.4766 -2.1430
 7559TIP3    H244169   3.622   2.163   2.019  0.1186  0.6274 -1.1509
 7560TIP3   OH244170   1.199   5.277   5.073  0.1788 -0.5433 -0.8242
 7560TIP3    H144171   1.198   5.206   5.008  0.2130 -0.6601 -0.6958
 7560TIP3    H244172   1.275   5.331   5.047  1.1399 -1.4464  0.0408
 7561TIP3   OH244173   5.931   2.523  15.821 -0.2762  0.0421  0.1407
 7561TIP3    H144174   5.962   2.480  15.901  0.1311  1.2226  0.6409
 7561TIP3    H244175   5.860   2.580  15.851  0.4816  1.1787 -0.1681
 7562TIP3   OH244176   0.758   5.899  12.357  0.1080 -0.6482  0.5037
 7562TIP3    H144177   0.751   5.930  12.448  2.3189 -1.7239  1.1364
 7562TIP3    H244178   0.845   5.859  12.353  0.4755  0.2222 -2.3834
 7563TIP3   OH244179   0.118   1.629   3.363  0.1741 -0.4341 -0.2976
 7563TIP3    H144180   0.073   1.681   3.295 -2.2950  1.9763  2.8223
 7563TIP3    H244181   0.054   1.562   3.388  0.8826 -1.0275 -0.0356
 7564TIP3   OH244182   3.193   2.969  14.470 -0.3137  0.6832 -0.2776
 7564TIP3    H144183   3.135   3.043  14.453 -1.9030 -0.6390 -0.8222
 7564TIP3    H244184   3.195   2.962  14.565 -1.1048  0.7306 -0.2473
 7565TIP3   OH244185   3.087   5.387  16.558  0.2624  0.1604  0.0046
 7565TIP3    H144186   3.004   5.429  16.535  1.5000  2.1098 -1.1298
 7565TIP3    H244187   3.116   5.344  16.477 -0.3773 -1.9808  0.8279
 7566TIP3   OH244188   5.888   1.381  14.985 -0.2499  0.1606 -0.1734
 7566TIP3    H144189   5.861   1.416  14.900  1.7059 -1.7739 -1.7158
 7566TIP3    H244190   5.927   1.455  15.031 -3.1352  1.7295 -0.0240
 7567TIP3   OH244191   3.364   0.871   2.212  0.1527 -0.0975  0.5161
 7567TIP3    H144192   3.313   0.795   2.184  0.1096 -0.0919  0.5814
 7567TIP3    H244193   3.299   0.934   2.242 -0.0093  0.8708 -1.6784
 7568TIP3   OH244194   4.708   5.834   6.149 -0.6380 -0.4525  0.0410
 7568TIP3    H144195   4.618   5.846   6.119 -0.3196 -1.8749 -1.6765
 7568TIP3    H244196   4.760   5.829   6.068  1.3357  2.2732  0.9651
 7569TIP3   OH244197   0.096   5.470   0.077 -0.0873 -0.1999  0.5930
 7569TIP3    H144198   0.005   5.455   0.053  0.2581 -2.0416  0.3111
 7569TIP3    H244199   0.124   5.541   0.019 -1.2598  0.2600  0.5477
 7570TIP3   OH244200   0.694   3.790  12.715 -0.3445  0.0429  0.0208
 7570TIP3    H144201   0.605   3.819  12.694 -0.4891 -0.3700  0.0656
 7570TIP3    H244202   0.743   3.871  12.726 -0.6721  0.2726 -0.1909
 7571TIP3   OH244203   2.659   0.591   2.110 -0.1465 -0.1863  0.2982
 7571TIP3    H144204   2.681   0.620   2.198 -0.0269 -0.2296  0.2830
 7571TIP3    H244205   2.740   0.601   2.061  0.6004 -2.8011  0.8630
 7572TIP3   OH244206   0.711   2.067  12.329  1.1595  0.2165 -0.2972
 7572TIP3    H144207   0.723   2.050  12.423  1.4565  0.8548 -0.2131
 7572TIP3    H244208   0.760   2.148  12.313  1.2274  0.0355 -1.0346
 7573TIP3   OH244209   4.656   2.460  10.744  0.2387 -0.0539  0.1105
 7573TIP3    H144210   4.639   2.378  10.698  0.6609 -0.4279  0.6103
 7573TIP3    H244211   4.577   2.512  10.728 -1.4867 -1.7391  2.3640
 7574TIP3   OH244212   4.002   4.656   5.014 -0.4425 -0.2880 -0.0598
 7574TIP3    H144213   4.028   4.583   5.071 -1.3284 -0.0964  0.6182
 7574TIP3    H244214   4.082   4.679   4.967  0.4423 -0.1885  1.4100
 7575TIP3   OH244215   1.985   2.828  12.472  0.5625  0.2801  0.6724
 7575TIP3    H144216   1.975   2.896  12.406 -0.7287  0.5645  1.1242
 7575TIP3    H244217   2.076   2.799  12.464  0.4235  0.2505 -1.2656
 7576TIP3   OH244218   0.749   0.529   1.633 -0.3078 -0.3604  0.3076
 7576TIP3    H144219   0.711   0.562   1.552 -1.5943  0.1290  1.0834
 7576TIP3    H244220   0.751   0.434   1.622 -0.9698 -0.3267 -0.0866
 7577TIP3   OH244221   3.539   1.671  13.041  0.7569  0.1833 -0.0012
 7577TIP3    H144222   3.568   1.659  12.950 -1.3872  2.8997 -1.1801
 7577TIP3    H244223   3.600   1.735  13.077  0.9841 -0.1207  0.1627
 7578TIP3   OH244224   3.089   0.770   3.563 -0.2983 -0.4762  0.0175
 7578TIP3    H144225   3.183   0.785   3.573 -0.0555 -1.6364 -0.2859
 7578TIP3    H244226   3.055   0.852   3.527  0.2586  0.6235  1.9073
 7579TIP3   OH244227   5.498   3.382  11.461 -0.6013 -0.1604 -0.0585
 7579TIP3    H144228   5.480   3.288  11.448 -2.0974 -0.0207  0.7708
 7579TIP3    H244229   5.535   3.387  11.549  0.4353 -0.0525 -0.4793
 7580TIP3   OH244230   5.062   1.660   5.742  0.0167 -0.1468  0.1265
 7580TIP3    H144231   5.006   1.686   5.668 -0.3758 -2.8704 -0.6254
 7580TIP3    H244232   5.150   1.660   5.705 -0.1110 -0.9149 -0.1988
 7581TIP3   OH244233   0.490   2.466   3.397 -0.2834  0.2572 -0.9352
 7581TIP3    H144234   0.559   2.443   3.458 -0.2253  2.3787 -0.1035
 7581TIP3    H244235   0.480   2.389   3.341  2.1814 -0.3923 -0.5853
 7582TIP3   OH244236   6.029   3.576  15.139 -0.1860 -0.4257  0.1588
 7582TIP3    H144237   5.978   3.552  15.061  0.2711 -0.0672 -0.2511
 7582TIP3    H244238   5.985   3.654  15.172 -0.7547 -0.9325  0.6238
 7583TIP3   OH244239   4.271   2.473   4.832 -0.4234 -0.0626 -0.3371
 7583TIP3    H144240   4.314   2.559   4.831  0.0282 -0.2846 -0.0791
 7583TIP3    H244241   4.182   2.491   4.863  0.2259  0.0637  1.5799
 7584TIP3   OH244242   5.334   1.789  16.917 -0.5349 -0.0982 -0.2012
 7584TIP3    H144243   5.428   1.810  16.917 -0.4864 -0.2814 -1.0142
 7584TIP3    H244244   5.318   1.751  17.003  0.3349 -0.8928 -0.3725
 7585TIP3   OH244245   4.319   5.329  11.794 -0.2624  0.3727 -0.4517
 7585TIP3    H144246   4.258   5.402  11.804  0.9553  1.1182  2.4431
 7585TIP3    H244247   4.366   5.348  11.713 -1.6676  1.4460 -1.0621
 7586TIP3   OH244248   4.722   3.365  14.092 -0.5864 -0.5128 -0.3196
 7586TIP3    H144249   4.742   3.345  14.001 -0.3036 -4.1247  0.3847
 7586TIP3    H244250   4.808   3.382  14.132 -0.6874  0.8140 -0.6258
 7587TIP3   OH244251   2.814   1.303   5.921 -0.4827  0.3064 -0.2081
 7587TIP3    H144252   2.802   1.369   5.852 -0.5148  0.0411 -0.4578
 7587TIP3    H244253   2.727   1.266   5.935 -0.1730 -0.9277 -1.3303
 7588TIP3   OH244254   0.479   2.174  13.985  0.4978  0.3332 -0.2655
 7588TIP3    H144255   0.454   2.150  14.074  0.2678  0.2655 -0.3467
 7588TIP3    H244256   0.428   2.253  13.966  0.9920  0.6951 -0.1248
 7589TIP3   OH244257   4.648   5.862   0.542  0.1418  0.0531 -0.1489
 7589TIP3    H144258   4.580   5.795   0.552  0.6191 -0.5543 -0.8934
 7589TIP3    H244259   4.729   5.817   0.566  0.3759  0.5825  0.0706
 7590TIP3   OH244260   5.234   1.925  14.698  0.0378  0.2833 -0.1802
 7590TIP3    H144261   5.240   2.006  14.748  0.1554  1.7493 -2.4169
 7590TIP3    H244262   5.220   1.954  14.608  2.8268 -2.0724 -1.5361
 7591TIP3   OH244263   4.924   1.839   2.578 -0.0160  0.0875 -0.5755
 7591TIP3    H144264   4.887   1.906   2.635 -2.7990  0.0529 -2.1976
 7591TIP3    H244265   4.932   1.881   2.493 -0.4358 -1.2009 -1.2751
 7592TIP3   OH244266   5.528   3.526   1.617 -0.1128 -0.0784  0.3948
 7592TIP3    H144267   5.607   3.565   1.581 -1.1093  2.3095  0.5956
 7592TIP3    H244268   5.507   3.455   1.556  2.2765 -0.9811  0.5050
 7593TIP3   OH244269   5.591   4.070   5.396  0.5019  0.2337 -0.3493
 7593TIP3    H144270   5.571   4.162   5.378 -0.1847 -0.0836 -1.2699
 7593TIP3    H244271   5.652   4.045   5.327 -0.7252 -0.4842 -1.2202
 7594TIP3   OH244272   2.034   6.274  16.622 -0.2184  0.3667  0.1718
 7594TIP3    H144273   2.037   6.270  16.527  1.6262 -0.1335  0.2069
 7594TIP3    H244274   2.071   6.190  16.651 -1.5265  0.1593  1.3490
 7595TIP3   OH244275   4.768   3.591   3.120 -0.3148 -0.3750 -0.0165
 7595TIP3    H144276   4.765   3.557   3.210 -2.8503  0.2174  0.1988
 7595TIP3    H244277   4.829   3.665   3.125 -0.4796 -0.2959  1.2491
 7596TIP3   OH244278   4.285   3.031   3.832  0.1876  0.5996 -0.0119
 7596TIP3    H144279   4.218   3.005   3.895  1.7161  0.5926  1.6851
 7596TIP3    H244280   4.241   3.093   3.774 -2.1795 -1.8970 -1.0796
 7597TIP3   OH244281   5.392   2.654  13.787 -0.7982 -0.1233 -0.5045
 7597TIP3    H144282   5.436   2.601  13.720 -1.1078 -4.0897  2.1142
 7597TIP3    H244283   5.462   2.696  13.836 -0.5368  1.9055 -2.4534
 7598TIP3   OH244284   2.925   3.713  15.776  0.7249  0.6987  0.3417
 7598TIP3    H144285   3.000   3.665  15.813  1.5263  1.9421  0.3899
 7598TIP3    H244286   2.937   3.707  15.681 -0.0341 -0.4776  0.2950
 7599TIP3   OH244287   1.727   4.200  16.664  0.2716  0.1668 -0.3674
 7599TIP3    H144288   1.673   4.278  16.678  1.4751  1.2140 -1.3730
 7599TIP3    H244289   1.678   4.149  16.600  1.0403  1.7792 -2.3665
 7600TIP3   OH244290   5.992   4.629   5.776  0.2060 -0.1900 -0.6631
 7600TIP3    H144291   5.951   4.621   5.862  0.5204  1.3667 -0.3530
 7600TIP3    H244292   5.938   4.573   5.719 -1.4323  0.6044  0.0604
 7601TIP3   OH244293   0.065   0.452  14.895  0.0114  0.3258 -0.2004
 7601TIP3    H144294   0.129   0.388  14.863  0.3349  0.4079  0.2768
 7601TIP3    H244295   0.036   0.418  14.979 -1.0360 -0.0183 -0.6803
 7602TIP3   OH244296   3.750   1.151   0.076 -0.2327 -0.7186 -0.1552
 7602TIP3    H144297   3.777   1.072   0.122 -1.3023 -1.3972 -0.6619
 7602TIP3    H244298   3.791   1.223   0.126 -1.0527 -1.4443  1.6415
 7603TIP3   OH244299   4.540   0.726  12.328  0.0345  0.9592  0.1682
 7603TIP3    H144300   4.503   0.718  12.416  1.1763  1.5147  0.7224
 7603TIP3    H244301   4.530   0.818  12.306  0.9721  1.1093  0.3007
 7604TIP3   OH244302   2.200   6.391  15.617 -0.3986 -0.0351 -0.4110
 7604TIP3    H144303   2.194   6.482  15.590 -0.7732 -0.4015 -1.6361
 7604TIP3    H244304   2.291   6.366  15.598 -0.0381  0.3302  0.7867
 7605TIP3   OH244305   0.860   5.824   3.774 -0.2943 -0.2700  0.0193
 7605TIP3    H144306   0.905   5.767   3.837  0.0984  1.1991  1.1043
 7605TIP3    H244307   0.767   5.807   3.790 -0.1795 -0.9662 -0.0124
 7606TIP3   OH244308   6.543   5.617  12.375 -0.7400  0.6410 -0.1088
 7606TIP3    H144309   6.598   5.602  12.452  0.6006  0.0998 -1.1342
 7606TIP3    H244310   6.455   5.633  12.411 -0.1396  0.4595  1.5220
 7607TIP3   OH244311   3.786   2.220   1.444 -0.2986  0.2548  0.4357
 7607TIP3    H144312   3.743   2.188   1.365 -0.4019 -0.6514  0.8526
 7607TIP3    H244313   3.860   2.161   1.458  1.0914  1.7575 -0.2348
 7608TIP3   OH244314   5.358   5.213   5.067 -0.5966  0.6764 -0.2746
 7608TIP3    H144315   5.266   5.192   5.055 -0.2870  0.4914 -2.7859
 7608TIP3    H244316   5.369   5.297   5.021  0.1306  1.6623  1.6023
 7609TIP3   OH244317   0.407   4.305   2.856 -0.3460 -0.3621  0.6165
 7609TIP3    H144318   0.451   4.289   2.773 -3.0158 -1.4000 -0.7385
 7609TIP3    H244319   0.457   4.375   2.897  1.3416 -0.1332 -1.6514
 7610TIP3   OH244320   0.748   6.211   5.779  0.1144  0.3695  0.5263
 7610TIP3    H144321   0.764   6.280   5.715 -0.6819 -1.4728 -1.7850
 7610TIP3    H244322   0.677   6.246   5.834  0.0243  1.5483 -0.3124
 7611TIP3   OH244323   3.538   0.324   0.467  0.1188  0.0558 -0.1259
 7611TIP3    H144324   3.588   0.403   0.446  0.6529 -0.2147  0.1281
 7611TIP3    H244325   3.502   0.296   0.382 -0.2119  0.6595 -0.1921
 7612TIP3   OH244326   3.331   5.497   0.479 -0.8314  0.1153 -0.8466
 7612TIP3    H144327   3.297   5.408   0.491 -2.7840  0.6895 -1.7227
 7612TIP3    H244328   3.269   5.553   0.526  1.0613  0.9836  0.7739
 7613TIP3   OH244329   4.817   5.057  11.124  0.5420 -0.4179  0.4898
 7613TIP3    H144330   4.764   4.979  11.109  1.3976 -0.8965 -0.1331
 7613TIP3    H244331   4.758   5.130  11.105  0.3461 -0.9481 -1.1099
 7614TIP3   OH244332   0.866   2.534   1.518 -0.7009  0.5661  0.0717
 7614TIP3    H144333   0.936   2.597   1.530  1.7120 -1.5812 -1.6189
 7614TIP3    H244334   0.796   2.583   1.475  0.7823  2.2391 -0.5389
 7615TIP3   OH244335   6.590   2.262  14.594 -0.1041 -0.2186 -0.0350
 7615TIP3    H144336   6.532   2.191  14.566 -0.4792  0.3136 -0.6267
 7615TIP3    H244337   6.560   2.338  14.546  0.8217  0.1665 -0.0244
 7616TIP3   OH244338   0.974   4.941   2.151 -0.2677  0.0546 -0.3002
 7616TIP3    H144339   0.895   4.887   2.153 -0.0996 -0.1885 -0.0673
 7616TIP3    H244340   0.988   4.962   2.059 -1.3169  1.1599 -0.2244
 7617TIP3   OH244341   1.027   5.087   0.364  0.1075 -0.2720 -0.2765
 7617TIP3    H144342   0.954   5.143   0.334 -0.0056 -1.0338 -1.5229
 7617TIP3    H244343   0.990   5.037   0.436 -0.5480 -0.4603 -0.7239
 7618TIP3   OH244344   3.594   6.294   2.742  0.0546 -0.5351 -0.1242
 7618TIP3    H144345   3.660   6.297   2.673 -0.3394 -2.2018 -0.6129
 7618TIP3    H244346   3.619   6.219   2.797 -0.6830 -0.3729  0.4560
 7619TIP3   OH244347   4.763   1.110   5.477  0.8747  0.0585  0.2656
 7619TIP3    H144348   4.754   1.186   5.419 -0.3451  0.2264  0.6494
 7619TIP3    H244349   4.763   1.148   5.565 -2.5489 -0.5106  0.6306
 7620TIP3   OH244350   5.429   5.090  15.820 -0.3878 -0.2760  1.1692
 7620TIP3    H144351   5.406   5.012  15.872  1.2775 -0.7127  1.3117
 7620TIP3    H244352   5.485   5.056  15.749  1.0427  0.8546  1.7012
 7621TIP3   OH244353   4.050   2.691  12.291  0.5621  0.1835 -0.2163
 7621TIP3    H144354   4.070   2.682  12.384  1.0597  0.1904 -0.3152
 7621TIP3    H244355   3.955   2.684  12.285  0.6215 -1.2048  0.1328
 7622TIP3   OH244356   1.237   6.322   4.082 -0.5807  0.0596  0.2525
 7622TIP3    H144357   1.289   6.374   4.021  1.9561 -0.3087  1.9435
 7622TIP3    H244358   1.236   6.234   4.045  1.7112 -0.3754  1.0514
 7623TIP3   OH244359   4.948   3.364  14.642 -0.2851  0.4022  0.6255
 7623TIP3    H144360   5.012   3.382  14.711  0.3295  0.6406  0.0012
 7623TIP3    H244361   4.993   3.302  14.584 -0.7149  0.3802  0.3155
 7624TIP3   OH244362   3.927   2.131  16.510  0.2361  0.1038  0.5806
 7624TIP3    H144363   4.018   2.108  16.488  0.6999 -1.3447  3.4889
 7624TIP3    H244364   3.935   2.193  16.582 -1.1241  0.6211  0.3182
 7625TIP3   OH244365   3.883   1.601   0.317  0.3456  0.3655 -0.6177
 7625TIP3    H144366   3.917   1.668   0.258  0.6313  1.0748  0.3235
 7625TIP3    H244367   3.897   1.637   0.405  0.9617 -1.1319 -0.0671
 7626TIP3   OH244368   1.615   1.315  12.943  0.3617 -0.1665 -0.5839
 7626TIP3    H144369   1.709   1.309  12.927  0.4245 -1.8330  0.1756
 7626TIP3    H244370   1.584   1.225  12.935 -1.1846  0.3567 -0.8223
 7627TIP3   OH244371   0.878   3.411   1.006 -0.5122  0.2609  0.2751
 7627TIP3    H144372   0.812   3.423   0.937  1.1621 -1.3531 -1.7267
 7627TIP3    H244373   0.893   3.316   1.008  2.0531  0.5980  0.3078
 7628TIP3   OH244374   6.189   4.892   2.034 -0.1325 -0.2852  0.0501
 7628TIP3    H144375   6.205   4.837   2.110  0.8862 -1.4886 -0.9845
 7628TIP3    H244376   6.266   4.948   2.027 -0.1469 -0.2933 -0.1934
 7629TIP3   OH244377   0.327   3.876  17.260 -0.1607 -0.3988 -0.5073
 7629TIP3    H144378   0.376   3.872  17.342  1.3262  1.3583 -1.2198
 7629TIP3    H244379   0.325   3.786  17.228  1.1275 -0.7772  0.4093
 7630TIP3   OH244380   3.525   0.217   2.103 -0.0475  0.3163  0.5084
 7630TIP3    H144381   3.480   0.266   2.172 -2.3503 -0.9903  0.0642
 7630TIP3    H244382   3.525   0.126   2.134 -1.6664 -0.4086 -1.3288
 7631TIP3   OH244383   0.795   3.645  10.918 -0.0006 -0.2397  0.1223
 7631TIP3    H144384   0.734   3.605  10.980 -0.7349  1.1140  0.2919
 7631TIP3    H244385   0.812   3.576  10.853 -0.0754 -1.3079  1.2033
 7632TIP3   OH244386   2.868   2.371   0.564  0.1320 -0.0575  0.2409
 7632TIP3    H144387   2.929   2.307   0.601 -0.0286 -0.5513 -0.3309
 7632TIP3    H244388   2.915   2.410   0.491 -0.1637 -0.3056 -0.0858
 7633TIP3   OH244389   4.088   0.734   2.331  0.3746  0.7377 -0.1765
 7633TIP3    H144390   4.036   0.669   2.283  0.2822 -1.2480  2.3587
 7633TIP3    H244391   4.046   0.818   2.312 -0.9119 -0.2171 -1.8210
 7634TIP3   OH244392   0.336   3.863   2.125  0.4092  0.3010  0.0235
 7634TIP3    H144393   0.297   3.950   2.132  1.8082  1.1230 -1.4155
 7634TIP3    H244394   0.416   3.868   2.176  1.1443  0.3092 -1.0818
 7635TIP3   OH244395   5.543   5.884  13.009 -0.3936  0.4755  0.6326
 7635TIP3    H144396   5.606   5.873  13.081 -0.0341  1.5192  0.5031
 7635TIP3    H244397   5.497   5.965  13.031  1.0515  1.9059 -1.2305
 7636TIP3   OH244398   1.168   0.735  12.005  0.5792 -0.2435 -0.6404
 7636TIP3    H144399   1.178   0.684  11.925  1.3070 -1.3289  0.1146
 7636TIP3    H244400   1.117   0.812  11.978  0.2195 -0.9176 -1.9840
 7637TIP3   OH244401   1.732   1.596  16.726  0.2530 -0.1986  0.3117
 7637TIP3    H144402   1.781   1.666  16.769 -0.0841 -0.0797  0.5117
 7637TIP3    H244403   1.792   1.522  16.724  1.4347  0.7161 -1.9001
 7638TIP3   OH244404   0.308   5.387   5.688  0.3264 -0.4580  0.4110
 7638TIP3    H144405   0.213   5.397   5.694  0.2803 -0.6124 -0.0310
 7638TIP3    H244406   0.328   5.399   5.595  1.0156  1.8188  0.8009
 7639TIP3   OH244407   4.878   6.662   5.707 -0.5399  0.2028  0.1482
 7639TIP3    H144408   4.892   6.634   5.797 -0.9578  1.7797  0.7271
 7639TIP3    H244409   4.961   6.644   5.663 -0.1849 -0.1598  0.9533
 7640TIP3   OH244410   3.286   5.086  12.797 -0.3517 -0.3802  0.0976
 7640TIP3    H144411   3.349   5.158  12.796  0.5349 -1.1385 -0.8767
 7640TIP3    H244412   3.241   5.095  12.881  1.0730  0.1797  0.8469
 7641TIP3   OH244413   0.777   5.550  11.849 -0.3985 -0.2307 -0.3026
 7641TIP3    H144414   0.866   5.582  11.834 -0.4260 -1.2090 -3.3620
 7641TIP3    H244415   0.723   5.629  11.852  0.4503  0.3346  0.8221
 7642TIP3   OH244416   1.592   4.844  17.101 -0.0334 -0.2986 -0.6423
 7642TIP3    H144417   1.499   4.826  17.109  0.2396 -1.1410  1.0102
 7642TIP3    H244418   1.634   4.759  17.107  0.8163 -0.0300 -2.3524
 7643TIP3   OH244419   4.211   4.936   1.610 -0.2834  0.2058  0.2297
 7643TIP3    H144420   4.250   4.894   1.533 -1.3863 -1.1640  0.3706
 7643TIP3    H244421   4.150   5.000   1.574 -0.0518  0.2908 -0.0167
 7644TIP3   OH244422   6.793   1.961   1.044 -0.4066  0.3554 -0.0075
 7644TIP3    H144423   6.875   1.989   1.084 -0.1630 -0.1908 -0.1131
 7644TIP3    H244424   6.762   1.890   1.101 -0.0241 -0.4700 -0.8064
 7645TIP3   OH244425   2.370   0.365  15.204 -0.1334 -0.2721 -0.0430
 7645TIP3    H144426   2.451   0.414  15.193 -0.8299  1.0308  0.4570
 7645TIP3    H244427   2.386   0.310  15.281 -0.1460  0.9056  0.8257
 7646TIP3   OH244428   2.183   3.763  14.784  0.4573  0.1701 -0.0590
 7646TIP3    H144429   2.124   3.703  14.831 -0.0926  0.5690 -0.2315
 7646TIP3    H244430   2.262   3.765  14.838  1.3427 -2.3387 -1.1091
 7647TIP3   OH244431   6.390   4.952  17.212  0.3574  0.0114 -0.4320
 7647TIP3    H144432   6.353   4.919  17.294  0.8354 -0.7709 -0.5165
 7647TIP3    H244433   6.476   4.911  17.206  0.6629  0.6930 -0.9335
 7648TIP3   OH244434   2.282   0.826   1.525 -0.2844 -0.3861 -0.6449
 7648TIP3    H144435   2.315   0.779   1.449 -1.5573 -0.0413 -1.4398
 7648TIP3    H244436   2.203   0.778   1.550 -0.0401 -0.3188  0.2832
 7649TIP3   OH244437   3.481   0.521   4.777 -0.0596 -0.1076  0.1936
 7649TIP3    H144438   3.576   0.519   4.775 -0.0854 -0.9035 -0.6676
 7649TIP3    H244439   3.454   0.439   4.736 -1.1303  1.0982 -1.6679
 7650TIP3   OH244440   6.657   4.686   4.038 -0.3888 -0.5526  0.4508
 7650TIP3    H144441   6.751   4.686   4.056 -0.4049  1.6059  0.8724
 7650TIP3    H244442   6.621   4.750   4.100 -1.8449 -0.0003 -0.8952
 7651TIP3   OH244443   4.878   1.673  14.827  0.3400 -0.3759 -0.1345
 7651TIP3    H144444   4.900   1.632  14.743  1.2808  1.0651 -0.6257
 7651TIP3    H244445   4.857   1.763  14.805 -1.0789 -0.3985  1.0023
 7652TIP3   OH244446   0.343   5.335  14.662  0.1600 -0.3534 -0.1146
 7652TIP3    H144447   0.341   5.414  14.608  0.5853 -0.5422 -0.4037
 7652TIP3    H244448   0.308   5.364  14.747  1.4607  0.4374  0.1684
 7653TIP3   OH244449   1.844   6.053   2.262 -0.3072  0.7466  0.0552
 7653TIP3    H144450   1.914   6.002   2.304 -0.1493  0.7764 -0.1726
 7653TIP3    H244451   1.890   6.119   2.210 -0.5157  1.6519  0.9920
 7654TIP3   OH244452   5.105   4.291  11.276  0.7050 -0.0376  0.0856
 7654TIP3    H144453   5.090   4.304  11.183 -1.5790  0.1968  0.4369
 7654TIP3    H244454   5.135   4.200  11.283 -2.3427 -1.2357 -0.6716
 7655TIP3   OH244455   5.345   3.402   2.758 -0.4398  0.0316  0.1383
 7655TIP3    H144456   5.375   3.313   2.737 -1.1058 -0.1643 -0.0268
 7655TIP3    H244457   5.337   3.445   2.673 -0.4791  0.1318  0.1928
 7656TIP3   OH244458   3.293   6.324  14.803  0.7051  0.0530 -0.6863
 7656TIP3    H144459   3.290   6.317  14.708 -0.8472  0.1121 -0.6555
 7656TIP3    H244460   3.327   6.239  14.832  1.1281  0.0134 -1.2770
 7657TIP3   OH244461   0.717   0.450  16.006 -0.3076  0.1008  0.7393
 7657TIP3    H144462   0.706   0.488  15.918  0.4697 -0.5674  0.3515
 7657TIP3    H244463   0.631   0.412  16.026 -0.5077  0.3120  0.2979
 7658TIP3   OH244464   0.395   1.616  14.335 -0.5350  0.1558  0.2037
 7658TIP3    H144465   0.340   1.573  14.269 -0.3408  0.8073 -0.3876
 7658TIP3    H244466   0.393   1.556  14.410  0.8463 -1.5838 -1.0673
 7659TIP3   OH244467   1.609   1.549   3.904  0.3761  0.0238 -0.0285
 7659TIP3    H144468   1.697   1.511   3.914 -0.0279 -0.9088  0.0852
 7659TIP3    H244469   1.580   1.521   3.818 -0.5050 -1.1679  0.6321
 7660TIP3   OH244470   6.241   0.556   3.380  0.3373 -0.3932  0.1438
 7660TIP3    H144471   6.311   0.490   3.378  2.8301  2.0453 -2.0006
 7660TIP3    H244472   6.266   0.616   3.449 -0.3172 -0.1520  0.1751
 7661TIP3   OH244473   0.597   0.848  16.002  0.0075  0.2639 -0.0480
 7661TIP3    H144474   0.593   0.777  15.937  0.2955 -0.3148  0.5491
 7661TIP3    H244475   0.689   0.855  16.024  0.0460  1.1969 -0.4895
 7662TIP3   OH244476   6.524   1.670  14.014  0.2516  0.2257 -0.0682
 7662TIP3    H144477   6.610   1.684  13.974 -0.4279  0.3164 -1.5518
 7662TIP3    H244478   6.504   1.751  14.060  0.5423  0.5459 -0.5125
 7663TIP3   OH244479   1.183   3.954  13.096  0.0948 -0.7035  0.0246
 7663TIP3    H144480   1.276   3.937  13.106  0.2099  0.4312  1.3189
 7663TIP3    H244481   1.176   4.050  13.094 -1.2155 -0.6017  3.0721
 7664TIP3   OH244482   1.701   5.814   5.556  0.1623  0.6123  0.1196
 7664TIP3    H144483   1.743   5.765   5.485 -2.6244 -1.1570 -0.4867
 7664TIP3    H244484   1.679   5.898   5.517 -2.1670 -0.6594 -1.5962
 7665TIP3   OH244485   6.453   2.539   1.178 -0.3733  0.4825 -0.2842
 7665TIP3    H144486   6.542   2.572   1.195 -0.5306  0.4371  0.6951
 7665TIP3    H244487   6.437   2.477   1.248 -1.5738  1.2663  0.1719
 7666TIP3   OH244488   6.503   0.989  12.159  0.5715 -0.3635  0.1882
 7666TIP3    H144489   6.458   1.017  12.079 -1.6575  0.0433  1.4921
 7666TIP3    H244490   6.554   0.913  12.132 -1.4924 -1.3258 -1.3326
 7667TIP3   OH244491   3.993   6.252   5.795 -0.5656 -0.4957 -0.3180
 7667TIP3    H144492   3.973   6.340   5.829  0.3360 -0.3082 -0.2530
 7667TIP3    H244493   4.000   6.264   5.700  0.3852 -0.3187 -0.2365
 7668TIP3   OH244494   6.770   3.392   1.222 -0.2986  0.2876  0.2844
 7668TIP3    H144495   6.730   3.418   1.305  0.5022  1.6591  0.2771
 7668TIP3    H244496   6.774   3.297   1.226 -2.3255  0.1896  0.8285
 7669TIP3   OH244497   2.673   3.478   2.260  0.4223  0.0899 -0.7123
 7669TIP3    H144498   2.596   3.434   2.295 -0.0802  0.8696 -0.8113
 7669TIP3    H244499   2.640   3.534   2.190  1.0518  0.5523 -0.6573
 7670TIP3   OH244500   5.591   5.168  16.198 -0.1327 -0.8120  0.0039
 7670TIP3    H144501   5.672   5.126  16.229 -1.7333 -3.3048  1.1238
 7670TIP3    H244502   5.532   5.095  16.180 -2.0718  0.9312 -1.0268
 7671TIP3   OH244503   2.662   2.023  13.410  0.3499 -0.2591  0.2433
 7671TIP3    H144504   2.581   1.978  13.385  0.2308  0.2514 -0.3082
 7671TIP3    H244505   2.665   2.016  13.505  0.3273 -1.4248  0.1803
 7672TIP3   OH244506   1.300   3.627   4.910 -0.1439  0.0986 -0.0502
 7672TIP3    H144507   1.204   3.618   4.907 -0.0321 -1.0403 -1.7356
 7672TIP3    H244508   1.332   3.555   4.855  1.6938  0.3808  0.6020
 7673TIP3   OH244509   2.224   6.436   3.210  0.0632 -0.1262  0.7372
 7673TIP3    H144510   2.187   6.513   3.254  1.1811 -0.1840  1.8508
 7673TIP3    H244511   2.217   6.366   3.274 -3.7472 -1.8774 -1.3049
 7674TIP3   OH244512   5.484   3.413  14.890 -0.0454  0.1798  0.4551
 7674TIP3    H144513   5.441   3.456  14.965  0.1179  1.7634 -0.3118
 7674TIP3    H244514   5.558   3.471  14.869 -0.2264 -0.1102 -1.0812
 7675TIP3   OH244515   2.122   1.096  11.193  0.2724 -0.2683  0.1129
 7675TIP3    H144516   2.042   1.126  11.149  1.0595 -0.0737 -1.2244
 7675TIP3    H244517   2.110   1.002  11.202  0.2846 -0.3772 -0.9283
 7676TIP3   OH244518   2.754   2.583  16.362 -0.0160 -0.1640  0.1038
 7676TIP3    H144519   2.677   2.541  16.400 -0.0074  0.1353  0.4581
 7676TIP3    H244520   2.754   2.555  16.270 -0.5060 -0.2256  0.1190
 7677TIP3   OH244521   1.226   2.926   4.875  0.0506  0.4630 -0.3691
 7677TIP3    H144522   1.199   2.906   4.786  1.3627 -1.2541 -0.4352
 7677TIP3    H244523   1.321   2.919   4.874  0.0801  0.0070  1.2371
 7678TIP3   OH244524   0.462   1.474   3.844 -0.1385  0.3138  0.6632
 7678TIP3    H144525   0.467   1.509   3.933 -0.7356  1.1594  0.3755
 7678TIP3    H244526   0.369   1.474   3.823  0.0758  1.3690 -0.4354
 7679TIP3   OH244527   0.479   5.347  12.756 -0.0252  0.4152 -0.7208
 7679TIP3    H144528   0.454   5.258  12.782  0.6933  0.1999 -0.7500
 7679TIP3    H244529   0.411   5.403  12.794  0.3371 -0.0043  0.6034
 7680TIP3   OH244530   3.752   5.227   0.876 -0.5458  0.1935 -0.9395
 7680TIP3    H144531   3.815   5.279   0.825 -0.8719  1.6225  0.0491
 7680TIP3    H244532   3.667   5.263   0.852 -0.6620  1.4671  1.1555
 7681TIP3   OH244533   4.371   4.236   2.692  0.6064 -0.8766  0.5163
 7681TIP3    H144534   4.443   4.241   2.755 -0.2692 -0.4844  1.5385
 7681TIP3    H244535   4.307   4.179   2.734 -0.7828  0.8518  0.8547
 7682TIP3   OH244536   4.870   3.636  14.470  0.8997  0.3215 -0.2095
 7682TIP3    H144537   4.958   3.608  14.494  0.8730  0.0944 -0.3775
 7682TIP3    H244538   4.814   3.597  14.537  0.7330 -0.9849 -1.0583
 7683TIP3   OH244539   5.287   0.368   3.385 -0.3787 -0.4541  0.0762
 7683TIP3    H144540   5.278   0.459   3.356  0.6677 -0.7662 -1.2933
 7683TIP3    H244541   5.202   0.328   3.363  0.0876 -0.4736 -1.9322
 7684TIP3   OH244542   2.711   2.734  14.390  0.0332  1.1738  0.1268
 7684TIP3    H144543   2.667   2.659  14.349  1.3073  0.2225  0.4361
 7684TIP3    H244544   2.696   2.806  14.329 -1.3996  0.7401 -0.0769
 7685TIP3   OH244545   6.362   3.630  11.933  0.3204  0.7369  0.9115
 7685TIP3    H144546   6.295   3.571  11.899  1.1962 -0.3857  1.1005
 7685TIP3    H244547   6.322   3.669  12.011 -0.6022  1.1210  0.2766
 7686TIP3   OH244548   0.672   1.991   0.253  0.5302 -0.4723  0.8183
 7686TIP3    H144549   0.599   2.031   0.301 -0.8068 -1.3191 -0.4269
 7686TIP3    H244550   0.700   2.059   0.192  1.1429  0.0208  1.6133
 7687TIP3   OH244551   3.703   2.732   4.610 -0.0025 -0.2134  0.0360
 7687TIP3    H144552   3.679   2.751   4.519 -1.9114  0.4446  0.6432
 7687TIP3    H244553   3.682   2.640   4.621 -0.2551 -0.1667 -0.0440
 7688TIP3   OH244554   4.721   1.057  14.038  0.1009  0.2950  0.1043
 7688TIP3    H144555   4.742   1.149  14.051 -1.6803  0.7125  0.3973
 7688TIP3    H244556   4.692   1.027  14.125  3.7834 -1.5196  0.9029
 7689TIP3   OH244557   1.516   0.815  12.433  0.2616 -1.0019  0.0882
 7689TIP3    H144558   1.461   0.877  12.480 -1.0913 -0.4775 -2.0316
 7689TIP3    H244559   1.462   0.786  12.360  2.4510 -1.2293 -1.5445
 7690TIP3   OH244560   4.346   2.753  12.975  0.1875 -0.0390  0.3568
 7690TIP3    H144561   4.336   2.658  12.968 -1.3322  0.1617 -0.5880
 7690TIP3    H244562   4.265   2.789  12.939 -0.3531  1.5917  2.9508
 7691TIP3   OH244563   4.029   0.483  10.722  0.4728  0.2212 -0.2835
 7691TIP3    H144564   4.018   0.521  10.810  3.2390  2.7839 -0.8775
 7691TIP3    H244565   3.989   0.396  10.729 -1.8626  1.3533  2.6723
 7692TIP3   OH244566   2.831   2.061  10.738  0.2354  0.2153 -0.3658
 7692TIP3    H144567   2.799   1.985  10.690 -1.3868 -0.0089  0.9662
 7692TIP3    H244568   2.917   2.080  10.700  1.3374 -3.1047  0.2065
 7693TIP3   OH244569   1.930   0.093   6.287 -0.1061 -0.0491 -0.2641
 7693TIP3    H144570   1.839   0.108   6.259  0.0025 -0.1906 -0.6917
 7693TIP3    H244571   1.983   0.128   6.216  0.1722 -0.4239 -0.2436
 7694TIP3   OH244572   4.992   4.515   5.970  0.4079  0.0776  0.6837
 7694TIP3    H144573   4.906   4.495   6.006  1.1603 -1.6375  1.6884
 7694TIP3    H244574   5.011   4.442   5.911  1.3193  0.2171  0.7792
 7695TIP3   OH244575   1.009   4.270   1.522  0.2032 -0.2451 -0.1609
 7695TIP3    H144576   1.061   4.243   1.446 -0.6069 -1.8019 -0.1940
 7695TIP3    H244577   1.014   4.196   1.582  2.5410  1.7044  2.3142
 7696TIP3   OH244578   5.767   5.733   4.118 -0.3169 -0.0911  0.6559
 7696TIP3    H144579   5.708   5.730   4.193 -0.2278 -2.0394  0.7046
 7696TIP3    H244580   5.850   5.697   4.151  0.4361  1.1450  0.1830
 7697TIP3   OH244581   4.656   4.833  11.587  0.1626  0.2081 -0.0494
 7697TIP3    H144582   4.664   4.886  11.508 -1.7385 -1.8794 -1.7529
 7697TIP3    H244583   4.650   4.743  11.556 -0.6175 -0.7132  2.4905
 7698TIP3   OH244584   2.842   3.801  16.028  0.3525 -0.5698 -0.0385
 7698TIP3    H144585   2.803   3.721  16.064 -1.2633 -0.4753 -1.4660
 7698TIP3    H244586   2.874   3.775  15.942 -0.4910  0.3751 -0.6618
 7699TIP3   OH244587   1.354   0.550  17.123  0.2204  0.2825  0.0923
 7699TIP3    H144588   1.404   0.575  17.201  1.5289 -1.1245 -0.2491
 7699TIP3    H244589   1.299   0.477  17.152  0.3386  0.0876 -0.1676
 7700TIP3   OH244590   6.366   0.385   0.433 -0.2805 -0.6320  0.5870
 7700TIP3    H144591   6.335   0.422   0.350 -2.0790 -0.2608  1.3672
 7700TIP3    H244592   6.364   0.459   0.494  0.4492 -1.0315  1.0967
 7701TIP3   OH244593   2.663   5.388   4.885 -0.5527 -0.0556 -0.1713
 7701TIP3    H144594   2.611   5.468   4.895 -2.1116 -0.8267 -1.6816
 7701TIP3    H244595   2.651   5.341   4.968  0.3961  1.2225  0.7406
 7702TIP3   OH244596   3.398   2.613   3.835  0.4343  0.0371 -0.3632
 7702TIP3    H144597   3.440   2.607   3.749 -0.9932  1.3276 -1.1972
 7702TIP3    H244598   3.355   2.528   3.847  0.6656 -0.1614 -0.9176
 7703TIP3   OH244599   5.083   4.188  16.784 -0.0253  0.0899  0.4135
 7703TIP3    H144600   4.991   4.193  16.809 -1.1165 -1.4444 -2.7938
 7703TIP3    H244601   5.091   4.245  16.707  1.7461  0.2471  0.6579
 7704TIP3   OH244602   6.193   4.786   0.495 -0.2787 -0.4463  0.2479
 7704TIP3    H144603   6.178   4.705   0.545 -0.6718  0.6604  2.0252
 7704TIP3    H244604   6.215   4.851   0.562 -3.6171  1.8196 -0.6309
 7705TIP3   OH244605   5.346   3.508  13.057  0.3251 -0.0099  0.4705
 7705TIP3    H144606   5.266   3.513  13.005  1.5044 -0.7546 -1.5820
 7705TIP3    H244607   5.383   3.422  13.035  0.8471 -0.4267  2.7161
 7706TIP3   OH244608   4.550   2.651   4.448  0.1253 -0.1616  0.6262
 7706TIP3    H144609   4.551   2.688   4.360  0.1849 -1.3649  0.0956
 7706TIP3    H244610   4.641   2.657   4.478  1.1834 -3.8518 -1.2539
 7707TIP3   OH244611   2.345   6.151   5.325 -0.0573  0.1776 -0.1285
 7707TIP3    H144612   2.334   6.134   5.231 -1.6660 -0.9295  0.2277
 7707TIP3    H244613   2.334   6.246   5.333 -0.0998  0.2634 -1.0269
 7708TIP3   OH244614   6.415   6.746  12.904  0.3349 -0.5063 -0.2185
 7708TIP3    H144615   6.324   6.776  12.899  0.2781 -0.7144 -0.4367
 7708TIP3    H244616   6.464   6.823  12.933 -0.0826 -0.7013  1.0775
 7709TIP3   OH244617   1.282   0.386  12.983 -0.3611  0.6236 -0.7374
 7709TIP3    H144618   1.219   0.375  12.912 -0.9758 -0.0839 -0.0954
 7709TIP3    H244619   1.234   0.437  13.049 -0.7646 -1.0866  0.3456
 7710TIP3   OH244620   4.105   1.436  13.095 -0.2245 -0.6807  0.3618
 7710TIP3    H144621   4.134   1.405  13.009  0.4872 -2.3160  1.1337
 7710TIP3    H244622   4.108   1.358  13.151  2.6947  0.9542  2.7637
 7711TIP3   OH244623   6.004   4.962   2.762  0.1853  0.0684  0.1889
 7711TIP3    H144624   6.009   4.882   2.710  0.6373  0.9284 -1.1605
 7711TIP3    H244625   6.070   5.020   2.723  0.0867  0.9904  1.3287
 7712TIP3   OH244626   0.288   4.387   0.997  0.4465 -0.7266  0.0686
 7712TIP3    H144627   0.355   4.356   0.937 -1.3558 -0.6368 -2.1435
 7712TIP3    H244628   0.217   4.323   0.989  0.7051 -1.6137  3.4051
 7713TIP3   OH244629   1.566   6.706  16.877 -0.6526  0.2955 -0.1477
 7713TIP3    H144630   1.652   6.702  16.919 -0.0217  2.3417 -1.1183
 7713TIP3    H244631   1.570   6.784  16.821 -3.4124  0.9386  0.3852
 7714TIP3   OH244632   0.157   2.678   6.694  0.3352 -0.0185  0.0979
 7714TIP3    H144633   0.249   2.651   6.692  0.1158 -0.8867  0.9895
 7714TIP3    H244634   0.142   2.717   6.608  1.7179  0.8010  0.2011
 7715TIP3   OH244635   1.713   0.781  12.653 -0.0796 -0.2836 -0.1724
 7715TIP3    H144636   1.771   0.708  12.633 -1.4168 -1.5587  0.4251
 7715TIP3    H244637   1.654   0.787  12.578  0.6126  0.8300 -0.6556
 7716TIP3   OH244638   4.295   3.377   4.832  0.1469  0.6884  0.3521
 7716TIP3    H144639   4.290   3.340   4.744  0.2616  0.1147  0.5845
 7716TIP3    H244640   4.364   3.443   4.827 -0.5744  1.4134 -0.2565
 7717TIP3   OH244641   2.606   0.006  15.518 -0.2714  0.4932 -0.3602
 7717TIP3    H144642   2.642   0.037  15.602 -0.1421  0.0173 -0.2387
 7717TIP3    H244643   2.629  -0.087  15.514 -0.0906  0.5611 -1.0242
 7718TIP3   OH244644   6.508   3.364   3.110  0.2170  0.0729 -0.5493
 7718TIP3    H144645   6.480   3.352   3.201 -0.1519 -0.5332 -0.7338
 7718TIP3    H244646   6.562   3.287   3.092 -0.8281 -0.5152 -1.2610
 7719TIP3   OH244647   3.334   5.078  16.049 -0.4032  0.2663  0.2704
 7719TIP3    H144648   3.325   5.063  15.955 -0.7205  1.6387  0.0654
 7719TIP3    H244649   3.408   5.023  16.075  1.0748  1.4620 -1.1929
 7720TIP3   OH244650   3.774   6.497  12.093 -0.0440 -0.4584 -0.4079
 7720TIP3    H144651   3.714   6.441  12.044 -1.2796  0.0437  0.5094
 7720TIP3    H244652   3.859   6.453  12.085 -0.6105 -1.4354 -1.3009
 7721TIP3   OH244653   2.860   4.105   5.758 -0.1345  0.5082 -0.0690
 7721TIP3    H144654   2.819   4.130   5.840 -0.2886  2.3837 -0.6705
 7721TIP3    H244655   2.911   4.181   5.732  1.8764 -0.9114 -0.5301
 7722TIP3   OH244656   1.024   2.342  16.540  0.3226 -1.1696 -0.1519
 7722TIP3    H144657   1.009   2.436  16.534 -1.8192 -1.5148 -0.9507
 7722TIP3    H244658   1.051   2.316  16.451  0.5462 -1.3781 -0.0255
 7723TIP3   OH244659   5.881   4.580  17.259 -0.6316  0.6614 -0.5460
 7723TIP3    H144660   5.811   4.529  17.300 -0.5255  0.7821 -0.2134
 7723TIP3    H244661   5.838   4.659  17.227 -0.8258  0.2979 -1.1979
 7724TIP3   OH244662   1.205   1.645   3.466 -0.8474  0.5177 -0.1161
 7724TIP3    H144663   1.169   1.643   3.377  0.8300 -0.2512 -0.8143
 7724TIP3    H244664   1.220   1.553   3.488 -0.5819  0.7451  0.6848
 7725TIP3   OH244665   1.117   3.219  16.449 -0.4657  0.1628  0.4488
 7725TIP3    H144666   1.143   3.169  16.526  3.0768 -0.0203 -0.6680
 7725TIP3    H244667   1.042   3.271  16.478 -1.3614 -2.2571  2.9931
 7726TIP3   OH244668   2.878   6.801   3.737  1.1263 -0.0653 -0.1873
 7726TIP3    H144669   2.908   6.765   3.654  2.6804  1.0537 -0.1530
 7726TIP3    H244670   2.936   6.762   3.803  0.0567 -0.7647  0.3677
 7727TIP3   OH244671   4.704   4.420  11.771 -0.4115  0.1498 -0.4825
 7727TIP3    H144672   4.686   4.348  11.830  0.1423 -0.6640 -1.2780
 7727TIP3    H244673   4.690   4.499  11.824  1.3917 -0.5513  1.1436
 7728TIP3   OH244674   1.806   0.341   4.283  0.0914  0.1160  0.8763
 7728TIP3    H144675   1.768   0.313   4.366  0.1099 -0.0500  0.8296
 7728TIP3    H244676   1.776   0.431   4.272  1.1603  0.5978  1.7041
 7729TIP3   OH244677   0.269   1.827  12.338 -0.5134  0.4252  0.8668
 7729TIP3    H144678   0.222   1.757  12.385  0.2297 -0.2223  0.6662
 7729TIP3    H244679   0.275   1.794  12.248  1.1382  0.0591  1.0841
 7730TIP3   OH244680   0.911   6.069   2.868 -0.7348 -0.0759 -0.5528
 7730TIP3    H144681   0.980   6.008   2.895  0.2009  1.1395 -0.1564
 7730TIP3    H244682   0.831   6.032   2.906 -0.1211 -0.8472  0.0266
 7731TIP3   OH244683   2.154   4.403  11.625  0.0639 -0.7495 -0.5676
 7731TIP3    H144684   2.121   4.324  11.584 -2.6298 -1.1776  2.0614
 7731TIP3    H244685   2.091   4.423  11.694  3.2085  0.9085  2.1578
 7732TIP3   OH244686   6.109   3.486   6.201 -0.3760  0.0659 -0.1207
 7732TIP3    H144687   6.069   3.504   6.287 -3.7655 -1.8556 -1.1210
 7732TIP3    H244688   6.146   3.398   6.210 -0.3050  0.0587 -0.4854
 7733TIP3   OH244689   1.601   1.757   4.561  0.2235 -0.2114 -0.1436
 7733TIP3    H144690   1.654   1.678   4.559  0.8874  0.2213  0.0381
 7733TIP3    H244691   1.538   1.741   4.632  1.0354 -0.1559  0.6053
 7734TIP3   OH244692   0.190   6.801   0.593  0.0812 -0.0286  0.2921
 7734TIP3    H144693   0.115   6.860   0.587 -0.5854 -0.9562 -0.8705
 7734TIP3    H244694   0.220   6.810   0.684 -0.9536  0.9304  0.5609
 7735TIP3   OH244695   2.818   1.772   5.273  0.3965  0.6161  0.1833
 7735TIP3    H144696   2.768   1.693   5.251 -0.9392  1.8357 -1.4052
 7735TIP3    H244697   2.883   1.742   5.336 -1.1301 -1.4297  0.9002
 7736TIP3   OH244698   0.144   2.250  11.579 -0.3081  0.0008  0.0601
 7736TIP3    H144699   0.058   2.236  11.540 -1.1378  0.1861  1.7122
 7736TIP3    H244700   0.194   2.172  11.557 -0.6701  0.1731 -1.4619
 7737TIP3   OH244701   3.379   2.263  12.652 -0.7854  0.1403  0.3192
 7737TIP3    H144702   3.387   2.288  12.560 -0.1638 -4.1217 -0.9712
 7737TIP3    H244703   3.285   2.250  12.665 -0.7530 -0.5940 -0.1497
 7738TIP3   OH244704   3.245   0.991  14.437  0.3827  0.3746 -0.2511
 7738TIP3    H144705   3.239   0.981  14.532 -0.0316 -1.0737 -0.3959
 7738TIP3    H244706   3.339   0.994  14.419  0.4784 -0.0238  0.1622
 7739TIP3   OH244707   3.986   0.285  16.249  0.1031  0.4015 -0.3398
 7739TIP3    H144708   4.031   0.205  16.223  0.9391  0.5882  0.4566
 7739TIP3    H244709   4.051   0.333  16.301 -0.9386  0.7981  0.6438
 7740TIP3   OH244710   5.135   6.217   3.145  1.0536  0.0762 -0.3278
 7740TIP3    H144711   5.139   6.135   3.193 -0.0760  1.2633  1.9440
 7740TIP3    H244712   5.168   6.283   3.206 -0.6818  1.7107 -1.0312
 7741TIP3   OH244713   4.820   3.642  13.794  0.1964  0.5479  0.8035
 7741TIP3    H144714   4.726   3.658  13.786  0.0638 -0.3512  0.4324
 7741TIP3    H244715   4.844   3.595  13.714  0.5136 -1.1789  1.8425
 7742TIP3   OH244716   4.174   1.234  11.573  0.5845  0.0130 -0.2088
 7742TIP3    H144717   4.185   1.323  11.609  2.9286  0.2008 -1.2363
 7742TIP3    H244718   4.263   1.199  11.568  0.0279 -1.2212 -2.7761
 7743TIP3   OH244719   1.110   5.591  12.366 -0.1011  0.3178  0.4936
 7743TIP3    H144720   1.062   5.567  12.287  1.6986  0.5212 -0.7228
 7743TIP3    H244721   1.063   5.667  12.401  0.1213  1.4106 -1.4500
 7744TIP3   OH244722   5.719   4.986  10.134  0.1709  0.1658 -0.4181
 7744TIP3    H144723   5.739   5.074  10.164  0.8961 -0.0283 -0.3292
 7744TIP3    H244724   5.703   4.995  10.040 -0.2108  0.4618 -0.3261
 7745TIP3   OH244725   3.327   4.703   0.423 -0.0081  0.3082  0.4744
 7745TIP3    H144726   3.369   4.637   0.479 -0.7059 -0.0190  0.6244
 7745TIP3    H244727   3.321   4.781   0.478  2.9873  1.3120 -0.4468
 7746TIP3   OH244728   5.560   5.072   1.761 -0.6307  0.0603  0.2601
 7746TIP3    H144729   5.591   5.122   1.686  1.3250 -3.6615 -1.6583
 7746TIP3    H244730   5.639   5.036   1.801 -1.9370 -2.6084  0.6365
 7747TIP3   OH244731   2.143   2.115   4.998 -0.3936  0.6247  0.4279
 7747TIP3    H144732   2.137   2.062   4.919  2.8114 -0.5963  0.8449
 7747TIP3    H244733   2.060   2.101   5.043 -0.4939 -2.4066 -0.5106
 7748TIP3   OH244734   3.109   4.330  13.769  0.5804 -0.1249  0.1808
 7748TIP3    H144735   3.104   4.275  13.847 -0.5388 -0.1973  0.0683
 7748TIP3    H244736   3.051   4.403  13.787 -0.6080 -0.7262 -1.0197
 7749TIP3   OH244737   4.577   3.253   0.469  0.9816 -0.2535  0.5464
 7749TIP3    H144738   4.507   3.288   0.524 -0.0895 -1.6698  0.1286
 7749TIP3    H244739   4.644   3.225   0.532  1.2990  1.3021  0.9386
 7750TIP3   OH244740   4.004   1.215   3.354 -0.2691  0.2925 -0.1822
 7750TIP3    H144741   4.092   1.204   3.319  0.4199 -0.5250  1.6848
 7750TIP3    H244742   3.970   1.294   3.311  0.1337 -1.0687 -3.3006
 7751TIP3   OH244743   2.393   6.099   6.075  0.2984 -0.2497  0.3765
 7751TIP3    H144744   2.340   6.151   6.015 -0.3420 -0.8750  0.3858
 7751TIP3    H244745   2.335   6.081   6.149  0.4249 -1.1901  0.2590
 7752TIP3   OH244746   5.781   2.986   0.104 -0.3706  0.0214 -0.0570
 7752TIP3    H144747   5.771   2.962   0.196  2.1206  0.4457  0.4129
 7752TIP3    H244748   5.761   2.906   0.056 -0.7587 -0.4817  0.9203
 7753TIP3   OH244749   1.996   0.507  16.898  0.5587 -0.2358  0.1535
 7753TIP3    H144750   2.057   0.446  16.939 -0.1530 -1.7535 -0.9437
 7753TIP3    H244751   2.024   0.512  16.807 -0.7925 -0.8201 -0.3306
 7754TIP3   OH244752   3.088   5.482   5.512  0.7321  0.0220 -0.0309
 7754TIP3    H144753   3.122   5.550   5.571  2.2996  0.9309 -1.8667
 7754TIP3    H244754   3.140   5.405   5.532  2.4029  0.7745 -1.2523
 7755TIP3   OH244755   5.196   0.787   3.576  0.4033 -0.0200  0.1198
 7755TIP3    H144756   5.153   0.762   3.494 -1.7526  0.8987  0.8988
 7755TIP3    H244757   5.151   0.867   3.604  1.6006  0.1237  1.8224
 7756TIP3   OH244758   5.030   6.429  15.037 -0.3631  0.5514  0.0720
 7756TIP3    H144759   5.051   6.345  14.996 -0.3814  1.5827 -2.1438
 7756TIP3    H244760   5.008   6.406  15.128 -0.8055 -1.8801 -0.5834
 7757TIP3   OH244761   2.124   3.840   1.219 -0.2611 -0.0192  0.3786
 7757TIP3    H144762   2.131   3.823   1.313  0.7188  2.5474  0.8664
 7757TIP3    H244763   2.197   3.792   1.180 -0.6714 -1.0926  0.8857
 7758TIP3   OH244764   6.230   2.048  14.839  0.2167  0.5579  0.2934
 7758TIP3    H144765   6.142   2.012  14.845  0.4448  0.2294  2.8508
 7758TIP3    H244766   6.220   2.127  14.786 -1.1403 -0.7022 -1.4516
 7759TIP3   OH244767   5.624   3.383   0.492  0.1632 -0.2301  0.0886
 7759TIP3    H144768   5.684   3.309   0.498  0.0828 -0.8280 -3.7608
 7759TIP3    H244769   5.538   3.348   0.517  0.6551 -0.4960  1.4705
 7760TIP3   OH244770   3.606   5.264   2.779 -0.1943  0.1591 -0.8019
 7760TIP3    H144771   3.594   5.285   2.687  0.0889 -0.7408 -1.0583
 7760TIP3    H244772   3.550   5.187   2.793 -0.1078  0.1888 -0.2672
 7761TIP3   OH244773   2.707   4.763   1.630  0.4192 -0.6965 -0.3557
 7761TIP3    H144774   2.778   4.739   1.691 -0.0196  1.1188  0.9579
 7761TIP3    H244775   2.686   4.681   1.585  1.0031 -2.0739  1.7149
 7762TIP3   OH244776   2.075   6.023   5.923 -0.5437 -0.4216 -0.2456
 7762TIP3    H144777   2.095   6.043   5.832 -1.5505 -0.1748 -0.4191
 7762TIP3    H244778   2.084   6.107   5.969  1.6149 -0.8519  0.2095
 7763TIP3   OH244779   3.169   0.234  14.052  0.2027  0.3950 -0.2101
 7763TIP3    H144780   3.135   0.314  14.091 -0.8484 -0.5927  0.9513
 7763TIP3    H244781   3.117   0.163  14.090  0.9384 -0.8422 -1.3847
 7764TIP3   OH244782   3.134   1.270  17.080 -0.0609 -0.2838 -0.0594
 7764TIP3    H144783   3.164   1.327  17.151 -1.1775 -2.2094  2.0988
 7764TIP3    H244784   3.213   1.224  17.051  0.4588  0.7281 -0.3024
 7765TIP3   OH244785   5.623   2.703  16.130  0.6642 -1.0982  0.4632
 7765TIP3    H144786   5.542   2.652  16.135 -0.6304  0.8014  0.0998
 7765TIP3    H244787   5.677   2.670  16.202 -0.7285 -1.9255  1.1792
 7766TIP3   OH244788   4.807   2.342  15.255  0.0623 -0.8472  0.4672
 7766TIP3    H144789   4.726   2.328  15.207 -0.0373  0.4425  0.2146
 7766TIP3    H244790   4.846   2.255  15.262 -1.0472 -1.4031  0.0843
 7767TIP3   OH244791   0.672   0.795   2.665  0.0407  0.0818  0.4825
 7767TIP3    H144792   0.596   0.773   2.612  0.0145 -0.6810  0.8165
 7767TIP3    H244793   0.642   0.866   2.722  0.4112  1.7389 -1.2920
 7768TIP3   OH244794   3.990   3.344   6.761  0.1255 -0.1847 -0.2178
 7768TIP3    H144795   3.983   3.432   6.725  1.7812 -0.2300 -0.7261
 7768TIP3    H244796   3.900   3.312   6.763 -0.8363  2.2431  1.9426
 7769TIP3   OH244797   4.031   3.852   3.806 -0.3695 -0.4023 -0.6725
 7769TIP3    H144798   4.124   3.829   3.813 -0.7497 -1.7610  0.6038
 7769TIP3    H244799   4.015   3.864   3.713  0.6530 -2.2324 -1.1368
 7770TIP3   OH244800   0.657   6.466   4.775 -0.0521 -0.3291 -0.1365
 7770TIP3    H144801   0.599   6.526   4.821  0.0121 -1.5448  1.6352
 7770TIP3    H244802   0.598   6.411   4.723 -0.7751 -2.4067  2.6234
 7771TIP3   OH244803   4.435   1.197   0.685 -0.0403 -0.3025 -0.5519
 7771TIP3    H144804   4.365   1.213   0.622 -0.2539 -1.2419 -0.5737
 7771TIP3    H244805   4.512   1.176   0.631  0.4706  1.4235 -0.5484
 7772TIP3   OH244806   4.728   3.958   2.341  0.3687 -0.0759  0.0709
 7772TIP3    H144807   4.807   3.970   2.393  0.6047  0.3268 -0.3820
 7772TIP3    H244808   4.656   3.978   2.402  0.5568 -1.4222  0.7726
 7773TIP3   OH244809   2.927   4.554   5.691 -0.0659 -0.2293  0.3795
 7773TIP3    H144810   2.968   4.619   5.634 -0.8450 -0.7690 -0.8359
 7773TIP3    H244811   2.967   4.569   5.776  1.6472  0.1744 -0.4368
 7774TIP3   OH244812   6.428   6.827  15.307  0.4518  0.4261  0.2966
 7774TIP3    H144813   6.368   6.886  15.261  2.6921  2.4449 -0.2338
 7774TIP3    H244814   6.448   6.758  15.243 -1.6580 -0.6297  0.6875
 7775TIP3   OH244815   1.607   0.553  16.170  0.5111 -0.0835 -0.4137
 7775TIP3    H144816   1.698   0.540  16.198  0.5809  1.0005 -0.0971
 7775TIP3    H244817   1.614   0.570  16.076  0.7249  0.7360 -0.2602
 7776TIP3   OH244818   1.724   2.361  17.177  0.4489 -0.3479  0.6258
 7776TIP3    H144819   1.804   2.411  17.192  0.0722 -0.0126  1.6299
 7776TIP3    H244820   1.748   2.294  17.113  0.9806  1.0850 -0.7507
 7777TIP3   OH244821   4.847   6.214  15.248  0.3967  0.0281  0.1797
 7777TIP3    H144822   4.814   6.254  15.329 -0.7783  1.0553 -0.7683
 7777TIP3    H244823   4.809   6.126  15.248 -0.1083  0.2442  0.4507
 7778TIP3   OH244824   3.377   5.573   1.501 -0.4231  0.5492  0.3220
 7778TIP3    H144825   3.380   5.668   1.491 -1.6766  0.4825 -0.9367
 7778TIP3    H244826   3.469   5.545   1.497 -0.0732  1.6719  0.3533
 7779TIP3   OH244827   0.611   1.408  15.791 -0.1546 -0.9537  0.4036
 7779TIP3    H144828   0.547   1.384  15.724  1.0224  1.0936 -1.5917
 7779TIP3    H244829   0.676   1.338  15.787  0.0638 -0.7055 -0.8671
 7780TIP3   OH244830   3.844   4.932  11.163 -0.0375  0.2584 -0.4442
 7780TIP3    H144831   3.894   5.008  11.190 -0.1988  0.6429 -1.2063
 7780TIP3    H244832   3.909   4.869  11.132  0.0951  0.0804  0.1872
 7781TIP3   OH244833   0.110   0.467   1.348 -0.2087  0.1150 -0.1092
 7781TIP3    H144834   0.197   0.468   1.386 -0.7714 -0.2699  1.2501
 7781TIP3    H244835   0.104   0.381   1.304  0.2724  0.3641 -0.6732
 7782TIP3   OH244836   5.828   6.133  11.783  0.0520 -0.1839 -0.8858
 7782TIP3    H144837   5.914   6.134  11.739  0.2148  1.3816 -0.6049
 7782TIP3    H244838   5.845   6.093  11.868  0.1308 -1.4674 -1.4844
 7783TIP3   OH244839   6.067   5.966   4.799  0.0674  0.5336 -0.0970
 7783TIP3    H144840   5.993   5.982   4.856 -0.9420 -1.4823 -0.7559
 7783TIP3    H244841   6.144   5.980   4.855 -0.8701 -1.1673  1.7366
 7784TIP3   OH244842   1.266   5.507  16.746 -0.2062 -0.1445 -0.2749
 7784TIP3    H144843   1.222   5.451  16.810  1.7668  0.3535  1.6276
 7784TIP3    H244844   1.354   5.520  16.782  0.1294  2.3461 -1.7864
 7785TIP3   OH244845   2.304   0.372  14.659 -0.1297 -0.2018 -0.2096
 7785TIP3    H144846   2.295   0.363  14.754 -0.3974 -0.5278 -0.2613
 7785TIP3    H244847   2.395   0.399  14.646  0.4786 -2.0192  0.0256
 7786TIP3   OH244848   5.019   2.609   4.528  0.5918 -0.1470  0.5955
 7786TIP3    H144849   4.972   2.579   4.607  0.8396 -0.9193  0.4527
 7786TIP3    H244850   5.028   2.531   4.474 -2.3011  0.8874 -1.6498
 7787TIP3   OH244851   6.805   0.638   5.202 -0.6771  0.4495 -0.7653
 7787TIP3    H144852   6.729   0.586   5.227 -0.0914 -0.6440 -1.1715
 7787TIP3    H244853   6.792   0.656   5.109 -0.8531  1.0013 -0.6378
 7788TIP3   OH244854   6.583   0.365  16.401  0.2926  0.6751 -0.3532
 7788TIP3    H144855   6.663   0.399  16.442  1.8361 -1.5088 -1.3748
 7788TIP3    H244856   6.580   0.408  16.316 -0.0540  1.3077 -0.0298
 7789TIP3   OH244857   5.874   5.010  14.899  0.5320 -0.6621  0.1110
 7789TIP3    H144858   5.814   5.027  14.971 -1.8163 -2.1140 -1.3591
 7789TIP3    H244859   5.952   4.973  14.940  0.0029  0.2330  2.0128
 7790TIP3   OH244860   6.370   1.616   4.636  0.5765  0.5665 -0.2612
 7790TIP3    H144861   6.444   1.647   4.687 -0.0408  0.0684  0.9758
 7790TIP3    H244862   6.393   1.637   4.545  1.7288  1.4005  0.2003
 7791TIP3   OH244863   0.489   6.568   3.161 -0.1802  0.1605 -0.3405
 7791TIP3    H144864   0.401   6.582   3.194 -0.0116  0.6147 -0.0763
 7791TIP3    H244865   0.542   6.551   3.238  0.1114  0.6926 -0.4117
 7792TIP3   OH244866   6.664   3.610   1.986  0.1189 -0.3598 -0.6094
 7792TIP3    H144867   6.722   3.616   1.910 -0.8812  0.1005 -1.3554
 7792TIP3    H244868   6.655   3.516   2.002  1.7981 -0.4293  0.1034
 7793TIP3   OH244869   4.907   5.941   5.252  0.2535 -0.0875 -0.2378
 7793TIP3    H144870   4.980   5.995   5.222  0.6876 -0.7763 -0.4274
 7793TIP3    H244871   4.928   5.920   5.343 -1.1125  2.0904  0.6622
 7794TIP3   OH244872   6.134   4.180  11.648 -0.2752 -0.5481  0.1793
 7794TIP3    H144873   6.051   4.140  11.673 -0.0392 -1.0806  0.1233
 7794TIP3    H244874   6.165   4.127  11.574  0.3780 -0.6871  0.5455
 7795TIP3   OH244875   6.140   2.159  16.856  0.2351  0.0518 -0.6826
 7795TIP3    H144876   6.051   2.196  16.860  0.6841  1.0695  0.7409
 7795TIP3    H244877   6.179   2.181  16.940  2.1531  0.4157 -1.6057
 7796TIP3   OH244878   3.479   3.925   0.116 -0.0968 -0.6629 -0.3900
 7796TIP3    H144879   3.420   3.933   0.191 -2.1913 -0.7013 -1.9692
 7796TIP3    H244880   3.483   4.013   0.079  2.2665 -0.2566  0.6481
 7797TIP3   OH244881   2.547   2.613  11.684  0.3237  0.4674  0.2435
 7797TIP3    H144882   2.573   2.643  11.770  1.6679  1.9214 -0.6146
 7797TIP3    H244883   2.565   2.519  11.683 -0.9707  0.1542  1.9430
 7798TIP3   OH244884   6.354   0.586  15.281  0.0407  0.0583  0.3405
 7798TIP3    H144885   6.356   0.643  15.358 -0.2349 -0.4352  0.7234
 7798TIP3    H244886   6.261   0.562  15.272 -0.0730  0.8409 -0.6989
 7799TIP3   OH244887   6.573   5.805  12.793 -0.5600  0.2060 -0.2133
 7799TIP3    H144888   6.561   5.884  12.845 -0.0337 -0.5627  1.1132
 7799TIP3    H244889   6.510   5.743  12.828  0.5470 -0.6772  0.2764
 7800TIP3   OH244890   3.103   3.481  14.197 -0.2306  0.5433 -0.1205
 7800TIP3    H144891   3.163   3.551  14.223  1.4301 -0.3858 -1.2583
 7800TIP3    H244892   3.070   3.508  14.111  1.0159 -0.3474 -0.9290
 7801TIP3   OH244893   1.018   0.382  13.673  0.1100  0.4278  0.5902
 7801TIP3    H144894   1.052   0.375  13.584 -0.1921  1.7167  0.3676
 7801TIP3    H244895   0.943   0.440  13.667  0.0363  0.4781  1.6812
 7802TIP3   OH244896   6.022   2.886   4.953 -0.6337 -0.1763  0.3571
 7802TIP3    H144897   6.100   2.883   4.898 -0.3546  0.2698  0.7194
 7802TIP3    H244898   6.019   2.800   4.996  0.2720  0.1847  1.1737
 7803TIP3   OH244899   3.874   1.182  14.849 -0.4715 -0.0061 -0.0718
 7803TIP3    H144900   3.885   1.140  14.764 -0.1735  0.6520 -0.3640
 7803TIP3    H244901   3.962   1.212  14.872 -0.6793  0.4520  0.1375
 7804TIP3   OH244902   6.575   6.671   1.868 -0.1232  0.4488  0.5280
 7804TIP3    H144903   6.523   6.673   1.948  0.1018  0.3538  0.6772
 7804TIP3    H244904   6.607   6.581   1.862  0.3961  0.6181  0.6773
 7805TIP3   OH244905   5.425   0.827  13.819 -0.3557 -0.3221  0.0689
 7805TIP3    H144906   5.437   0.896  13.754 -0.5409 -1.1971 -0.9386
 7805TIP3    H244907   5.424   0.746  13.767 -2.8792 -0.9021  0.8783
 7806TIP3   OH244908   3.755   2.122   3.842 -0.3686  0.3876  0.1870
 7806TIP3    H144909   3.741   2.042   3.893  2.7756 -0.9917 -0.8471
 7806TIP3    H244910   3.796   2.182   3.904 -0.2789  0.1953  0.3174
 7807TIP3   OH244911   3.545   3.028   6.630 -0.0522 -0.4922 -0.1328
 7807TIP3    H144912   3.503   2.942   6.635 -0.7042 -0.1317  1.0376
 7807TIP3    H244913   3.585   3.030   6.543  1.3891 -2.6160  0.3997
 7808TIP3   OH244914   0.092   6.144  11.711  0.7366 -0.2868 -0.0100
 7808TIP3    H144915   0.094   6.238  11.690 -1.7073 -0.4684 -1.3634
 7808TIP3    H244916   0.171   6.109  11.670  0.0887  0.7046 -2.2575
 7809TIP3   OH244917   0.893   3.602   3.212 -0.2153  0.0610  1.0265
 7809TIP3    H144918   0.915   3.675   3.270  0.9371 -0.4519  1.2644
 7809TIP3    H244919   0.908   3.637   3.124 -0.1000  0.2426  1.1173
 7810TIP3   OH244920   0.347   2.881  16.174 -0.4145 -0.0844 -0.3515
 7810TIP3    H144921   0.363   2.947  16.106  1.5749 -0.7504 -0.5919
 7810TIP3    H244922   0.405   2.906  16.246 -0.4880 -0.9086  0.0018
 7811TIP3   OH244923   6.347   2.410  10.927  0.1963  0.2007 -0.0801
 7811TIP3    H144924   6.291   2.422  10.850 -1.1337 -2.2241  0.4141
 7811TIP3    H244925   6.304   2.461  10.995  0.2591  0.7289 -0.4296
 7812TIP3   OH244926   1.152   1.264  12.380  0.3730 -0.4302 -0.9657
 7812TIP3    H144927   1.165   1.172  12.358 -0.6492 -1.1470  1.1663
 7812TIP3    H244928   1.240   1.295  12.406  0.5363 -1.0774 -0.7459
 7813TIP3   OH244929   6.461   6.497   0.647 -0.0580 -0.2626  0.4308
 7813TIP3    H144930   6.475   6.407   0.676 -0.2551 -0.1052  1.0226
 7813TIP3    H244931   6.513   6.551   0.707  0.6330 -0.0216 -0.3583
 7814TIP3   OH244932   4.600   4.985   4.125 -0.0854 -0.0727 -0.1019
 7814TIP3    H144933   4.542   5.059   4.142 -0.0260 -0.1638  0.5084
 7814TIP3    H244934   4.641   4.965   4.210 -1.6424 -2.1249  0.2504
 7815TIP3   OH244935   3.932   6.779   0.590 -0.4399 -1.0342 -0.2146
 7815TIP3    H144936   3.861   6.829   0.551 -0.4308 -0.8809 -0.0335
 7815TIP3    H244937   3.987   6.844   0.634 -0.6578 -1.2444  0.3827
 7816TIP3   OH244938   0.090   4.492   1.177  0.1226 -0.7758 -0.2508
 7816TIP3    H144939   0.161   4.480   1.114  0.9795  3.1655 -0.2682
 7816TIP3    H244940   0.093   4.414   1.232  2.0655 -2.3876 -2.4524
 7817TIP3   OH244941   5.704   0.029   2.704 -0.1037 -0.2386  0.0330
 7817TIP3    H144942   5.676   0.063   2.619  0.8811 -1.8673 -0.9979
 7817TIP3    H244943   5.799   0.045   2.707 -0.2012  0.2580  1.0668
 7818TIP3   OH244944   3.241   5.436  13.387  0.2341 -0.5535 -0.1392
 7818TIP3    H144945   3.179   5.498  13.425  0.5071  0.4277 -1.2349
 7818TIP3    H244946   3.206   5.415  13.301  0.6092 -1.2379 -0.1342
 7819TIP3   OH244947   4.836   4.070  14.740  0.9816  0.3467 -0.3639
 7819TIP3    H144948   4.793   4.155  14.741  0.7541  0.2308 -0.1747
 7819TIP3    H244949   4.791   4.021  14.671 -0.2288 -0.3015  0.8516
 7820TIP3   OH244950   3.104   5.542  17.122 -0.2469 -0.4589 -0.0677
 7820TIP3    H144951   3.014   5.512  17.107 -1.2917  2.0230  0.6081
 7820TIP3    H244952   3.154   5.508  17.048 -2.8402  2.2572 -3.3970
 7821TIP3   OH244953   3.780   4.927  15.056 -0.0508 -0.1150  0.0406
 7821TIP3    H144954   3.742   4.898  15.139  2.6651 -1.1247  1.0308
 7821TIP3    H244955   3.745   4.865  14.992 -0.7268 -0.4808  0.7380
 7822TIP3   OH244956   4.390   1.991  15.976  0.0540  0.0131 -0.3993
 7822TIP3    H144957   4.395   1.913  15.921 -0.3629  0.0567 -0.5056
 7822TIP3    H244958   4.441   2.057  15.929  0.7564 -0.3145 -0.0984
 7823TIP3   OH244959   2.672   0.947  15.925  0.3546 -0.1451 -0.1499
 7823TIP3    H144960   2.643   0.868  15.971  3.4508 -1.4030 -0.1127
 7823TIP3    H244961   2.713   1.001  15.994 -1.7314  1.5879 -0.1715
 7824TIP3   OH244962   6.121   5.055  13.955 -0.7032  0.0816 -0.2516
 7824TIP3    H144963   6.110   4.969  13.913  1.4014 -0.9834  1.1769
 7824TIP3    H244964   6.044   5.065  14.010 -1.3351 -0.5225 -0.9911
 7825TIP3   OH244965   1.506   5.110  13.998  0.0230 -0.7403  0.0111
 7825TIP3    H144966   1.583   5.163  14.019  0.0924 -0.5193 -0.7894
 7825TIP3    H244967   1.536   5.019  14.007  0.4500 -0.6585 -0.5308
 7826TIP3   OH244968   0.401   0.119  12.552  0.5452 -0.3390 -0.6462
 7826TIP3    H144969   0.448   0.042  12.520 -1.6117 -1.4233 -1.4407
 7826TIP3    H244970   0.416   0.186  12.486  2.1289 -0.1533 -0.1389
 7827TIP3   OH244971   4.275   6.360   5.960 -0.4630  0.5387  0.1512
 7827TIP3    H144972   4.206   6.415   5.998 -0.3181  2.0640 -1.6598
 7827TIP3    H244973   4.247   6.344   5.870  1.3495  0.9058 -0.5265
 7828TIP3   OH244974   6.436   4.707  12.805 -0.0397  0.5897 -0.4103
 7828TIP3    H144975   6.452   4.614  12.788  1.7471  0.8337 -0.1865
 7828TIP3    H244976   6.342   4.717  12.791 -0.8206 -1.7963  2.0655
 7829TIP3   OH244977   6.765   5.951   4.594 -0.3362  0.2418 -0.1324
 7829TIP3    H144978   6.720   6.018   4.543 -0.0905  0.3325 -0.2333
 7829TIP3    H244979   6.699   5.919   4.656 -1.5024 -1.7646 -2.2352
 7830TIP3   OH244980   2.208   0.418   0.233  0.0343 -0.3477  0.7703
 7830TIP3    H144981   2.213   0.496   0.179 -0.7369 -0.5369  0.4078
 7830TIP3    H244982   2.299   0.390   0.245  0.2903 -3.0427 -4.4575
 7831TIP3   OH244983   6.584   0.355  17.159  0.1349 -0.4189  0.1873
 7831TIP3    H144984   6.634   0.416  17.213 -1.5227  1.6420 -0.4587
 7831TIP3    H244985   6.492   0.379  17.175 -0.5356 -2.0658 -0.9316
 7832TIP3   OH244986   2.991   3.312  16.145 -0.2132  0.0036  1.0842
 7832TIP3    H144987   2.981   3.269  16.060 -0.3775 -0.9363  1.5589
 7832TIP3    H244988   2.958   3.401  16.132  0.1926  0.0211  0.0520
 7833TIP3   OH244989   4.085   5.346  12.895 -0.0828 -0.1633 -0.0377
 7833TIP3    H144990   4.008   5.300  12.929  1.1771 -1.4867  1.1610
 7833TIP3    H244991   4.087   5.324  12.802  0.2849 -2.3600  0.4304
 7834TIP3   OH244992   6.049   1.282  14.576 -0.4905 -0.1223 -0.0492
 7834TIP3    H144993   6.047   1.358  14.518 -0.4943 -0.2255 -0.1858
 7834TIP3    H244994   5.960   1.246  14.572 -0.6042  0.1079  0.3417
 7835TIP3   OH244995   3.060   4.816   0.669  0.0502  0.3610 -0.1649
 7835TIP3    H144996   3.127   4.819   0.737 -1.9031 -0.1315  1.8853
 7835TIP3    H244997   2.979   4.800   0.716 -1.5756  1.1906 -2.5322
 7836TIP3   OH244998   1.223   0.233   1.224 -0.8062  0.6351 -0.2410
 7836TIP3    H144999   1.273   0.297   1.174 -1.5285  1.7868  0.4611
 7836TIP3    H245000   1.133   0.245   1.194 -0.9453 -0.0769 -0.1175
 7837TIP3   OH245001   4.617   5.978  14.681 -0.2316 -0.5324  0.3485
 7837TIP3    H145002   4.676   5.963  14.607 -1.6648  1.2475 -1.2795
 7837TIP3    H245003   4.606   5.892  14.721  3.3375 -0.9581  0.7165
 7838TIP3   OH245004   5.884   5.621   5.277 -0.2782  0.2809 -0.4745
 7838TIP3    H145005   5.856   5.529   5.278  0.4478  0.0569  0.2998
 7838TIP3    H245006   5.836   5.659   5.203 -1.1545 -0.5338 -0.3518
 7839TIP3   OH245007   6.586   2.227  10.804  0.6111 -0.3544 -0.0606
 7839TIP3    H145008   6.506   2.203  10.757  1.9227 -0.2373 -2.5365
 7839TIP3    H245009   6.577   2.321  10.820  0.1288 -0.3992 -0.0667
 7840TIP3   OH245010   3.125   0.396  16.297 -0.2226 -0.4398 -0.1166
 7840TIP3    H145011   3.065   0.374  16.226  0.4529  1.5342 -1.3485
 7840TIP3    H245012   3.195   0.331  16.290  0.4568  0.4589 -2.0558
 7841TIP3   OH245013   1.090   6.518   1.739  0.1992 -0.5677 -0.2477
 7841TIP3    H145014   1.025   6.455   1.707  1.1999 -1.1413 -1.2129
 7841TIP3    H245015   1.092   6.504   1.834  0.8649 -2.5078 -0.4950
 7842TIP3   OH245016   0.129   0.942   5.877 -0.2477 -0.0008 -0.4587
 7842TIP3    H145017   0.132   0.869   5.940  1.1362 -0.3956 -0.9294
 7842TIP3    H245018   0.166   1.016   5.925  1.1142 -0.3829 -0.8543
 7843TIP3   OH245019   2.159   3.370   1.807  0.7041  0.2467 -0.1764
 7843TIP3    H145020   2.124   3.393   1.721  0.6889 -0.5362 -0.3904
 7843TIP3    H245021   2.209   3.447   1.834  0.2923  0.6909 -0.6585
 7844TIP3   OH245022   2.965   1.385  11.159  0.2422 -0.3046 -0.4144
 7844TIP3    H145023   2.886   1.437  11.169  1.4054  1.8831 -1.7589
 7844TIP3    H245024   3.029   1.427  11.216  0.9655 -0.8417 -0.8075
 7845TIP3   OH245025   3.926   0.898   4.309  0.0115  0.1610 -0.0305
 7845TIP3    H145026   3.946   0.990   4.292  0.8388 -0.1645 -0.8716
 7845TIP3    H245027   3.874   0.871   4.233  0.7186 -0.3619 -0.3309
 7846TIP3   OH245028   4.908   2.840  11.813  0.7928  0.5449  0.5951
 7846TIP3    H145029   4.847   2.787  11.865 -0.7273  1.0073 -0.6451
 7846TIP3    H245030   4.935   2.782  11.742  0.5333  0.8370  0.2519
 7847TIP3   OH245031   3.558   5.831  15.799 -0.7599  0.4470 -0.8106
 7847TIP3    H145032   3.639   5.785  15.822 -1.6970 -0.6251  0.4801
 7847TIP3    H245033   3.507   5.766  15.750 -1.3808  0.6604 -0.4581
 7848TIP3   OH245034   6.161   2.795  14.628 -0.2427  0.0175 -0.1196
 7848TIP3    H145035   6.135   2.866  14.685 -0.7995  0.4216 -0.8578
 7848TIP3    H245036   6.209   2.837  14.557  0.3453 -0.4621 -0.0165
 7849TIP3   OH245037   2.435   3.836  16.894  0.0057 -0.0067  0.5637
 7849TIP3    H145038   2.463   3.873  16.811  0.5934 -0.9269  0.3335
 7849TIP3    H245039   2.505   3.858  16.955 -0.3560  0.5421  0.7841
 7850TIP3   OH245040   1.390   6.033  15.088  0.7199  0.4084  0.1595
 7850TIP3    H145041   1.353   6.038  15.177  1.5957  0.1150  0.5489
 7850TIP3    H245042   1.316   6.006  15.033  0.9403 -3.0758  1.3643
 7851TIP3   OH245043   0.674   6.157   0.387  0.5266 -0.2720  0.0202
 7851TIP3    H145044   0.589   6.127   0.354  0.3778  1.3405 -1.1968
 7851TIP3    H245045   0.685   6.244   0.348  2.0861  0.1547  1.3165
 7852TIP3   OH245046   3.622   1.906  12.791  0.0892 -0.1763  0.3037
 7852TIP3    H145047   3.541   1.944  12.757  0.3103  1.4241  1.4662
 7852TIP3    H245048   3.604   1.812  12.796 -0.6366 -0.2354 -2.2043
 7853TIP3   OH245049   2.467   6.594   3.231  0.3807 -0.4553  0.3333
 7853TIP3    H145050   2.371   6.591   3.232  0.3577  0.0492 -0.0750
 7853TIP3    H245051   2.488   6.686   3.220  0.9048 -0.6323 -0.2207
 7854TIP3   OH245052   2.485   2.452   1.381 -0.4101 -0.2290 -0.1107
 7854TIP3    H145053   2.524   2.407   1.457 -1.5118  1.3932  1.4941
 7854TIP3    H245054   2.550   2.442   1.311  0.2197 -2.6263  0.7197
 7855TIP3   OH245055   1.713   1.390   4.333  0.7620 -0.0126 -0.3136
 7855TIP3    H145056   1.732   1.325   4.264  0.5631  0.1344 -0.5081
 7855TIP3    H245057   1.790   1.389   4.389  1.2891  0.4771 -1.0180
 7856TIP3   OH245058   0.154   3.627  11.534  0.3043  0.5054  0.1528
 7856TIP3    H145059   0.085   3.693  11.546 -0.9545 -0.5336 -1.0366
 7856TIP3    H245060   0.133   3.560  11.600 -0.0753  0.0112 -0.4573
 7857TIP3   OH245061   1.109   1.449  14.481 -0.4344  0.2071 -0.0489
 7857TIP3    H145062   1.199   1.463  14.451  0.4047  0.6926  2.3770
 7857TIP3    H245063   1.097   1.514  14.550 -2.3093 -0.5095  0.3667
 7858TIP3   OH245064   2.380   3.109   1.159 -0.1338 -0.5792  0.3072
 7858TIP3    H145065   2.441   3.056   1.210 -0.3136 -0.9004  0.1882
 7858TIP3    H245066   2.294   3.088   1.193 -0.1244  0.5197  1.0596
 7859TIP3   OH245067   6.046   0.308  13.505  0.4815 -0.2159  0.4913
 7859TIP3    H145068   6.027   0.381  13.563  0.8133  0.3692 -0.1108
 7859TIP3    H245069   6.042   0.230  13.561  2.3962  0.4618  1.6840
 7860TIP3   OH245070   4.943   1.055  16.554  0.6735  0.2299  0.1036
 7860TIP3    H145071   4.906   1.087  16.472  0.4107 -0.8664 -0.2216
 7860TIP3    H245072   5.037   1.046  16.536  0.3459 -2.0098 -0.7993
 7861TIP3   OH245073   1.578   0.436   0.347  0.3168  0.1246  0.1727
 7861TIP3    H145074   1.635   0.473   0.414  1.5581  0.1184 -0.8406
 7861TIP3    H245075   1.518   0.507   0.323  0.3042  0.3303  0.7975
 7862TIP3   OH245076   6.407   1.698  16.114  0.1582  0.2071 -0.1564
 7862TIP3    H145077   6.386   1.612  16.078 -0.4181 -0.8375  2.4542
 7862TIP3    H245078   6.411   1.685  16.209 -0.2895  3.1164  0.3847
 7863TIP3   OH245079   3.832   5.496   4.010  0.2974 -0.2082 -0.4133
 7863TIP3    H145080   3.775   5.561   4.051  1.3272 -0.1605  1.0466
 7863TIP3    H245081   3.912   5.543   3.989  1.6731 -1.2226  2.0891
 7864TIP3   OH245082   5.806   0.061  12.941 -0.4602 -0.3269  0.3959
 7864TIP3    H145083   5.731   0.006  12.917 -1.3663  0.5144  1.1868
 7864TIP3    H245084   5.766   0.142  12.974  0.8259  0.5060 -0.0276
 7865TIP3   OH245085   1.845   5.129   1.939 -0.4959  0.0252  0.5894
 7865TIP3    H145086   1.859   5.078   2.018 -2.9585 -0.5833  0.7091
 7865TIP3    H245087   1.787   5.200   1.966  1.1651  1.7184 -0.0455
 7866TIP3   OH245088   5.810   1.686  13.976 -0.1246  0.6048 -0.1580
 7866TIP3    H145089   5.785   1.689  13.884 -1.3956  1.3416  0.1758
 7866TIP3    H245090   5.899   1.652  13.976 -0.1528  0.4633 -1.6445
 7867TIP3   OH245091   4.390   4.555  13.929  0.3526 -0.8261 -0.4692
 7867TIP3    H145092   4.392   4.649  13.947 -0.3088 -1.1018  1.2097
 7867TIP3    H245093   4.401   4.549  13.834 -2.0110  1.0674 -0.9723
 7868TIP3   OH245094   5.104   1.735  15.696 -0.2936  0.2331 -0.1832
 7868TIP3    H145095   5.157   1.755  15.773  0.0262 -0.1335 -0.3043
 7868TIP3    H245096   5.029   1.685  15.730 -0.6276  0.8524  0.0030
 7869TIP3   OH245097   6.190   0.129  15.567  0.0796 -0.4787  0.3447
 7869TIP3    H145098   6.238   0.194  15.618 -0.5933 -1.8235  2.8781
 7869TIP3    H245099   6.102   0.166  15.557  0.7208  0.6753 -1.7422
 7870TIP3   OH245100   3.525   0.571  13.336  0.1405 -0.3564 -0.0867
 7870TIP3    H145101   3.500   0.544  13.247 -1.6441  4.2059 -1.2717
 7870TIP3    H245102   3.447   0.556  13.388  0.7651 -1.8344  0.4653
 7871TIP3   OH245103   0.749   1.090   5.648  0.3845 -0.1350 -0.1108
 7871TIP3    H145104   0.745   1.036   5.727  0.7533  0.2946  0.2039
 7871TIP3    H245105   0.665   1.075   5.605 -0.0106 -0.0066  0.6014
 7872TIP3   OH245106   3.778   1.804   1.128  0.3190  0.2216  0.0232
 7872TIP3    H145107   3.867   1.840   1.132  0.0829  1.5031 -2.9178
 7872TIP3    H245108   3.787   1.721   1.082  0.0116  0.4628 -0.4917
 7873TIP3   OH245109   6.186   2.931  14.092  0.6897  0.0570 -0.3422
 7873TIP3    H145110   6.256   2.875  14.058 -0.4236 -1.3254 -0.4448
 7873TIP3    H245111   6.194   2.925  14.187  0.6589 -0.1646 -0.3532
 7874TIP3   OH245112   4.193   3.160   2.138  0.1719 -0.2198  0.0989
 7874TIP3    H145113   4.138   3.137   2.213 -0.0787  1.5468  0.5100
 7874TIP3    H245114   4.130   3.189   2.071  0.4657 -0.5250 -0.3109
 7875TIP3   OH245115   5.916   5.544   3.437  0.0732 -0.6189 -0.1298
 7875TIP3    H145116   5.865   5.614   3.479  0.7597 -0.1388 -0.0864
 7875TIP3    H245117   5.943   5.488   3.510 -1.5607 -1.6790 -0.2855
 7876TIP3   OH245118   4.953   5.520  14.450 -0.0645 -0.6775 -0.3547
 7876TIP3    H145119   4.902   5.540  14.372 -0.4585 -0.8672 -0.1461
 7876TIP3    H245120   5.037   5.564  14.435 -0.8082  0.9511 -0.0276
 7877TIP3   OH245121   1.145   0.420  10.811 -0.3619 -0.6508 -0.4220
 7877TIP3    H145122   1.208   0.380  10.751  0.8313 -1.0682  1.0299
 7877TIP3    H245123   1.143   0.512  10.785 -0.9486 -1.0694 -1.9660
 7878TIP3   OH245124   5.295   3.570   0.082  0.7338 -0.1868 -0.2069
 7878TIP3    H145125   5.319   3.624   0.006  1.9694 -0.3625  0.0362
 7878TIP3    H245126   5.264   3.488   0.043  0.1076  0.1996 -0.5446
 7879TIP3   OH245127   3.907   2.324   3.533 -0.2830  0.0260 -0.2849
 7879TIP3    H145128   3.944   2.409   3.508  2.4574 -1.1358 -0.5386
 7879TIP3    H245129   3.837   2.308   3.470 -0.7867  2.0176 -0.2844
 7880TIP3   OH245130   0.810   3.573  11.580 -0.1713  0.0970 -0.4112
 7880TIP3    H145131   0.747   3.633  11.541  0.2759  1.2852  0.6106
 7880TIP3    H245132   0.876   3.560  11.513 -0.2493  0.8117 -0.6391
 7881TIP3   OH245133   5.532   6.548  15.151 -0.4726 -0.1644 -0.0600
 7881TIP3    H145134   5.541   6.639  15.180 -1.4695 -0.0835  0.0390
 7881TIP3    H245135   5.496   6.502  15.227 -0.1490 -0.6007 -0.1693
 7882TIP3   OH245136   2.741   6.402   1.215 -0.0703 -0.6297 -0.3270
 7882TIP3    H145137   2.711   6.413   1.124 -1.6107 -1.3524  0.0548
 7882TIP3    H245138   2.836   6.407   1.209 -0.1399 -0.4209 -1.9534
 7883TIP3   OH245139   1.611   6.701   4.585 -0.3800 -0.2017  0.2568
 7883TIP3    H145140   1.651   6.614   4.587 -1.4455 -0.7488 -1.1400
 7883TIP3    H245141   1.537   6.696   4.646 -0.1067 -0.0850  0.6045
 7884TIP3   OH245142   5.558   5.153   4.614 -0.3211  0.0303  0.2443
 7884TIP3    H145143   5.521   5.176   4.699 -1.4480 -2.0716  0.3912
 7884TIP3    H245144   5.519   5.215   4.553  0.0473  1.1903  1.1513
 7885TIP3   OH245145   5.342   1.368  14.084  0.1863 -0.7229  0.2679
 7885TIP3    H145146   5.375   1.457  14.069 -0.6558 -0.5141 -0.3813
 7885TIP3    H245147   5.285   1.376  14.161 -0.4056 -0.5713 -0.1854
 7886TIP3   OH245148   5.995   6.110   2.264 -0.2112 -0.2322 -0.1893
 7886TIP3    H145149   5.940   6.188   2.259 -2.0676 -1.3767  1.1587
 7886TIP3    H245150   6.016   6.101   2.357 -0.0427 -1.3265 -0.3163
 7887TIP3   OH245151   0.034   2.594   2.184  0.0456  0.1842 -0.2070
 7887TIP3    H145152  -0.027   2.652   2.137 -0.8881 -0.1270  0.5754
 7887TIP3    H245153   0.080   2.652   2.244  1.0118  0.5294 -1.2473
 7888TIP3   OH245154   2.662   4.362  16.206 -0.4407  0.2416 -0.0293
 7888TIP3    H145155   2.697   4.395  16.289 -0.9111  0.6466  0.0126
 7888TIP3    H245156   2.570   4.390  16.205 -0.8177 -0.9364 -0.0731
 7889TIP3   OH245157   3.416   6.067   6.273  0.1203  0.6474 -0.2344
 7889TIP3    H145158   3.321   6.069   6.289  0.2562  1.4604  0.5476
 7889TIP3    H245159   3.432   6.140   6.214  0.3450  0.8666  0.1011
 7890TIP3   OH245160   2.075   4.969  12.657  0.1244  1.4127  0.7395
 7890TIP3    H145161   2.101   5.023  12.732 -0.3466 -0.0662  2.0269
 7890TIP3    H245162   1.996   4.924  12.687  2.3487 -2.6881  1.2065
 7891TIP3   OH245163   6.109   0.662  11.868  0.8185  0.4003 -0.0326
 7891TIP3    H145164   6.181   0.634  11.924  0.4785 -0.0659  0.1834
 7891TIP3    H245165   6.146   0.665  11.780  0.5682 -1.9988 -0.2758
 7892TIP3   OH245166   2.105   5.311  15.701 -0.6070 -0.2027  0.0359
 7892TIP3    H145167   2.084   5.343  15.613 -2.0385 -0.7930  0.1481
 7892TIP3    H245168   2.037   5.348  15.757 -0.4570 -0.9008  0.6852
 7893TIP3   OH245169   0.312   5.105  13.173 -0.2496  0.0968  0.1068
 7893TIP3    H145170   0.348   5.193  13.179  0.9380 -0.4078  0.6776
 7893TIP3    H245171   0.308   5.075  13.264 -0.2944 -0.5668 -0.1117
 7894TIP3   OH245172   4.107   2.957   5.483 -0.3563  0.2508  0.2295
 7894TIP3    H145173   4.137   3.045   5.507  0.2817  0.2733 -0.6104
 7894TIP3    H245174   4.020   2.970   5.447 -0.5161  0.4578  0.6810
 7895TIP3   OH245175   5.949   4.489  15.606  0.2132  0.0347  0.2522
 7895TIP3    H145176   5.896   4.478  15.527  1.0474 -0.2349 -0.2828
 7895TIP3    H245177   5.952   4.583  15.620  2.7262  0.3755 -1.9385
 7896TIP3   OH245178   2.166   0.052  12.437 -0.0379  0.2144 -0.5065
 7896TIP3    H145179   2.104   0.062  12.509 -0.0547 -0.4955 -0.4186
 7896TIP3    H245180   2.235  -0.005  12.471 -0.6534 -1.1298 -1.4131
 7897TIP3   OH245181   6.379   5.756   1.756 -0.1089 -0.0775  0.0702
 7897TIP3    H145182   6.332   5.709   1.688 -0.0348  0.3139 -0.2543
 7897TIP3    H245183   6.429   5.823   1.709  0.1972 -0.0165  0.4779
 7898TIP3   OH245184   4.662   1.308  16.863  0.2204  0.2446  0.0378
 7898TIP3    H145185   4.696   1.281  16.948 -0.4425 -0.0096  0.2311
 7898TIP3    H245186   4.735   1.351  16.820  0.9072 -0.6639  0.2726
 7899TIP3   OH245187   4.615   1.709   0.093  0.5452  0.9254 -0.5873
 7899TIP3    H145188   4.580   1.700   0.005  1.3323  0.1170 -0.8360
 7899TIP3    H245189   4.640   1.801   0.100 -0.8970  1.3439 -0.6552
 7900TIP3   OH245190   0.054   3.095  11.307  0.1177  0.4465  0.2321
 7900TIP3    H145191   0.079   3.146  11.383  2.6145 -1.4700  0.8339
 7900TIP3    H245192   0.063   3.004  11.335 -1.0499 -0.3431 -1.7161
 7901TIP3   OH245193   1.981   4.047   0.078 -0.3031  0.0859  0.3570
 7901TIP3    H145194   2.054   4.074   0.134  1.6285 -1.6472 -1.1703
 7901TIP3    H245195   1.993   4.097  -0.003 -0.0929 -1.0669 -0.3402
 7902TIP3   OH245196   2.765   2.140   1.362  0.6293  0.6123  0.1779
 7902TIP3    H145197   2.693   2.091   1.322  2.1507 -1.0417 -0.6469
 7902TIP3    H245198   2.758   2.228   1.323  0.0482  0.0010 -1.1636
 7903TIP3   OH245199   0.618   2.029  14.853 -0.2868  0.0940 -0.1860
 7903TIP3    H145200   0.524   2.033  14.832 -0.2838  1.2566 -0.0004
 7903TIP3    H245201   0.628   1.945  14.899 -1.2214 -0.0588 -0.2345
 7904TIP3   OH245202   5.897   3.569   4.340  0.0923 -0.0171 -0.1751
 7904TIP3    H145203   5.885   3.566   4.245 -2.8276 -2.0301  0.1405
 7904TIP3    H245204   5.884   3.661   4.363 -0.2264  0.3276 -1.6275
 7905TIP3   OH245205   4.532   3.003   3.680  0.3594  0.1164 -0.6281
 7905TIP3    H145206   4.602   2.990   3.744  1.8112 -0.0250 -2.1649
 7905TIP3    H245207   4.455   3.026   3.732  1.3749 -0.3726  1.1689
 7906TIP3   OH245208   3.570   2.720  13.304  0.0047  0.8722 -0.5193
 7906TIP3    H145209   3.575   2.816  13.295  1.8184  0.9362  0.5860
 7906TIP3    H245210   3.484   2.704  13.343  1.2545  2.5519  3.5125
 7907TIP3   OH245211   5.787   1.703  11.209 -0.6471  0.1233 -0.1034
 7907TIP3    H145212   5.763   1.673  11.296  0.4086  0.3771  0.2971
 7907TIP3    H245213   5.742   1.643  11.149 -1.2462 -0.1492  0.6142
 7908TIP3   OH245214   3.681   4.465   3.511 -0.5131  1.2539  0.1950
 7908TIP3    H145215   3.621   4.519   3.460 -1.2695  0.0156 -0.2732
 7908TIP3    H245216   3.624   4.416   3.570  0.0482  0.2710 -0.0575
 7909TIP3   OH245217   3.041   4.042  14.829 -0.4573 -0.2558 -0.0204
 7909TIP3    H145218   3.002   4.130  14.833  0.3124  0.0490  1.3936
 7909TIP3    H245219   3.049   4.024  14.735 -3.6135 -0.1938 -0.4047
 7910TIP3   OH245220   2.124   5.993  14.919  0.9170 -0.1502  0.3234
 7910TIP3    H145221   2.188   6.036  14.862 -0.1528  0.0324 -0.7986
 7910TIP3    H245222   2.098   5.915  14.869  0.9325 -0.7062  1.1745
 7911TIP3   OH245223   2.987   4.718   6.787 -0.0248 -0.6334 -0.4628
 7911TIP3    H145224   2.951   4.727   6.875 -0.1301 -0.9069 -0.4765
 7911TIP3    H245225   2.962   4.629   6.760 -0.8778 -0.2021 -1.1609
 7912TIP3   OH245226   5.395   0.082   6.212  0.0750 -0.1719 -0.2755
 7912TIP3    H145227   5.322   0.070   6.273  2.2249 -2.7214  2.1025
 7912TIP3    H245228   5.360   0.057   6.127 -1.8021 -1.4229  0.7820
 7913TIP3   OH245229   3.769   1.160   1.766 -0.1881 -0.1183  0.2949
 7913TIP3    H145230   3.817   1.243   1.765 -1.2504  0.5180  0.5430
 7913TIP3    H245231   3.689   1.178   1.718 -1.2355 -0.4856  1.8396
 7914TIP3   OH245232   5.799   4.462   5.688 -0.5781 -0.0906  0.1325
 7914TIP3    H145233   5.755   4.390   5.734  0.0921  0.3522  1.5360
 7914TIP3    H245234   5.763   4.460   5.600 -0.8880 -1.8825  0.2591
 7915TIP3   OH245235   3.316   1.240  15.270 -0.2902  0.1973 -0.1459
 7915TIP3    H145236   3.282   1.208  15.354  0.3334 -1.6578 -0.5548
 7915TIP3    H245237   3.283   1.330  15.264  0.4188  0.7443  2.5004
 7916TIP3   OH245238   6.639   4.417  12.343  0.1207 -0.0949 -0.6204
 7916TIP3    H145239   6.713   4.476  12.328 -0.1801  0.5293  0.2469
 7916TIP3    H245240   6.676   4.346  12.396  0.1173  0.1995 -0.2148
 7917TIP3   OH245241   5.317   2.114   5.440  0.1217  0.2967  0.3631
 7917TIP3    H145242   5.364   2.197   5.451 -1.2694  0.8987  2.2205
 7917TIP3    H245243   5.259   2.108   5.516 -1.1669 -1.5081 -0.6677
 7918TIP3   OH245244   5.168   2.809  16.233  0.3445 -0.5148 -0.3449
 7918TIP3    H145245   5.110   2.794  16.308  0.5464 -0.8883 -0.2627
 7918TIP3    H245246   5.150   2.900  16.207  0.9368 -0.0656  0.7427
 7919TIP3   OH245247   4.747   6.752  12.900 -0.1581 -0.0684 -0.4587
 7919TIP3    H145248   4.784   6.680  12.952 -0.3112  0.0886 -0.1284
 7919TIP3    H245249   4.668   6.777  12.947  1.5036  2.4337  1.2726
 7920TIP3   OH245250   5.031   4.929   3.679 -0.4997 -0.0036 -0.3985
 7920TIP3    H145251   5.106   4.978   3.714  1.5215 -1.7666 -1.9684
 7920TIP3    H245252   4.977   4.996   3.636  0.4532  1.2642  0.2913
 7921TIP3   OH245253   3.433   2.872  10.979  0.0094  0.2221  0.0376
 7921TIP3    H145254   3.392   2.935  10.920  0.5229  1.3886  0.8858
 7921TIP3    H245255   3.502   2.922  11.023  1.1244 -1.2111 -0.0134
 7922TIP3   OH245256   3.138   1.950   2.885 -0.8014 -0.2327 -0.2958
 7922TIP3    H145257   3.050   1.962   2.851 -0.3901  0.8207 -1.0407
 7922TIP3    H245258   3.194   1.953   2.807 -0.0308  0.1297  0.2614
 7923TIP3   OH245259   3.264   6.807   2.745  0.3488 -0.3520 -0.1176
 7923TIP3    H145260   3.203   6.783   2.674 -2.9253  0.2590  2.2619
 7923TIP3    H245261   3.251   6.901   2.756 -0.6823 -0.7401  2.4774
 7924TIP3   OH245262   3.587   4.223  16.552 -0.3117  0.0134  0.3859
 7924TIP3    H145263   3.603   4.308  16.594  1.5136  0.5544 -1.2817
 7924TIP3    H245264   3.654   4.165  16.589  0.1974  0.0431 -0.4631
 7925TIP3   OH245265   0.216   4.520   4.312  0.1223  0.1243 -0.0042
 7925TIP3    H145266   0.188   4.596   4.261  1.0643  1.7833  1.8104
 7925TIP3    H245267   0.178   4.534   4.399  0.6829 -1.2550  0.4923
 7926TIP3   OH245268   4.348   5.438   4.524 -0.2356  0.5072 -0.4138
 7926TIP3    H145269   4.286   5.512   4.526  0.0171  0.7362 -1.0247
 7926TIP3    H245270   4.301   5.369   4.477 -0.1041  0.6080 -0.6912
 7927TIP3   OH245271   2.498   6.123  15.773  0.3564 -0.4465 -0.3501
 7927TIP3    H145272   2.409   6.115  15.806 -0.0719  1.1770 -1.0462
 7927TIP3    H245273   2.553   6.101  15.848 -0.6163 -0.7147  0.2987
 7928TIP3   OH245274   3.102   1.658  12.823 -0.2835 -0.2688 -0.3903
 7928TIP3    H145275   3.021   1.615  12.799  0.2118 -1.3485 -0.1816
 7928TIP3    H245276   3.148   1.671  12.740 -0.6748  0.3612 -0.5100
 7929TIP3   OH245277   0.698   1.924  13.156  0.5013 -0.2296  0.1533
 7929TIP3    H145278   0.672   1.854  13.095  0.0996  0.6448 -0.7139
 7929TIP3    H245279   0.780   1.958  13.120  1.1523 -0.8152  1.0595
 7930TIP3   OH245280   2.054   6.723   1.455  0.5830 -0.2155  0.5046
 7930TIP3    H145281   2.124   6.706   1.519  1.0146  2.7211  0.9358
 7930TIP3    H245282   1.976   6.741   1.508  0.1652 -0.7913  0.0965
 7931TIP3   OH245283   5.520   3.668   2.370 -0.6640  0.2949 -0.2777
 7931TIP3    H145284   5.579   3.737   2.340  0.3695  0.4440  1.9307
 7931TIP3    H245285   5.457   3.712   2.427 -1.0299 -0.3598 -0.1602
 7932TIP3   OH245286   6.742   6.253  15.745  0.0600 -0.3362  0.0192
 7932TIP3    H145287   6.749   6.238  15.840 -0.9614  0.5345  0.2496
 7932TIP3    H245288   6.679   6.188  15.715  0.3854 -0.6134 -0.0581
 7933TIP3   OH245289   3.706   5.187  13.997 -0.1290  0.0259 -0.3906
 7933TIP3    H145290   3.712   5.095  14.023  1.9332  0.2392  0.0617
 7933TIP3    H245291   3.754   5.234  14.065 -0.1233  1.3054 -1.2455
 7934TIP3   OH245292   6.074   5.370  14.669 -0.2160 -1.0385  0.0073
 7934TIP3    H145293   6.093   5.389  14.577 -0.5429 -0.7450 -0.0013
 7934TIP3    H245294   6.060   5.275  14.672 -0.1505 -1.0570 -0.2337
 7935TIP3   OH245295   1.371   0.695   1.741  0.3148 -0.3662  0.0551
 7935TIP3    H145296   1.395   0.785   1.761 -0.8395 -0.1102  0.3808
 7935TIP3    H245297   1.388   0.685   1.647  1.0966 -0.0337  0.1559
 7936TIP3   OH245298   3.215   1.484   5.531  0.1756  0.2878  0.1880
 7936TIP3    H145299   3.200   1.449   5.443  0.3688  0.9659 -0.1263
 7936TIP3    H245300   3.303   1.523   5.526  0.7633 -0.8508  1.0754
 7937TIP3   OH245301   1.945   3.600   3.616  0.3401 -0.1534  0.3989
 7937TIP3    H145302   1.938   3.583   3.710 -0.2773 -0.0854  0.3738
 7937TIP3    H245303   1.871   3.658   3.597  1.6182  1.4796  0.2385
 7938TIP3   OH245304   6.243   2.384  12.263  0.1923  0.1186 -0.5785
 7938TIP3    H145305   6.318   2.325  12.262 -0.1832 -0.3866 -0.2783
 7938TIP3    H245306   6.217   2.388  12.356  0.0817  0.5858 -0.6265
 7939TIP3   OH245307   4.015   0.446  15.633 -0.1351 -0.3464 -0.0302
 7939TIP3    H145308   3.973   0.395  15.564  0.3145  1.3741 -1.6509
 7939TIP3    H245309   3.953   0.443  15.706 -1.7170 -0.3294 -1.3099
 7940TIP3   OH245310   5.422   2.698   3.631 -0.1673  0.0972  0.1772
 7940TIP3    H145311   5.381   2.686   3.545  0.0176  2.3484 -0.2888
 7940TIP3    H245312   5.402   2.617   3.678 -0.4950 -1.1005 -1.8734
 7941TIP3   OH245313   1.057   3.151   4.139 -0.3177 -0.6571 -0.5104
 7941TIP3    H145314   1.009   3.214   4.086  0.4502 -0.9193 -1.5628
 7941TIP3    H245315   1.148   3.183   4.137 -0.2941 -0.6112  0.7590
 7942TIP3   OH245316   3.009   3.972  12.818 -0.4716  0.2492 -0.5693
 7942TIP3    H145317   2.993   3.958  12.911  1.8322  2.1046  0.1984
 7942TIP3    H245318   3.005   4.067  12.807 -3.3534  0.0109 -2.9897
 7943TIP3   OH245319   6.045   5.609  13.356 -0.4347  0.3601  0.1434
 7943TIP3    H145320   6.042   5.620  13.261 -1.2394 -0.4946  0.0474
 7943TIP3    H245321   6.095   5.528  13.369  0.3794  0.9139  0.4935
 7944TIP3   OH245322   5.504   2.720   1.538 -0.2410 -0.3051 -0.3780
 7944TIP3    H145323   5.569   2.724   1.609  0.4707 -0.5066 -1.0061
 7944TIP3    H245324   5.420   2.734   1.582  0.4015  2.3290  0.1652
 7945TIP3   OH245325   0.675   0.143  13.515  0.1419 -0.0412 -0.0278
 7945TIP3    H145326   0.608   0.147  13.448 -2.1937 -0.5227  2.1268
 7945TIP3    H245327   0.726   0.223  13.503 -1.3637  0.7891 -1.2227
 7946TIP3   OH245328   4.503   0.777  13.971 -0.3451  0.4689  0.4261
 7946TIP3    H145329   4.521   0.838  14.043  2.3598 -0.6246  0.7901
 7946TIP3    H245330   4.439   0.716  14.007 -0.8591  1.3276  1.0335
 7947TIP3   OH245331   2.442   5.876   5.050  0.1650  0.3551  0.2373
 7947TIP3    H145332   2.376   5.858   5.117  1.4139 -1.1852  1.1417
 7947TIP3    H245333   2.426   5.810   4.983 -1.4816  2.2819 -1.3918
 7948TIP3   OH245334   4.519   3.132   5.691  0.1112  0.0178 -0.1959
 7948TIP3    H145335   4.457   3.202   5.671 -0.2326 -0.3960 -0.5954
 7948TIP3    H245336   4.585   3.138   5.622 -0.9757 -1.2917 -1.3965
 7949TIP3   OH245337   1.012   3.107   3.512 -0.0255  0.7433 -0.2134
 7949TIP3    H145338   1.035   3.054   3.588 -0.5259  1.5963  0.5490
 7949TIP3    H245339   1.089   3.161   3.497 -0.0238  0.7571 -0.1550
 7950TIP3   OH245340   2.107   4.315  12.291 -0.2509 -0.3188  0.1127
 7950TIP3    H145341   2.128   4.328  12.384  1.6965  0.1841 -0.3341
 7950TIP3    H245342   2.146   4.230  12.270 -2.3298 -1.3434  0.1498
 7951TIP3   OH245343   6.476   1.182  13.624  0.3804 -0.4287 -0.3871
 7951TIP3    H145344   6.388   1.177  13.587 -1.7077 -0.4658  3.9764
 7951TIP3    H245345   6.508   1.091  13.621 -0.2355 -0.6344 -0.9698
 7952TIP3   OH245346   6.463   5.342   3.008 -0.1139 -0.1935 -0.6634
 7952TIP3    H145347   6.546   5.388   2.999  0.1172 -0.5291 -0.2938
 7952TIP3    H245348   6.397   5.403   2.974  0.3006  0.0074 -1.1100
 7953TIP3   OH245349   1.494   5.408  13.891 -0.7365 -0.3642 -0.2763
 7953TIP3    H145350   1.541   5.378  13.813 -1.5625  0.1582 -0.9952
 7953TIP3    H245351   1.467   5.327  13.935  1.3809 -0.6826  0.5220
 7954TIP3   OH245352   0.208   5.832  16.916  0.0403  0.5155 -0.5350
 7954TIP3    H145353   0.176   5.921  16.898 -2.2971  0.5972  3.1227
 7954TIP3    H245354   0.132   5.776  16.901  0.7486 -0.5291 -0.2798
 7955TIP3   OH245355   1.470   0.423   4.427  0.4941  0.2133  0.1381
 7955TIP3    H145356   1.530   0.458   4.362  1.6369 -0.9521  0.5283
 7955TIP3    H245357   1.482   0.478   4.504  0.0590  0.8166 -0.2203
 7956TIP3   OH245358   0.270   2.599  14.614 -0.0184 -0.4237  0.5423
 7956TIP3    H145359   0.289   2.678  14.564  0.2111 -1.0299 -0.3647
 7956TIP3    H245360   0.206   2.552  14.560  0.3000 -1.1385  0.7763
 7957TIP3   OH245361   3.957   1.076  15.820  0.0950 -0.1011 -0.3172
 7957TIP3    H145362   3.902   1.008  15.860  0.7089  0.0253  0.7725
 7957TIP3    H245363   3.941   1.068  15.726  0.5536 -2.0986 -0.2506
 7958TIP3   OH245364   0.639   3.775   3.723  0.1759 -0.4670 -0.3950
 7958TIP3    H145365   0.611   3.749   3.811 -0.9477 -0.3676 -0.7094
 7958TIP3    H245366   0.589   3.718   3.664  0.5218 -0.1696 -0.9895
 7959TIP3   OH245367   2.038   3.020   0.365  0.2144 -0.5379  0.5160
 7959TIP3    H145368   2.105   2.983   0.422  1.8518  2.3985  0.6738
 7959TIP3    H245369   1.995   3.088   0.417  0.5192  0.9723 -1.0962
 7960TIP3   OH245370   1.757   6.150  13.242 -0.1854  0.8614 -0.0187
 7960TIP3    H145371   1.724   6.203  13.315 -3.5189  0.6301 -1.2032
 7960TIP3    H245372   1.780   6.066  13.282 -0.8606  1.1079  0.9227
 7961TIP3   OH245373   5.226   5.866  14.824  0.5639  0.1162  0.6374
 7961TIP3    H145374   5.260   5.955  14.833  1.3907  0.0847 -1.5722
 7961TIP3    H245375   5.133   5.878  14.801  0.2671  0.3274  1.8628
 7962TIP3   OH245376   6.093   2.742   4.619  0.2824 -0.0341  0.0778
 7962TIP3    H145377   6.072   2.682   4.690  0.0416 -0.7370 -0.5830
 7962TIP3    H245378   6.094   2.688   4.540 -0.2751  0.8805 -0.5782
 7963TIP3   OH245379   1.697   1.761   5.172 -0.0969 -0.6322 -0.5215
 7963TIP3    H145380   1.709   1.833   5.110  1.1139 -1.4268 -1.2583
 7963TIP3    H245381   1.774   1.765   5.229 -0.3794 -0.9133 -0.1122
 7964TIP3   OH245382   0.913   3.718  16.490 -0.1107  0.5379  0.4596
 7964TIP3    H145383   0.871   3.632  16.493  0.9631 -0.0128  0.4252
 7964TIP3    H245384   0.968   3.715  16.411 -0.8674  1.6565 -0.1352
 7965TIP3   OH245385   1.678   4.396  16.178 -0.3084  0.1065  0.1089
 7965TIP3    H145386   1.730   4.319  16.153  0.4773  0.7373 -0.2282
 7965TIP3    H245387   1.596   4.359  16.212  0.9624 -0.9939  2.1937
 7966TIP3   OH245388   2.787   1.231   3.851  0.1485  0.0809  0.1650
 7966TIP3    H145389   2.793   1.265   3.940 -1.1810 -1.2293  0.8050
 7966TIP3    H245390   2.744   1.300   3.801 -1.0407  0.0057  1.0568
 7967TIP3   OH245391   5.665   5.260   3.304  0.1096 -0.0829  0.3843
 7967TIP3    H145392   5.747   5.212   3.316  0.8180  0.4874 -1.7811
 7967TIP3    H245393   5.608   5.227   3.374  1.7014 -1.5148  1.0879
 7968TIP3   OH245394   3.890   1.877  14.880 -0.5508  0.1518 -0.7201
 7968TIP3    H145395   3.983   1.897  14.882 -0.3040 -0.8109 -1.6659
 7968TIP3    H245396   3.864   1.873  14.972  0.7562 -1.3832 -0.3792
 7969TIP3   OH245397   5.110   3.762  15.779 -0.1532  0.3597 -0.3310
 7969TIP3    H145398   5.160   3.782  15.700 -3.2676 -1.7455 -3.0895
 7969TIP3    H245399   5.063   3.843  15.798  2.7245  1.8346  1.3453
 7970TIP3   OH245400   1.483   2.225  17.274 -0.6571  0.4851 -0.1527
 7970TIP3    H145401   1.484   2.152  17.212 -0.4546  0.8618 -0.5939
 7970TIP3    H245402   1.555   2.281  17.246 -1.8831  1.7584 -0.9169
 7971TIP3   OH245403   4.814   6.553  11.835  0.0488  0.6882 -0.2141
 7971TIP3    H145404   4.730   6.517  11.865  1.6202 -1.7483  1.7268
 7971TIP3    H245405   4.855   6.588  11.915  1.5522  0.2845 -0.7667
 7972TIP3   OH245406   5.209   6.285   5.451 -0.0790 -0.6390 -0.6032
 7972TIP3    H145407   5.284   6.332   5.486 -0.1084  0.1392 -1.5298
 7972TIP3    H245408   5.237   6.254   5.365 -0.5376 -1.0950 -0.5971
 7973TIP3   OH245409   6.346   3.517  12.512 -0.5134 -0.3903  0.1118
 7973TIP3    H145410   6.339   3.547  12.602  1.2267  0.6637 -0.0460
 7973TIP3    H245411   6.396   3.436  12.517  0.7669  0.3549  0.0474
 7974TIP3   OH245412   3.764   4.665   1.507  0.1913 -0.3735 -0.2145
 7974TIP3    H145413   3.672   4.667   1.484  0.8947 -0.9469 -3.6365
 7974TIP3    H245414   3.772   4.726   1.581 -3.0179 -1.1568  0.9290
 7975TIP3   OH245415   6.502   1.368   0.900 -0.2040  0.3374  0.2756
 7975TIP3    H145416   6.414   1.388   0.868  0.2604  0.3076 -1.0649
 7975TIP3    H245417   6.534   1.299   0.843  0.6108  0.1769  0.9045
 7976TIP3   OH245418   1.213   4.067   2.456  0.4858  0.1344  0.0439
 7976TIP3    H145419   1.300   4.025   2.453  0.7115  0.6438 -1.0242
 7976TIP3    H245420   1.232   4.160   2.461 -0.0097  0.2176  0.4226
 7977TIP3   OH245421   2.969   2.683  14.874 -0.4525  0.0017 -0.4600
 7977TIP3    H145422   3.033   2.619  14.842  0.5192  1.0298 -0.6041
 7977TIP3    H245423   3.022   2.748  14.920 -1.5697 -0.0564  0.9593
 7978TIP3   OH245424   1.130   5.298   5.671  0.7174 -0.7391  0.2146
 7978TIP3    H145425   1.184   5.248   5.732  1.2361 -0.0410  0.3511
 7978TIP3    H245426   1.168   5.280   5.585  0.1862 -1.4716  0.1277
 7979TIP3   OH245427   0.363   2.009  14.554  0.2798  0.2643 -0.0485
 7979TIP3    H145428   0.434   1.954  14.520 -0.1939 -0.0824 -0.4968
 7979TIP3    H245429   0.351   1.979  14.644 -1.0315 -1.4959 -0.7493
 7980TIP3   OH245430   4.903   3.794   5.213  0.2737 -0.1145 -0.1503
 7980TIP3    H145431   4.966   3.865   5.201  1.1142 -1.0873 -1.9625
 7980TIP3    H245432   4.870   3.806   5.302  1.0331  1.9963 -0.0982
 7981TIP3   OH245433   3.274   4.801   5.639  0.3189 -0.6806 -0.3872
 7981TIP3    H145434   3.298   4.816   5.548  1.8170 -0.4577  0.0132
 7981TIP3    H245435   3.302   4.880   5.685 -1.2538 -0.3962  0.1561
 7982TIP3   OH245436   4.001   3.902   2.065 -0.0615 -0.4826  0.3311
 7982TIP3    H145437   3.989   3.869   1.976  0.1598 -0.5000  0.3069
 7982TIP3    H245438   3.988   3.825   2.121 -0.1571 -0.4806  0.3126
 7983TIP3   OH245439   6.014   3.171   5.431 -0.3386 -0.2819 -0.3590
 7983TIP3    H145440   6.042   3.249   5.383  1.2846 -0.7084 -0.1672
 7983TIP3    H245441   6.063   3.174   5.513  0.5080 -1.9647 -0.7412
 7984TIP3   OH245442   3.926   5.100  15.582 -0.1909 -0.0381 -0.6961
 7984TIP3    H145443   4.015   5.065  15.582  0.4055  1.3778 -1.5174
 7984TIP3    H245444   3.883   5.058  15.657  1.1802 -0.7054 -0.2626
 7985TIP3   OH245445   1.239   2.111   5.088 -0.0635  0.1276  0.2544
 7985TIP3    H145446   1.167   2.165   5.119  0.7944  0.3096  2.0382
 7985TIP3    H245447   1.268   2.062   5.165  1.5793 -0.0978 -0.4662
 7986TIP3   OH245448   1.216   3.730   5.872 -0.1282 -0.5897 -0.3737
 7986TIP3    H145449   1.149   3.662   5.878 -1.4010  0.6286 -0.5501
 7986TIP3    H245450   1.168   3.812   5.863  1.3337  0.5023  1.0439
 7987TIP3   OH245451   5.081   1.225   2.466 -0.4654 -0.3701 -0.1573
 7987TIP3    H145452   5.010   1.161   2.456 -1.9047  0.8937  1.3076
 7987TIP3    H245453   5.045   1.306   2.428  0.3386  0.1927  0.2676
 7988TIP3   OH245454   5.783   6.540   4.562 -0.4199  0.1417 -0.1732
 7988TIP3    H145455   5.720   6.516   4.629  1.0889 -0.5777  1.0445
 7988TIP3    H245456   5.809   6.630   4.584  1.4525 -0.7239  1.3915
 7989TIP3   OH245457   6.023   2.047  15.146  0.5470  0.0075  0.2469
 7989TIP3    H145458   6.094   1.984  15.155  0.2361 -0.3085  0.5740
 7989TIP3    H245459   6.009   2.080  15.235  0.2871  0.0605  0.1881
 7990TIP3   OH245460   3.000   6.512  14.373 -0.4300 -0.4374  0.3203
 7990TIP3    H145461   3.057   6.492  14.298 -0.8841  0.5569 -0.3211
 7990TIP3    H245462   3.049   6.577  14.423 -0.6789 -0.1179  0.1574
 7991TIP3   OH245463   1.430   1.985  12.958  0.4423  0.2086  0.5918
 7991TIP3    H145464   1.390   2.035  12.886  0.5428 -0.0482  0.3574
 7991TIP3    H245465   1.443   1.898  12.922  1.1362  0.2668  0.6992
 7992TIP3   OH245466   0.050   2.451   0.608 -0.0454  0.1901  0.0290
 7992TIP3    H145467   0.125   2.459   0.548  0.6212  0.3637  0.8676
 7992TIP3    H245468   0.087   2.413   0.688 -0.6901  1.0369  0.7542
 7993TIP3   OH245469   3.021   0.062  12.166 -0.2544 -0.2723 -0.6916
 7993TIP3    H145470   3.026  -0.009  12.103  0.3451  0.0920 -1.0592
 7993TIP3    H245471   3.111   0.077  12.194 -0.6414 -1.2697  1.2157
 7994TIP3   OH245472   2.665   3.067  14.509  0.0632  0.8881 -0.0217
 7994TIP3    H145473   2.655   3.118  14.589 -2.6000 -1.1230  1.0817
 7994TIP3    H245474   2.736   3.007  14.528  0.8794  1.8310 -0.0163
 7995TIP3   OH245475   3.038   6.058  14.921 -0.0161 -0.0747  0.6979
 7995TIP3    H145476   2.943   6.068  14.911  0.0837 -1.0729 -2.6314
 7995TIP3    H245477   3.050   5.968  14.952 -0.1599 -0.3171  0.0682
 7996TIP3   OH245478   0.796   5.327  15.860  0.0082 -0.2342 -0.0755
 7996TIP3    H145479   0.830   5.327  15.950  0.7237 -0.2402 -0.3425
 7996TIP3    H245480   0.806   5.236  15.831 -1.4262 -0.5260  0.2772
 7997TIP3   OH245481   1.836   1.853   3.755 -0.2866 -0.1177  0.4234
 7997TIP3    H145482   1.897   1.791   3.796 -0.2979 -0.1653  0.3693
 7997TIP3    H245483   1.851   1.936   3.800  0.2344  0.0150  0.0050
 7998TIP3   OH245484   2.092   1.596   2.611 -0.1206 -0.0408  0.0580
 7998TIP3    H145485   2.168   1.614   2.667 -0.0721 -0.7633  0.2290
 7998TIP3    H245486   2.118   1.626   2.524  0.2669 -0.0623  0.1657
 7999TIP3   OH245487   2.313   5.792   1.697  0.1994 -0.2045 -0.7600
 7999TIP3    H145488   2.369   5.845   1.639 -1.1299 -0.9169 -2.8009
 7999TIP3    H245489   2.232   5.841   1.704  1.1684  1.1862  2.7964
 8000TIP3   OH245490   6.437   1.494   1.164 -0.2663  0.5269  0.1840
 8000TIP3    H145491   6.381   1.570   1.149  1.2408  1.2790 -2.0526
 8000TIP3    H245492   6.503   1.498   1.095  0.6650 -2.0955  0.7985
 8001TIP3   OH245493   5.124   3.192  16.892  0.0420  0.2270  0.4505
 8001TIP3    H145494   5.165   3.273  16.861  2.6822 -1.8306 -2.0481
 8001TIP3    H245495   5.197   3.138  16.923 -1.3447 -1.9061  0.2626
 8002TIP3   OH245496   2.238   2.801   0.744 -0.7775  0.1563  0.0163
 8002TIP3    H145497   2.307   2.776   0.806 -0.1287  0.4203 -0.5896
 8002TIP3    H245498   2.205   2.717   0.710 -0.1042  0.0518 -0.3892
 8003TIP3   OH245499   3.838   4.271   2.521  0.4312 -0.0249  0.2242
 8003TIP3    H145500   3.876   4.186   2.501  0.2429  0.4001 -2.3712
 8003TIP3    H245501   3.746   4.253   2.539  0.4411 -0.4029 -0.0881
 8004TIP3   OH245502   2.285   6.327   1.916  0.3139 -0.2764  0.0516
 8004TIP3    H145503   2.204   6.285   1.888 -1.1563  0.7244  2.5499
 8004TIP3    H245504   2.343   6.254   1.938 -0.1553 -1.0001 -1.0107
 8005TIP3   OH245505   2.856   5.627  12.160 -0.3912 -0.4794  0.4294
 8005TIP3    H145506   2.892   5.546  12.197 -0.4584 -0.2060  1.0983
 8005TIP3    H245507   2.897   5.633  12.074 -2.3602 -2.6240 -0.7925
 8006TIP3   OH245508   0.549   5.393  15.121  0.5893  0.4674  0.0421
 8006TIP3    H145509   0.512   5.456  15.060 -0.1341  0.7706  0.7826
 8006TIP3    H245510   0.644   5.404  15.112  0.4777  1.4932  0.0007
 8007TIP3   OH245511   2.361   6.633  14.240  1.1122 -0.5299  0.2106
 8007TIP3    H145512   2.358   6.602  14.150  1.7581 -1.4399  0.4834
 8007TIP3    H245513   2.420   6.708  14.238  0.7668 -0.2685 -0.2041
 8008TIP3   OH245514   3.638   0.334  14.205 -0.3428 -0.1845 -0.2846
 8008TIP3    H145515   3.615   0.315  14.113 -1.6667  1.5854 -0.3681
 8008TIP3    H245516   3.568   0.392  14.236  0.1682 -0.6098  1.8160
 8009TIP3   OH245517   4.348   5.611   0.490 -0.6510 -0.7805  0.4329
 8009TIP3    H145518   4.371   5.519   0.501 -0.5480 -0.8775 -0.5314
 8009TIP3    H245519   4.353   5.626   0.396 -0.1841  0.3380  0.6186
 8010TIP3   OH245520   4.059   3.646   5.819  0.0251  0.1207  0.0711
 8010TIP3    H145521   4.060   3.737   5.848 -2.0865 -0.5409  2.7376
 8010TIP3    H245522   3.987   3.642   5.756  0.0829  0.2881 -0.0062
 8011TIP3   OH245523   0.706   2.682   0.100  0.2194 -0.6187  0.8153
 8011TIP3    H145524   0.724   2.773   0.076 -0.6005 -0.7338 -0.3240
 8011TIP3    H245525   0.694   2.637   0.016  0.0422 -1.6546  1.3780
 8012TIP3   OH245526   2.691   5.323   5.644 -0.5001 -0.1502 -0.0382
 8012TIP3    H145527   2.721   5.259   5.579 -0.6136 -1.8736  1.5142
 8012TIP3    H245528   2.728   5.406   5.615 -0.2690 -0.9126 -2.0998
 8013TIP3   OH245529   0.361   0.560   5.317 -0.0524 -0.2064  1.2350
 8013TIP3    H145530   0.302   0.486   5.325  1.4683 -2.4886 -4.0247
 8013TIP3    H245531   0.311   0.625   5.268  0.6571 -0.7342 -0.2392
 8014TIP3   OH245532   1.389   5.884   5.877  0.4904 -0.2727 -0.1305
 8014TIP3    H145533   1.305   5.898   5.834  0.0954  0.8949  0.9496
 8014TIP3    H245534   1.366   5.854   5.965  1.2531 -1.7133 -0.4005
 8015TIP3   OH245535   1.695   1.009  13.778  0.3269 -0.1979 -0.2210
 8015TIP3    H145536   1.652   0.950  13.717  1.6131 -0.3201 -1.0377
 8015TIP3    H245537   1.710   1.089  13.727 -1.5079  0.9308  0.8983
 8016TIP3   OH245538   1.716   2.220   2.460  0.2328  0.2349  0.3284
 8016TIP3    H145539   1.639   2.266   2.494  0.2741 -0.4181  1.3582
 8016TIP3    H245540   1.716   2.136   2.507  1.0534 -0.1584 -0.3424
 8017TIP3   OH245541   1.969   1.981   1.572 -0.2063 -0.5459  0.1885
 8017TIP3    H145542   2.035   2.050   1.567 -0.4060 -0.4249 -1.0018
 8017TIP3    H245543   1.950   1.973   1.666 -0.8183  1.6416  0.3145
 8018TIP3   OH245544   1.403   3.387   4.802  0.1641  0.0735  0.2943
 8018TIP3    H145545   1.348   3.309   4.793  3.1052 -2.0229 -1.2702
 8018TIP3    H245546   1.426   3.411   4.712 -0.1825  2.4610  0.7689
 8019TIP3   OH245547   3.539   4.660  14.744  0.0714 -0.4685  0.2793
 8019TIP3    H145548   3.625   4.627  14.717  0.6352  1.4882 -0.5144
 8019TIP3    H245549   3.548   4.676  14.838  1.1841  1.2456 -0.0642
 8020TIP3   OH245550   4.679   0.563   2.970  0.3479 -0.7508 -0.1518
 8020TIP3    H145551   4.663   0.470   2.986  2.6290 -0.9287  1.7208
 8020TIP3    H245552   4.640   0.580   2.885 -0.9735 -3.1806 -0.1238
 8021TIP3   OH245553   2.169   6.043  11.530 -0.7692  0.0099  0.0957
 8021TIP3    H145554   2.082   6.037  11.569 -2.9476 -1.3482 -4.3534
 8021TIP3    H245555   2.216   5.966  11.562 -1.7606 -0.1142  1.2909
 8022TIP3   OH245556   3.502   4.767  11.050  0.0084  0.3461 -0.5177
 8022TIP3    H145557   3.457   4.737  10.971 -1.7810  0.4819  0.3766
 8022TIP3    H245558   3.444   4.836  11.084  0.0039 -0.6450  1.6156
 8023TIP3   OH245559   0.016   2.305  14.833  0.0606 -0.0954  0.5597
 8023TIP3    H145560  -0.048   2.297  14.905 -2.7368 -1.4008 -1.8474
 8023TIP3    H245561   0.045   2.215  14.818  0.8365  0.2077  0.2353
 8024TIP3   OH245562   0.509   0.138  13.287 -0.2423  0.0019 -0.4972
 8024TIP3    H145563   0.543   0.177  13.206  0.6881  0.2858  0.0113
 8024TIP3    H245564   0.420   0.171  13.295 -0.6394 -0.6955 -1.8415
 8025TIP3   OH245565   5.293   0.484  16.320 -0.6002 -0.3974 -0.4570
 8025TIP3    H145566   5.331   0.416  16.264 -1.4251 -0.6087 -0.7654
 8025TIP3    H245567   5.364   0.547  16.332 -0.1821 -0.7267 -1.1243
 8026TIP3   OH245568   2.550   1.009   5.308  0.2780  0.0741  0.3964
 8026TIP3    H145569   2.473   1.016   5.364  1.2463  0.6082  1.7008
 8026TIP3    H245570   2.624   1.015   5.368  1.3616 -2.4498 -0.5695
 8027TIP3   OH245571   4.648   0.647  16.375  0.4773  0.1659  0.6685
 8027TIP3    H145572   4.734   0.658  16.335  1.0435 -1.6176  1.3017
 8027TIP3    H245573   4.588   0.693  16.316  1.3726 -1.6289 -1.7997
 8028TIP3   OH245574   2.559   0.783  16.174  0.1560  0.2404 -0.4292
 8028TIP3    H145575   2.541   0.877  16.177  1.3198  0.4665  0.2796
 8028TIP3    H245576   2.573   0.758  16.265 -2.8734 -1.2445 -0.2550
 8029TIP3   OH245577   0.633   6.512  16.064  0.8239  0.4003  0.1257
 8029TIP3    H145578   0.614   6.542  16.153  0.9611  0.9551 -0.0294
 8029TIP3    H245579   0.722   6.477  16.069  0.7789  0.3023  0.2395
 8030TIP3   OH245580   4.054   2.207  15.230 -0.0385  0.2087  0.2448
 8030TIP3    H145581   4.006   2.203  15.313 -0.1267  1.8479  0.3231
 8030TIP3    H245582   4.127   2.146  15.240 -0.4272 -0.1021  1.2723
 8031TIP3   OH245583   3.570   3.323   5.285  0.3739  0.3272  0.1654
 8031TIP3    H145584   3.487   3.363   5.261  0.7297  1.2428  0.4157
 8031TIP3    H245585   3.570   3.322   5.381  1.1418  1.4244  0.1912
 8032TIP3   OH245586   1.764   0.753  15.104  0.3962 -0.2197  0.0099
 8032TIP3    H145587   1.833   0.818  15.093 -1.5577  1.7368 -1.4477
 8032TIP3    H245588   1.788   0.682  15.045  1.0885  0.4829 -0.5725
 8033TIP3   OH245589   4.764   6.583   5.947  0.5829 -0.0225  0.2270
 8033TIP3    H145590   4.754   6.671   5.986  1.7920 -0.2600  1.1676
 8033TIP3    H245591   4.679   6.565   5.907  0.7396  2.1869 -1.3093
 8034TIP3   OH245592   0.368   4.545   3.267 -0.0105 -0.7079 -0.0764
 8034TIP3    H145593   0.375   4.532   3.362 -0.7733  1.6665  0.3774
 8034TIP3    H245594   0.274   4.556   3.252 -0.0763 -2.6893 -1.4080
 8035TIP3   OH245595   3.273   1.600  13.392 -0.7195  0.3596 -0.2142
 8035TIP3    H145596   3.349   1.601  13.450 -1.0091  3.3599  0.2559
 8035TIP3    H245597   3.229   1.517  13.411  1.1542 -0.3713  1.2038
 8036TIP3   OH245598   3.707   2.954  12.794  0.1207  0.0747  0.0068
 8036TIP3    H145599   3.626   2.912  12.767  0.2479 -0.4690  0.4577
 8036TIP3    H245600   3.678   3.033  12.841 -0.1053  0.7616 -1.2400
 8037TIP3   OH245601   5.815   1.501  16.989 -0.0526 -0.5878  0.0299
 8037TIP3    H145602   5.805   1.418  17.034  2.1435 -2.3391 -2.4274
 8037TIP3    H245603   5.729   1.518  16.950 -0.2912 -2.2740 -0.2625
 8038TIP3   OH245604   3.672   2.819  11.572  0.1114 -0.5983 -0.2414
 8038TIP3    H145605   3.766   2.799  11.569  0.7841  1.7941  1.1933
 8038TIP3    H245606   3.662   2.896  11.515 -0.7046 -0.0635  0.5895
 8039TIP3   OH245607   2.569   5.543  11.277  0.1955 -0.0981 -0.2546
 8039TIP3    H145608   2.490   5.503  11.311 -1.0121  1.9031 -0.5094
 8039TIP3    H245609   2.593   5.489  11.202  0.0295 -1.6674  0.7908
 8040TIP3   OH245610   1.656   5.213  13.463 -0.2204  0.7863 -0.4929
 8040TIP3    H145611   1.658   5.181  13.554 -0.1997  1.6740 -0.1761
 8040TIP3    H245612   1.576   5.174  13.427  0.5998 -0.9009 -0.6103
 8041TIP3   OH245613   6.376   2.240  16.042 -0.6431 -0.2644 -0.2745
 8041TIP3    H145614   6.373   2.326  16.000 -1.1882 -0.5571 -0.8476
 8041TIP3    H245615   6.291   2.202  16.024 -0.6954 -0.6081  0.6651
 8042TIP3   OH245616   6.454   4.920   1.940  0.2809 -0.2512  0.1105
 8042TIP3    H145617   6.516   4.910   2.012  1.2601  0.7488 -0.5472
 8042TIP3    H245618   6.492   4.989   1.885 -1.7979  0.9403  0.0532
 8043TIP3   OH245619   0.704   1.659  16.090 -0.5264  0.1251  1.1374
 8043TIP3    H145620   0.657   1.738  16.116 -2.9043 -0.8285  0.0097
 8043TIP3    H245621   0.793   1.689  16.071 -0.8307  2.1492  2.6147
 8044TIP3   OH245622   4.932   4.655   0.443 -0.3107  0.3496 -0.1326
 8044TIP3    H145623   5.017   4.610   0.444  0.8948  2.4328 -1.6067
 8044TIP3    H245624   4.919   4.681   0.352 -1.0111  2.7658  0.5918
 8045TIP3   OH245625   2.453   6.655  16.258 -0.6297  0.8641  0.0465
 8045TIP3    H145626   2.521   6.690  16.200  1.1753 -1.0055  0.9082
 8045TIP3    H245627   2.386   6.623  16.198  0.5036  0.3218 -0.9943
 8046TIP3   OH245628   1.732   0.518  10.469 -0.1182  0.3989  0.1414
 8046TIP3    H145629   1.826   0.526  10.450  0.5520 -1.3261  2.2583
 8046TIP3    H245630   1.701   0.608  10.476  1.3454  1.0126 -0.6218
 8047TIP3   OH245631   5.249   3.231   4.766 -0.1071  0.1546  0.1045
 8047TIP3    H145632   5.299   3.253   4.844 -1.0177  2.0405  0.2021
 8047TIP3    H245633   5.193   3.158   4.793  1.9763 -1.5208  0.1911
 8048TIP3   OH245634   3.755   4.721  13.078  0.1049 -0.5666  1.3832
 8048TIP3    H145635   3.664   4.691  13.080  0.3416 -2.3853 -2.9120
 8048TIP3    H245636   3.804   4.653  13.125 -0.4502 -1.4025  0.7720
 8049TIP3   OH245637   4.713   0.365  12.863  0.1572 -0.1364 -0.0561
 8049TIP3    H145638   4.733   0.290  12.806 -1.1925  0.2207 -1.0475
 8049TIP3    H245639   4.777   0.359  12.934  1.5122 -0.9574 -1.2832
 8050TIP3   OH245640   6.023   0.128  12.340 -0.0894  0.3918 -0.1195
 8050TIP3    H145641   6.106   0.110  12.297 -0.5163  0.2637 -0.9007
 8050TIP3    H245642   6.028   0.220  12.367  0.8994 -0.0164  1.2073
 8051TIP3   OH245643   2.755   3.520   5.973  0.2170  0.2134  0.5357
 8051TIP3    H145644   2.684   3.456   5.986  0.5128 -0.5186 -1.1672
 8051TIP3    H245645   2.834   3.474   6.002  0.4310 -0.2427 -0.6976
 8052TIP3   OH245646   4.073   0.615  16.007 -0.4424  0.0757  0.1647
 8052TIP3    H145647   4.121   0.697  15.997  0.7568 -0.6397 -0.0862
 8052TIP3    H245648   4.022   0.627  16.087  1.0398  0.4319  1.0910
 8053TIP3   OH245649   3.044   4.828  15.254  0.5167 -0.1894  0.4374
 8053TIP3    H145650   3.012   4.834  15.164  0.6346 -0.1612  0.3968
 8053TIP3    H245651   3.132   4.791  15.246  0.1766 -1.0464  0.6112
 8054TIP3   OH245652   0.492   0.939   3.313 -0.1997 -0.4546 -0.1712
 8054TIP3    H145653   0.432   0.880   3.359 -1.0162 -0.3351 -1.0443
 8054TIP3    H245654   0.579   0.910   3.339 -0.6199 -1.0620  0.6062
 8055TIP3   OH245655   4.044   4.504  13.612  0.3238 -0.3417 -0.0490
 8055TIP3    H145656   4.034   4.576  13.674  2.8086  0.9555 -0.9933
 8055TIP3    H245657   3.983   4.437  13.643 -0.9523  1.5256  1.7901
 8056TIP3   OH245658   0.225   4.540   1.472  0.3348 -0.4112 -0.5299
 8056TIP3    H145659   0.271   4.484   1.535  0.7348 -0.0531 -0.4985
 8056TIP3    H245660   0.135   4.509   1.474  0.5636 -1.1011 -0.5663
 8057TIP3   OH245661   6.613   4.163  15.571  0.0973 -0.1337 -0.3985
 8057TIP3    H145662   6.518   4.160  15.559  0.1116 -0.7925 -0.4122
 8057TIP3    H245663   6.641   4.072  15.556  0.6046 -0.1577  0.6341
 8058TIP3   OH245664   1.478   2.361  12.250 -1.0216 -0.0231  0.2775
 8058TIP3    H145665   1.524   2.282  12.221 -0.9942 -0.4118  1.3523
 8058TIP3    H245666   1.538   2.404  12.310 -1.3699  0.3785  0.3461
 8059TIP3   OH245667   1.709   2.400   1.731 -0.2249  0.0146  0.0829
 8059TIP3    H145668   1.767   2.337   1.773  0.9344  0.6086 -0.5613
 8059TIP3    H245669   1.697   2.367   1.642 -0.4117  0.1947  0.0401
 8060TIP3   OH245670   3.013   3.854   0.445  0.0489 -0.1898  0.3542
 8060TIP3    H145671   3.033   3.820   0.358 -1.2331  3.0661 -1.3937
 8060TIP3    H245672   2.935   3.806   0.472 -0.0416 -0.6668 -0.6970
 8061TIP3   OH245673   3.102   0.276   3.407 -0.3403  0.3476  0.3761
 8061TIP3    H145674   3.041   0.203   3.423  1.7773 -1.0876  2.6910
 8061TIP3    H245675   3.084   0.338   3.478 -1.6587  1.8673 -1.1921
 8062TIP3   OH245676   4.831   2.021  13.899 -0.2249 -1.1132  0.2256
 8062TIP3    H145677   4.797   2.099  13.944  2.9623 -0.2301  1.4026
 8062TIP3    H245678   4.765   2.001  13.832 -1.5866  2.1032  0.4140
 8063TIP3   OH245679   2.369   5.259  14.527  0.0337 -0.2456  1.3143
 8063TIP3    H145680   2.322   5.339  14.552  0.7655 -0.2203  2.7409
 8063TIP3    H245681   2.460   5.277  14.549  0.6256 -0.5997 -0.6419
 8064TIP3   OH245682   4.887   1.230   6.004  0.5089  0.5899  0.0400
 8064TIP3    H145683   4.931   1.296   5.951  0.3298  0.9136  0.2911
 8064TIP3    H245684   4.935   1.231   6.087 -0.8586  1.9997  0.8703
 8065TIP3   OH245685   4.289   2.519  16.546  0.2931  0.1913 -0.3324
 8065TIP3    H145686   4.368   2.509  16.599  1.0280 -0.4287 -1.5016
 8065TIP3    H245687   4.222   2.548  16.608  0.9806 -1.0099  1.0371
 8066TIP3   OH245688   0.261   0.390   0.826  0.1451 -0.4453  0.5032
 8066TIP3    H145689   0.308   0.326   0.880 -0.7409 -0.8977  0.7628
 8066TIP3    H245690   0.267   0.472   0.875  0.3038 -0.5978  0.7399
 8067TIP3   OH245691   2.837   1.001  16.142  0.0174 -0.3463 -0.0022
 8067TIP3    H145692   2.781   1.020  16.217  0.9552 -0.5464  0.7607
 8067TIP3    H245693   2.906   1.068  16.145 -0.5490  0.3501 -1.3520
 8068TIP3   OH245694   3.201   6.001  13.237  0.0980  0.5530 -0.4318
 8068TIP3    H145695   3.205   5.962  13.324 -2.2425  1.0181 -0.0417
 8068TIP3    H245696   3.268   5.955  13.187  0.1787 -1.0851  1.0855
 8069TIP3   OH245697   4.584   3.622   5.294 -0.8863 -0.1855 -0.1999
 8069TIP3    H145698   4.637   3.561   5.345  0.3010  0.8096 -0.1887
 8069TIP3    H245699   4.519   3.655   5.357  0.6084  1.0904  0.7564
 8070TIP3   OH245700   6.613   6.449  16.996 -0.6367 -0.0410 -0.5582
 8070TIP3    H145701   6.573   6.372  17.034  0.1349 -0.2343 -0.1117
 8070TIP3    H245702   6.549   6.519  17.007 -0.9044 -0.3751  0.0050
 8071TIP3   OH245703   5.974   4.859   3.493 -0.2372 -0.1712 -0.2734
 8071TIP3    H145704   6.068   4.872   3.477 -0.4157  1.6623 -0.1128
 8071TIP3    H245705   5.932   4.884   3.411 -0.6570  0.4760  0.1329
 8072TIP3   OH245706   1.658   6.542   3.714 -0.3617 -0.6383 -0.6582
 8072TIP3    H145707   1.742   6.527   3.670  1.0430  1.2619  1.1928
 8072TIP3    H245708   1.638   6.634   3.695 -0.9760 -0.4968  0.5989
 8073TIP3   OH245709   5.995   3.005   2.138 -0.4168 -0.9500  0.1954
 8073TIP3    H145710   6.057   3.076   2.155 -0.5753 -0.3590 -1.4938
 8073TIP3    H245711   6.051   2.930   2.117 -0.2525 -0.6353 -0.5212
 8074TIP3   OH245712   0.147   5.719   2.215 -0.3866  0.1580  0.3539
 8074TIP3    H145713   0.099   5.680   2.143 -0.0320 -0.8626  0.6465
 8074TIP3    H245714   0.130   5.661   2.290  0.6265  0.2279  0.6586
 8075TIP3   OH245715   5.094   0.187   4.903 -0.1090 -0.3788 -0.4534
 8075TIP3    H145716   5.110   0.213   4.812 -2.3660  1.1407 -0.5113
 8075TIP3    H245717   5.059   0.098   4.897 -1.5475  0.2142 -1.2410
 8076TIP3   OH245718   2.336   2.823  10.605  0.5802 -0.1183  0.0393
 8076TIP3    H145719   2.390   2.783  10.536  0.4025  0.0878 -0.2218
 8076TIP3    H245720   2.250   2.781  10.594  1.4961 -3.1145  2.6685
 8077TIP3   OH245721   4.087   1.361   0.050  0.2005  0.0449 -0.4340
 8077TIP3    H145722   4.160   1.423   0.051 -0.8892  1.4081 -0.8087
 8077TIP3    H245723   4.101   1.310  -0.030  0.9352  0.0216 -0.3024
 8078TIP3   OH245724   5.657   0.027   0.128 -0.3286 -0.1395  0.2181
 8078TIP3    H145725   5.597   0.006   0.056 -0.8054 -1.0583  0.8488
 8078TIP3    H245726   5.600   0.031   0.206  0.3136 -0.2055  0.7002
 8079TIP3   OH245727   6.087   5.147  13.201  0.1407  0.0278 -0.5633
 8079TIP3    H145728   6.169   5.154  13.250 -0.2141  1.0169 -0.0778
 8079TIP3    H245729   6.049   5.064  13.230  1.1396 -0.6376 -1.0889
 8080TIP3   OH245730   0.691   0.236   1.213 -0.3305  0.9372  0.3107
 8080TIP3    H145731   0.637   0.227   1.292 -0.6969 -1.0219 -0.1138
 8080TIP3    H245732   0.639   0.193   1.144  1.0722  0.4234 -0.4562
 8081TIP3   OH245733   2.332   4.984   6.135 -0.5652 -0.2853 -0.5645
 8081TIP3    H145734   2.259   5.045   6.143 -1.4770 -1.3495 -0.4851
 8081TIP3    H245735   2.379   5.012   6.056 -0.0598  1.4147  0.2917
 8082TIP3   OH245736   1.462   4.675   4.554 -0.0123 -0.1697 -0.2218
 8082TIP3    H145737   1.433   4.596   4.509 -0.1069  1.2673 -2.8356
 8082TIP3    H245738   1.429   4.747   4.501  0.6879  1.6609  1.6724
 8083TIP3   OH245739   0.127   5.371  16.380  0.2272  0.2779  0.2711
 8083TIP3    H145740   0.146   5.291  16.429  0.6484  0.8535  1.0579
 8083TIP3    H245741   0.047   5.349  16.331  0.3592 -0.6378  0.4352
 8084TIP3   OH245742   5.465   1.853   0.437 -0.0712 -0.6727  0.4747
 8084TIP3    H145743   5.428   1.821   0.519  0.0532 -2.8062 -0.2496
 8084TIP3    H245744   5.389   1.878   0.385 -0.1201  2.0219  1.6521
 8085TIP3   OH245745   6.733   4.798  13.973  0.5508 -0.3758  0.3055
 8085TIP3    H145746   6.676   4.817  13.898  1.7965  1.8288 -0.1697
 8085TIP3    H245747   6.798   4.737  13.938  1.1193  0.6335 -0.4363
 8086TIP3   OH245748   6.038   5.475  14.950  0.9913  0.0980  0.5160
 8086TIP3    H145749   6.095   5.548  14.972  1.3678  0.5951 -1.8349
 8086TIP3    H245750   6.059   5.454  14.859 -3.1006  0.9215 -0.8619
 8087TIP3   OH245751   2.503   4.875  15.810 -0.0028 -0.4171  0.4937
 8087TIP3    H145752   2.547   4.957  15.833 -0.7519 -0.2979  1.5727
 8087TIP3    H245753   2.559   4.837  15.742  1.4486 -0.0007  1.3984
 8088TIP3   OH245754   0.500   4.161   6.491  0.3167 -0.5307  0.1921
 8088TIP3    H145755   0.483   4.200   6.577 -0.0642 -0.8014  0.2434
 8088TIP3    H245756   0.593   4.138   6.493  0.1953 -1.0194  0.7395
 8089TIP3   OH245757   0.014   0.915   3.249  0.4816  0.3492 -0.6846
 8089TIP3    H145758   0.096   0.963   3.239  0.1533  0.6195 -2.3076
 8089TIP3    H245759  -0.034   0.932   3.168 -1.2699  0.3505  0.3051
 8090TIP3   OH245760   6.609   1.658  12.117  0.3075  0.4609 -0.4638
 8090TIP3    H145761   6.673   1.726  12.138  0.3980  0.2314  0.0181
 8090TIP3    H245762   6.659   1.592  12.068  0.6416 -0.1039  0.6014
 8091TIP3   OH245763   1.980   6.783  10.598 -0.0208 -0.3823  0.6070
 8091TIP3    H145764   1.968   6.862  10.545  0.0937 -1.4683 -1.1004
 8091TIP3    H245765   2.075   6.770  10.601 -0.0632 -0.7536  0.4074
 8092TIP3   OH245766   0.672   4.783  12.862  0.1912 -0.4940 -0.0215
 8092TIP3    H145767   0.750   4.814  12.909 -0.8310  2.7624 -0.2269
 8092TIP3    H245768   0.642   4.708  12.912 -0.4783  2.3499  4.3630
 8093TIP3   OH245769   3.656   4.861   4.777 -0.3788 -0.2092 -0.2787
 8093TIP3    H145770   3.656   4.814   4.694 -1.0901  1.0679 -1.0401
 8093TIP3    H245771   3.570   4.904   4.780  0.1985  0.9563  0.4036
 8094TIP3   OH245772   4.549   2.596   1.220 -0.1207 -0.1825  0.3297
 8094TIP3    H145773   4.583   2.611   1.308 -0.1882 -1.4519  0.5913
 8094TIP3    H245774   4.623   2.614   1.162  0.1271 -0.0190  0.6940
 8095TIP3   OH245775   4.263   2.238   4.995  0.4145  0.0612  0.1495
 8095TIP3    H145776   4.274   2.318   4.944 -0.0183 -0.3690 -0.6335
 8095TIP3    H245777   4.168   2.226   4.999  0.3890  0.5510  1.8045
 8096TIP3   OH245778   4.486   3.361  16.398 -0.2570 -0.7959  0.1650
 8096TIP3    H145779   4.494   3.422  16.471  0.7631 -0.9319  0.1738
 8096TIP3    H245780   4.558   3.300  16.410  0.4245 -0.3349 -1.4078
 8097TIP3   OH245781   4.690   2.118  10.495  0.3016  0.8730  0.4602
 8097TIP3    H145782   4.758   2.054  10.513 -0.7776 -0.0703  1.2999
 8097TIP3    H245783   4.714   2.155  10.410  1.6925  0.3622  0.6051
 8098TIP3   OH245784   2.603   1.202   5.120  0.6809  0.2085 -0.6694
 8098TIP3    H145785   2.698   1.214   5.125  0.4256  1.9645  0.9581
 8098TIP3    H245786   2.581   1.155   5.201 -0.0286  1.5163 -0.0730
 8099TIP3   OH245787   6.709   4.318  16.345 -0.1372  0.2236  0.0067
 8099TIP3    H145788   6.698   4.355  16.257 -1.2404 -0.4560 -0.1709
 8099TIP3    H245789   6.703   4.393  16.404 -1.3827  0.4807 -0.4032
 8100TIP3   OH245790   4.606   3.471   1.544  0.1743 -0.0670 -0.4933
 8100TIP3    H145791   4.525   3.455   1.497 -0.2445 -1.8009  0.7491
 8100TIP3    H245792   4.593   3.556   1.587 -1.1003 -0.4605 -0.0772
 8101TIP3   OH245793   1.975   3.775   5.204  0.4024 -0.2311 -0.3493
 8101TIP3    H145794   2.063   3.742   5.187  0.0609 -0.3610 -1.9844
 8101TIP3    H245795   1.916   3.705   5.177 -0.2315 -0.6324  1.8456
 8102TIP3   OH245796   4.323   5.803  11.479  0.1109  0.5826 -0.2706
 8102TIP3    H145797   4.404   5.852  11.490 -0.7358  1.7579  1.1635
 8102TIP3    H245798   4.294   5.825  11.391 -0.1635  2.6446  0.2667
 8103TIP3   OH245799   2.464   2.576  15.130  0.0680 -0.0042 -0.6902
 8103TIP3    H145800   2.407   2.644  15.094 -0.6386  0.5961  1.3796
 8103TIP3    H245801   2.408   2.530  15.192  1.3966 -0.4675  0.1943
 8104TIP3   OH245802   6.450   2.083  13.924 -0.0828  0.6853 -0.2794
 8104TIP3    H145803   6.472   2.064  13.833 -0.9795 -2.4276  0.0181
 8104TIP3    H245804   6.371   2.031  13.940  0.0284  1.1766  2.2705
 8105TIP3   OH245805   6.610   2.881   5.372  0.0027 -0.2546  0.6039
 8105TIP3    H145806   6.678   2.817   5.350 -1.4465 -1.2715 -1.1256
 8105TIP3    H245807   6.632   2.958   5.320  0.1405 -0.3506  0.5193
 8106TIP3   OH245808   4.567   0.270   4.888  0.1094 -0.2253 -0.5135
 8106TIP3    H145809   4.612   0.351   4.864 -0.1870 -0.1740 -0.8975
 8106TIP3    H245810   4.622   0.232   4.956 -0.8187  1.3170  1.1764
 8107TIP3   OH245811   3.135   0.585   4.771 -0.6176  0.4356  0.1312
 8107TIP3    H145812   3.164   0.494   4.766 -1.3723  0.1751  0.2786
 8107TIP3    H245813   3.206   0.635   4.731  0.5310 -0.0516  1.4620
 8108TIP3   OH245814   6.655   4.425   6.188  0.2239 -0.2691  0.2188
 8108TIP3    H145815   6.567   4.389   6.177 -0.7299  2.4089 -1.9629
 8108TIP3    H245816   6.708   4.377   6.125 -0.0871 -0.6411  0.2319
 8109TIP3   OH245817   0.028   1.531  14.399 -0.3915 -0.4013  0.0641
 8109TIP3    H145818   0.100   1.498  14.345  1.3282  1.7395  0.8971
 8109TIP3    H245819   0.063   1.530  14.488 -1.2635  0.9970  0.4366
 8110TIP3   OH245820   4.602   0.005   2.315 -0.0043  0.2933 -0.0473
 8110TIP3    H145821   4.603  -0.089   2.335  0.4379  0.2535 -0.2289
 8110TIP3    H245822   4.514   0.021   2.283 -0.4399  0.1781  1.0579
 8111TIP3   OH245823   6.047   4.291   4.944 -0.1086  0.1341  0.0312
 8111TIP3    H145824   6.030   4.381   4.971 -0.6693 -0.4122  1.6709
 8111TIP3    H245825   6.131   4.294   4.899 -1.6263  1.9834 -2.9970
 8112TIP3   OH245826   1.307   4.889  11.485 -0.0188 -0.4838  0.1649
 8112TIP3    H145827   1.375   4.957  11.487 -0.5702  0.0689  0.5934
 8112TIP3    H245828   1.302   4.858  11.576 -0.0159 -0.8509  0.0412
 8113TIP3   OH245829   2.192   6.629   4.873  0.0253 -0.7026 -0.3326
 8113TIP3    H145830   2.162   6.540   4.890  0.8066 -1.2947 -1.8504
 8113TIP3    H245831   2.162   6.649   4.784 -0.8512  0.8797  0.2709
 8114TIP3   OH245832   4.358   0.440  16.553 -0.2198  0.4328  0.4701
 8114TIP3    H145833   4.430   0.377  16.551 -0.3949  0.2221 -1.6171
 8114TIP3    H245834   4.382   0.502  16.622  1.1728 -0.5182  0.8833
 8115TIP3   OH245835   2.820   5.308   3.380 -0.1029 -0.0957 -0.1552
 8115TIP3    H145836   2.794   5.287   3.470  0.4127 -2.1526 -0.4460
 8115TIP3    H245837   2.894   5.368   3.390  0.0837 -0.4720  0.7972
 8116TIP3   OH245838   2.591   4.491   3.987  0.6564  0.0305 -0.0310
 8116TIP3    H145839   2.498   4.510   3.995  0.4465 -0.6705 -0.6340
 8116TIP3    H245840   2.612   4.511   3.895  1.2758  0.8899  0.2843
 8117TIP3   OH245841   0.486   4.046   4.806  0.0217  0.3877 -0.5851
 8117TIP3    H145842   0.483   4.006   4.719  2.8027  2.1901 -1.6697
 8117TIP3    H245843   0.580   4.049   4.827 -0.4529  1.6838  1.6594
 8118TIP3   OH245844   5.600   1.669  16.310 -0.2876 -0.1223  0.1003
 8118TIP3    H145845   5.682   1.716  16.323 -1.0373  1.4930 -0.7203
 8118TIP3    H245846   5.613   1.584  16.354  1.5802  0.3278  0.4778
 8119TIP3   OH245847   2.776   3.033  12.560 -0.1218  0.5793  0.3760
 8119TIP3    H145848   2.799   3.000  12.473 -0.7394  0.7375  0.1457
 8119TIP3    H245849   2.754   3.125  12.545  1.0514  0.9727  0.9250
 8120TIP3   OH245850   1.778   1.768  11.400  0.1145 -0.0821  0.1354
 8120TIP3    H145851   1.849   1.820  11.362 -0.4542 -0.8090 -2.0778
 8120TIP3    H245852   1.820   1.722  11.474  2.1885 -1.0135 -1.4965
 8121TIP3   OH245853   4.050   5.071   3.775 -0.1375  0.5031 -0.0398
 8121TIP3    H145854   4.056   4.997   3.836 -0.8998  0.7352  0.3184
 8121TIP3    H245855   3.973   5.119   3.803 -0.7977  0.3276 -1.5002
 8122TIP3   OH245856   3.797   0.136   1.799 -0.2757  0.1318 -0.1169
 8122TIP3    H145857   3.745   0.216   1.812 -1.5287 -0.6465 -0.0886
 8122TIP3    H245858   3.801   0.096   1.887  0.3813  0.1934 -0.1210
 8123TIP3   OH245859   6.390   5.672   5.689 -0.1065  0.0307 -0.1509
 8123TIP3    H145860   6.340   5.592   5.705  1.8643 -1.1454  0.4692
 8123TIP3    H245861   6.333   5.725   5.633 -1.8602 -1.3770  0.2070
 8124TIP3   OH245862   3.533   6.101   0.976 -0.0279 -0.2478 -0.0867
 8124TIP3    H145863   3.451   6.059   1.001 -0.3297  1.7855  2.8026
 8124TIP3    H245864   3.515   6.141   0.891 -1.4506 -1.2320 -0.2743
 8125TIP3   OH245865   6.696   5.105  14.353 -0.0345  0.1789 -0.2129
 8125TIP3    H145866   6.757   5.075  14.420  0.2901 -2.2700 -1.4667
 8125TIP3    H245867   6.611   5.071  14.381 -0.1894  0.5476 -0.2296
 8126TIP3   OH245868   3.352   4.486  16.882 -0.9790 -0.3066 -0.2001
 8126TIP3    H145869   3.373   4.502  16.790 -0.1661  0.7454  0.1488
 8126TIP3    H245870   3.269   4.531  16.895 -0.1001  1.2871  0.0638
 8127TIP3   OH245871   5.847   2.645  13.545  0.0666 -0.3402  0.6291
 8127TIP3    H145872   5.769   2.638  13.491  0.1432  0.5689  0.3867
 8127TIP3    H245873   5.856   2.558  13.586 -1.0546 -0.4597  0.6524
 8128TIP3   OH245874   4.042   3.313  12.046  0.2970 -0.1242  0.7192
 8128TIP3    H145875   4.003   3.362  11.973 -0.5137  0.8655  1.7742
 8128TIP3    H245876   4.043   3.222  12.016 -3.0585 -0.2865  0.6178
 8129TIP3   OH245877   3.144   1.600   5.967 -0.0922  0.2394 -0.1486
 8129TIP3    H145878   3.224   1.634   5.926 -0.2298  1.2833  0.4295
 8129TIP3    H245879   3.175   1.556   6.046 -0.3189  3.8894  2.1575
 8130TIP3   OH245880   6.524   3.452   6.813 -0.5477 -0.0926  0.8306
 8130TIP3    H145881   6.496   3.383   6.753 -1.4027  1.1900 -0.3044
 8130TIP3    H245882   6.619   3.452   6.806 -0.6324  0.1064 -0.6571
 8131TIP3   OH245883   4.772   3.623   4.585  0.5232 -0.0354 -0.1757
 8131TIP3    H145884   4.825   3.700   4.563  1.2702 -0.6292 -0.4749
 8131TIP3    H245885   4.686   3.660   4.610  0.8615  0.8883 -0.3296
 8132TIP3   OH245886   6.707   3.470   5.792  0.0605  0.0436 -0.6642
 8132TIP3    H145887   6.614   3.488   5.807 -0.0188  0.6993 -1.8552
 8132TIP3    H245888   6.726   3.508   5.706  1.4094 -0.1740 -0.4897
 8133TIP3   OH245889   2.001   1.655   3.216  0.2549  0.2492  0.5331
 8133TIP3    H145890   2.073   1.707   3.181 -0.4871  1.9068  1.4078
 8133TIP3    H245891   1.972   1.702   3.294 -0.5935 -1.3619  1.2372
 8134TIP3   OH245892   4.549   6.719  14.125 -0.1666 -0.1957 -0.4045
 8134TIP3    H145893   4.574   6.669  14.203 -0.7304  0.6842  0.3587
 8134TIP3    H245894   4.466   6.761  14.148  0.1281  0.8324 -1.1301
 8135TIP3   OH245895   4.892   5.434   5.665 -0.4814  0.6137  0.2168
 8135TIP3    H145896   4.901   5.445   5.760 -1.5253 -0.6381  0.4905
 8135TIP3    H245897   4.913   5.342   5.650  0.6618  1.0366 -0.9265
 8136TIP3   OH245898   2.684   4.107   6.450  0.4503  0.1534  0.5054
 8136TIP3    H145899   2.659   4.064   6.532 -0.6051 -0.2677 -0.0084
 8136TIP3    H245900   2.750   4.171   6.475 -0.6566  0.8257  1.8717
 8137TIP3   OH245901   1.634   1.149  12.076  0.1022  0.0408  0.0971
 8137TIP3    H145902   1.632   1.092  12.152 -1.1115 -0.2019 -0.1015
 8137TIP3    H245903   1.543   1.172  12.060  0.4608  1.1714 -0.4827
 8138TIP3   OH245904   5.234   0.418  16.917 -0.6885  0.6075 -0.2606
 8138TIP3    H145905   5.305   0.430  16.853  0.3703  1.9380  1.1053
 8138TIP3    H245906   5.264   0.464  16.995 -3.0095  1.0589  0.4273
 8139TIP3   OH245907   3.956   0.915  17.242 -0.1047 -0.3885  0.0500
 8139TIP3    H145908   4.007   0.841  17.209  1.6943 -0.5381  2.8112
 8139TIP3    H245909   3.902   0.877  17.311  0.6277  0.7426  1.3057
 8140TIP3   OH245910   1.161   2.323  12.947  0.8556  0.2175  0.0382
 8140TIP3    H145911   1.066   2.334  12.945  0.7255 -0.8892 -1.1216
 8140TIP3    H245912   1.190   2.380  13.018 -0.4235  2.4068 -1.0849
 8141TIP3   OH245913   1.454   1.063  13.924 -0.5013 -0.0951  0.4835
 8141TIP3    H145914   1.453   1.003  13.999  2.0554 -0.6749  0.1624
 8141TIP3    H245915   1.513   1.021  13.861 -0.2776  1.7764 -0.6318
 8142TIP3   OH245916   1.270   5.613  17.131 -0.3123 -0.8048  0.0663
 8142TIP3    H145917   1.291   5.706  17.128 -2.2198 -0.3248 -0.1223
 8142TIP3    H245918   1.351   5.569  17.105 -0.0083  0.9006 -2.2622
 8143TIP3   OH245919   0.325   2.450   3.973  0.3383  0.1872 -0.2077
 8143TIP3    H145920   0.368   2.472   3.891  1.3590  0.1063  0.2906
 8143TIP3    H245921   0.354   2.361   3.993 -2.4166 -1.0522 -1.3393
 8144TIP3   OH245922   2.502   1.932   4.566  0.5576  0.0584 -0.8900
 8144TIP3    H145923   2.536   2.021   4.556  1.6759 -0.0830  1.0970
 8144TIP3    H245924   2.578   1.876   4.550 -0.0466 -0.5402 -1.7201
 8145TIP3   OH245925   6.791   5.265  15.791  0.1887  0.0922 -0.1039
 8145TIP3    H145926   6.844   5.337  15.758  1.5753 -0.7043  0.2923
 8145TIP3    H245927   6.807   5.265  15.886  0.0626 -0.6186 -0.0780
 8146TIP3   OH245928   1.934   0.362  16.281  0.4392  0.0597  0.7325
 8146TIP3    H145929   1.959   0.292  16.221  0.3334 -0.7676  1.6375
 8146TIP3    H245930   2.007   0.424  16.276  0.9420 -0.5327  0.5733
 8147TIP3   OH245931   1.313   4.108   5.508 -0.3485 -0.2192 -0.3886
 8147TIP3    H145932   1.292   4.197   5.534  1.6146  0.3685 -0.6091
 8147TIP3    H245933   1.395   4.089   5.554  0.7816 -0.8449 -2.5095
 8148TIP3   OH245934   4.669   0.811  15.520  0.0501  0.2629  0.0175
 8148TIP3    H145935   4.739   0.873  15.503  0.3419  0.3487  1.4516
 8148TIP3    H245936   4.665   0.803  15.615  0.7282 -2.6845 -0.0834
 8149TIP3   OH245937   2.527   2.683  11.032  0.5997  0.5271 -0.0453
 8149TIP3    H145938   2.522   2.611  10.968  0.1467 -0.5056  1.1131
 8149TIP3    H245939   2.483   2.756  10.988  1.4805  0.2653 -1.4382
 8150TIP3   OH245940   5.714   4.987  11.980 -0.2451 -0.1309 -0.0667
 8150TIP3    H145941   5.756   5.012  12.062  0.2998  2.0844 -0.9518
 8150TIP3    H245942   5.628   4.952  12.006 -0.4364  1.3362  1.4103
 8151TIP3   OH245943   6.647   4.714   3.567 -0.4478  0.1080 -0.1002
 8151TIP3    H145944   6.695   4.762   3.499  0.9106  1.0340  1.4506
 8151TIP3    H245945   6.582   4.776   3.599  0.1976  0.3813  0.7394
 8152TIP3   OH245946   3.184   4.074   3.651 -0.7967 -0.1619 -0.0907
 8152TIP3    H145947   3.138   4.115   3.578 -0.0256 -0.3389 -0.6956
 8152TIP3    H245948   3.181   4.138   3.721  0.2201  0.8631 -0.9524
 8153TIP3   OH245949   3.060   0.091  11.359  0.6154 -0.1902 -0.7126
 8153TIP3    H145950   3.069   0.029  11.432 -0.1465 -0.3696 -0.7590
 8153TIP3    H245951   3.116   0.165  11.383  0.5094 -0.3221 -0.0297
 8154TIP3   OH245952   0.480   5.449   0.915  0.1367 -0.8586  0.0974
 8154TIP3    H145953   0.420   5.451   0.841 -0.5568  0.0650  0.6596
 8154TIP3    H245954   0.497   5.356   0.930 -2.0498 -1.2206  0.6114
 8155TIP3   OH245955   1.039   0.484  15.637  0.2310 -0.4996  0.7797
 8155TIP3    H145956   0.950   0.513  15.659  0.3278 -1.5103  2.7707
 8155TIP3    H245957   1.085   0.564  15.612 -1.1994  0.0527 -0.1834
 8156TIP3   OH245958   2.430   0.304   0.851  0.7338 -0.1532 -0.5915
 8156TIP3    H145959   2.439   0.226   0.795 -0.6872 -0.8632  0.1262
 8156TIP3    H245960   2.440   0.377   0.791  1.1973 -0.8853 -1.4375
 8157TIP3   OH245961   2.907   1.332   1.476 -0.1989 -0.1376 -0.7583
 8157TIP3    H145962   2.879   1.241   1.483 -2.2029  0.2859 -2.3311
 8157TIP3    H245963   2.839   1.382   1.522  0.5608  0.6070 -0.4168
 8158TIP3   OH245964   5.129   0.427  16.569 -0.1954 -0.3819 -0.2094
 8158TIP3    H145965   5.141   0.405  16.476 -0.6854  0.6973 -0.5488
 8158TIP3    H245966   5.215   0.456  16.598  0.1355 -1.4358 -0.1188
 8159TIP3   OH245967   1.474   1.422  17.019  0.3973 -0.3521 -0.0845
 8159TIP3    H145968   1.461   1.397  17.111  1.8438  0.1747  0.2885
 8159TIP3    H245969   1.414   1.365  16.971 -1.3812  0.2745  1.2659
 8160TIP3   OH245970   4.747   2.054  15.084 -0.1047 -0.1186  0.0704
 8160TIP3    H145971   4.807   1.983  15.059  2.5601  2.4956 -1.5930
 8160TIP3    H245972   4.764   2.067  15.178  0.4507 -0.7211  0.0654
 8161TIP3   OH245973   3.771   1.500  13.154  0.4041  0.6422 -0.0093
 8161TIP3    H145974   3.702   1.462  13.101  1.7304 -1.4210 -0.3607
 8161TIP3    H245975   3.727   1.565  13.209 -2.0935 -1.6874  0.9339
 8162TIP3   OH245976   0.038   0.716  16.023 -0.7820  0.8766 -0.2111
 8162TIP3    H145977   0.095   0.681  15.955 -0.9971  0.3962 -0.1505
 8162TIP3    H245978  -0.003   0.793  15.983 -0.6706  0.7798 -0.5135
 8163TIP3   OH245979   5.799   2.041   5.350 -0.0566 -0.1906 -0.2790
 8163TIP3    H145980   5.737   2.004   5.413  0.5263 -0.1410  0.3344
 8163TIP3    H245981   5.879   1.990   5.363  0.6014  0.9364  0.2163
 8164TIP3   OH245982   2.459   4.501  14.494  0.5124 -1.3776  0.2072
 8164TIP3    H145983   2.514   4.573  14.464  1.0690 -0.2022  3.6644
 8164TIP3    H245984   2.369   4.533  14.482  0.7107 -0.9107 -0.0508
 8165TIP3   OH245985   6.536   1.972  11.452 -0.5624  0.0937  0.2958
 8165TIP3    H145986   6.506   2.054  11.411 -1.5885  0.2699  1.3492
 8165TIP3    H245987   6.482   1.964  11.531 -0.7080 -1.7694  0.0442
 8166TIP3   OH245988   2.261   5.115  13.677 -0.4667  0.0706 -0.5581
 8166TIP3    H145989   2.345   5.088  13.715 -1.2146 -1.9741 -0.2465
 8166TIP3    H245990   2.210   5.034  13.672 -1.0554  0.5172 -4.3979
 8167TIP3   OH245991   4.725   4.934   1.120  0.6021  0.1598  0.4072
 8167TIP3    H145992   4.649   4.917   1.064 -0.0505  1.8613  0.7492
 8167TIP3    H245993   4.799   4.899   1.069 -0.4099 -1.9929  0.2989
 8168TIP3   OH245994   2.498   0.332   5.921  0.2630 -0.2308  0.4831
 8168TIP3    H145995   2.426   0.394   5.909  0.1493 -0.2507  1.0439
 8168TIP3    H245996   2.554   0.345   5.845  0.2696  0.5998  0.6214
 8169TIP3   OH245997   3.350   0.770  12.693  0.4570 -0.6036 -0.2274
 8169TIP3    H145998   3.320   0.841  12.750  1.3010 -0.7405  0.4060
 8169TIP3    H245999   3.271   0.721  12.672  0.3570 -1.9249  2.7213
 8170TIP3   OH246000   2.032   6.184   4.727 -0.2191  0.2304  0.2072
 8170TIP3    H146001   2.032   6.153   4.637 -0.2080 -1.3612  0.7142
 8170TIP3    H246002   2.116   6.228   4.738  0.4642 -0.9594 -0.1294
 8171TIP3   OH246003   0.465   6.062   6.121 -0.0696  0.2655  0.0816
 8171TIP3    H146004   0.431   5.997   6.059 -1.3149  0.3967  0.6110
 8171TIP3    H246005   0.419   6.043   6.203  3.5089 -1.7328  1.8830
 8172TIP3   OH246006   5.628   2.465   1.869 -0.7123  0.2671  0.4705
 8172TIP3    H146007   5.708   2.458   1.922 -0.5906  0.3748  0.3030
 8172TIP3    H246008   5.583   2.381   1.882 -0.3673  0.0421  0.2416
 8173TIP3   OH246009   4.792   3.334   3.630  0.3992 -0.1621 -0.4412
 8173TIP3    H146010   4.841   3.266   3.585 -1.0674 -1.2574 -0.4519
 8173TIP3    H246011   4.707   3.335   3.587 -0.3126  0.2407  0.9181
 8174TIP3   OH246012   0.473   4.222  12.174 -0.3405 -0.6636 -0.0385
 8174TIP3    H146013   0.552   4.222  12.120  0.6574 -0.4222  1.3636
 8174TIP3    H246014   0.457   4.315  12.193 -0.2529 -0.7989  0.6897
 8175TIP3   OH246015   0.576   3.287   5.365 -0.2169  0.7402 -0.2024
 8175TIP3    H146016   0.588   3.381   5.383 -1.4797  0.6604  1.3342
 8175TIP3    H246017   0.639   3.244   5.423  1.6350  0.6128 -2.1814
 8176TIP3   OH246018   0.177   2.903   0.676 -0.2550 -0.0351  0.4357
 8176TIP3    H146019   0.146   2.987   0.710  1.6162  1.0793 -0.4416
 8176TIP3    H246020   0.257   2.886   0.725  2.3516  1.4531 -2.9235
 8177TIP3   OH246021   2.536   1.070  10.867  0.1023  0.3782  0.5023
 8177TIP3    H146022   2.556   1.049  10.775  0.3716  0.5338  0.5224
 8177TIP3    H246023   2.481   0.997  10.897 -1.4408  1.1781 -0.2777
 8178TIP3   OH246024   3.996   0.587  14.985  0.0203 -0.0210 -0.2454
 8178TIP3    H146025   3.982   0.498  15.016  0.1551  0.0420  0.0023
 8178TIP3    H246026   4.053   0.577  14.909 -0.9688 -0.2385 -0.9783
 8179TIP3   OH246027   4.418   2.063   2.708 -0.2480 -0.0956  0.6182
 8179TIP3    H146028   4.382   2.071   2.797 -1.1696 -1.0516  0.3462
 8179TIP3    H246029   4.438   2.153   2.683 -1.8568  0.4219  1.0467
 8180TIP3   OH246030   5.811   5.371   6.456  0.3101  0.4869  0.1398
 8180TIP3    H146031   5.728   5.417   6.445 -0.4342 -1.0123 -0.8045
 8180TIP3    H246032   5.842   5.354   6.367  1.5942  0.9127  0.4699
 8181TIP3   OH246033   6.431   5.588   4.171 -0.7088  0.3167  0.4251
 8181TIP3    H146034   6.381   5.655   4.217 -0.1320  0.1371  1.3349
 8181TIP3    H246035   6.502   5.565   4.231 -1.2884 -1.6073  0.4532
 8182TIP3   OH246036   3.262   1.868  15.685 -0.1202 -0.0233 -0.1725
 8182TIP3    H146037   3.265   1.918  15.766 -0.2184  0.2658 -0.3480
 8182TIP3    H246038   3.170   1.848  15.672 -0.0843 -0.2239 -0.1180
 8183TIP3   OH246039   0.064   2.903  14.696  0.2948 -0.3802  0.0152
 8183TIP3    H146040   0.092   2.877  14.784  0.1242 -0.2792  0.0988
 8183TIP3    H246041  -0.024   2.868  14.688 -0.3210  0.9748  0.4876
 8184TIP3   OH246042   3.063   1.979   1.326 -0.1140 -0.1194  0.0090
 8184TIP3    H146043   3.004   2.049   1.297  0.0692  0.3586  0.7674
 8184TIP3    H246044   3.039   1.904   1.272  0.4275  0.8187 -1.6167
 8185TIP3   OH246045   2.327   4.735   4.959 -0.3247 -0.1266 -0.0166
 8185TIP3    H146046   2.310   4.822   4.921  1.6079  0.4458  0.3627
 8185TIP3    H246047   2.244   4.711   5.000 -1.6489  0.4620 -2.1798
 8186TIP3   OH246048   6.453   3.129  15.128 -0.7834 -0.3075  0.4873
 8186TIP3    H146049   6.474   3.066  15.060  1.8583 -1.0719  1.9067
 8186TIP3    H246050   6.533   3.180  15.140 -1.2256 -0.0759  2.8919
 8187TIP3   OH246051   6.592   1.902   1.599  0.6064 -0.5138 -0.3887
 8187TIP3    H146052   6.618   1.895   1.691  0.4889 -0.6748 -0.3678
 8187TIP3    H246053   6.506   1.860   1.595 -0.1743  1.0028 -0.2416
 8188TIP3   OH246054   1.257   6.262   5.425  0.2637  0.0958  0.3372
 8188TIP3    H146055   1.278   6.184   5.476 -1.5103  0.1089  1.1585
 8188TIP3    H246056   1.163   6.273   5.435  0.0810  0.9255 -1.8379
 8189TIP3   OH246057   0.345   6.181   1.517 -0.0728 -0.8819 -0.3990
 8189TIP3    H146058   0.351   6.112   1.452 -1.1003 -0.2885 -1.1579
 8189TIP3    H246059   0.399   6.151   1.590  0.3490 -1.9800 -1.1477
 8190TIP3   OH246060   4.156   5.600   6.951  0.0916 -0.0783 -0.3238
 8190TIP3    H146061   4.176   5.651   6.873  2.7282 -1.4859 -0.7034
 8190TIP3    H246062   4.226   5.621   7.012  0.2515 -1.8515  0.1598
 8191TIP3   OH246063   5.202   1.360   1.808 -0.3094 -0.1800 -0.3010
 8191TIP3    H146064   5.224   1.274   1.772  0.8479 -0.7142  1.5223
 8191TIP3    H246065   5.258   1.421   1.761  2.1283 -1.0151  1.3071
 8192TIP3   OH246066   0.746   2.699   3.721  0.6685 -0.4558  0.6747
 8192TIP3    H146067   0.826   2.654   3.748  0.9981 -0.6739 -0.5980
 8192TIP3    H246068   0.735   2.770   3.785  3.3215  1.2131 -0.5838
 8193TIP3   OH246069   3.213   4.788  11.224 -0.2787 -0.4464 -0.2232
 8193TIP3    H146070   3.232   4.881  11.239 -0.6821 -0.4902  0.5818
 8193TIP3    H246071   3.177   4.785  11.135  0.9974 -0.0182 -0.7782
 8194TIP3   OH246072   3.625   6.222   4.803  0.4215  0.3701  0.1093
 8194TIP3    H146073   3.628   6.143   4.748  0.5728 -0.7154  1.6046
 8194TIP3    H246074   3.658   6.292   4.747  2.2483 -1.0310 -0.6597
 8195TIP3   OH246075   3.852   3.081  14.603 -0.4732  0.2335 -0.1701
 8195TIP3    H146076   3.761   3.091  14.632 -0.3645  1.5397 -0.1902
 8195TIP3    H246077   3.901   3.143  14.657  0.1573  0.6853 -1.2137
 8196TIP3   OH246078   1.999   1.033   2.619 -0.6443 -0.3172  0.1991
 8196TIP3    H146079   2.043   1.096   2.677  2.7589 -1.5521 -0.8109
 8196TIP3    H246080   1.997   0.952   2.670  3.3917 -1.7239 -1.5058
 8197TIP3   OH246081   0.735   3.708  14.864 -0.3344 -0.1866  0.4588
 8197TIP3    H146082   0.738   3.613  14.856 -0.1980 -0.2463  1.1730
 8197TIP3    H246083   0.752   3.740  14.775  0.1362 -0.8202  0.3136
 8198TIP3   OH246084   3.117   3.804   1.657 -0.2984  0.1215 -0.4618
 8198TIP3    H146085   3.195   3.855   1.677 -0.7810  1.1069 -1.0314
 8198TIP3    H246086   3.084   3.841   1.575 -2.1812  0.6831  0.4968
 8199TIP3   OH246087   3.460   5.822  14.184 -0.3287 -0.1293 -0.4468
 8199TIP3    H146088   3.508   5.903  14.166 -0.0390 -0.2615 -0.2884
 8199TIP3    H246089   3.380   5.829  14.133 -0.9240  0.8441  0.5868
 8200TIP3   OH246090   0.789   4.083   5.451  0.2849  0.5959 -0.0280
 8200TIP3    H146091   0.785   4.178   5.457  0.5137  0.6582 -0.8306
 8200TIP3    H246092   0.862   4.058   5.507 -1.1203  0.6986  1.9769
 8201TIP3   OH246093   6.787   0.197   1.070  0.5823  0.2566  0.2716
 8201TIP3    H146094   6.704   0.171   1.109  0.3873  1.0518  0.4104
 8201TIP3    H246095   6.849   0.199   1.144  1.1992 -2.1240 -0.1111
 8202TIP3   OH246096   5.176   3.217   2.511  0.4232  0.2085  0.0770
 8202TIP3    H146097   5.139   3.271   2.441  0.3906  0.1909  0.0805
 8202TIP3    H246098   5.267   3.202   2.485  0.8353  1.3963  0.7280
 8203TIP3   OH246099   4.101   3.165  13.894  0.1013  0.1843  0.5160
 8203TIP3    H146100   4.160   3.182  13.820  0.5964  0.8511  1.0482
 8203TIP3    H246101   4.157   3.128  13.962  0.4218  2.8016  1.8197
 8204TIP3   OH246102   4.189   0.995   5.935 -0.6592 -0.2699 -0.5555
 8204TIP3    H146103   4.136   1.048   5.875 -1.4640 -0.7250 -0.2610
 8204TIP3    H246104   4.129   0.928   5.968 -0.0057 -0.5498  0.1049
 8205TIP3   OH246105   4.936   5.496   5.040  0.4571  0.0266  0.0226
 8205TIP3    H146106   4.932   5.560   5.110  2.1050  0.2608 -0.0641
 8205TIP3    H246107   4.879   5.425   5.069  0.2364  0.6196  1.0711
 8206TIP3   OH246108   1.125   2.240   2.880  0.8552 -0.5727 -0.4221
 8206TIP3    H146109   1.105   2.173   2.945  0.8330 -2.7081 -2.4640
 8206TIP3    H246110   1.211   2.275   2.905 -0.0412  0.1724  1.8216
 8207TIP3   OH246111   2.675   4.257  16.928 -0.1936  0.1842 -0.3410
 8207TIP3    H146112   2.619   4.331  16.950 -1.0925 -1.1814  2.5334
 8207TIP3    H246113   2.616   4.194  16.885 -0.4203 -0.3827  0.7522
 8208TIP3   OH246114   5.980   3.961  12.620  0.4350  0.4860 -0.0810
 8208TIP3    H146115   6.029   4.003  12.549  0.9958  0.9647  0.5667
 8208TIP3    H246116   5.973   3.869  12.593  1.2463  0.5169 -0.4340
 8209TIP3   OH246117   2.062   2.844   5.425 -0.0339 -0.1576  0.2549
 8209TIP3    H146118   2.067   2.749   5.426 -0.3185 -0.2187 -1.2583
 8209TIP3    H246119   1.984   2.865   5.477  0.3753 -0.6937  1.1078
 8210TIP3   OH246120   2.732   4.010   4.414  0.3109 -0.4015  0.3304
 8210TIP3    H146121   2.643   4.020   4.380 -0.8451 -1.6446  2.6779
 8210TIP3    H246122   2.777   3.957   4.348 -1.6772 -2.4033  0.4364
 8211TIP3   OH246123   2.149   1.109   5.609 -0.0747 -0.2064  0.2810
 8211TIP3    H146124   2.244   1.098   5.613 -0.1539 -1.1152 -0.1829
 8211TIP3    H246125   2.117   1.059   5.684 -0.2710 -1.0725 -0.3683
 8212TIP3   OH246126   0.998   3.956   5.028  0.5424  0.0388  0.3434
 8212TIP3    H146127   1.093   3.968   5.016  0.6576 -1.6171 -0.7423
 8212TIP3    H246128   0.988   3.931   5.119  1.2853 -0.8043  0.2053
 8213TIP3   OH246129   3.102   4.441  13.353 -0.1034  0.7563 -0.0848
 8213TIP3    H146130   3.194   4.416  13.354  0.4401  2.3718 -2.2278
 8213TIP3    H246131   3.061   4.384  13.418  2.2916 -0.3594  0.5627
 8214TIP3   OH246132   4.638   1.094  16.471  0.3770 -0.2577  0.1283
 8214TIP3    H146133   4.548   1.108  16.443 -0.5810 -1.1746  2.4989
 8214TIP3    H246134   4.664   1.176  16.512  0.2346 -0.3337  0.3724
 8215TIP3   OH246135   5.100   6.503  13.493 -0.7002 -0.2076 -0.3275
 8215TIP3    H146136   5.098   6.446  13.416 -0.2367 -0.2087 -0.3431
 8215TIP3    H246137   5.167   6.464  13.549 -1.2488 -0.3862  0.2170
 8216TIP3   OH246138   2.873   2.754   1.928 -0.2585  0.0793  0.2155
 8216TIP3    H146139   2.916   2.827   1.973  3.3444  0.2088 -2.8928
 8216TIP3    H246140   2.812   2.797   1.867  0.8091  0.4351 -0.6168
 8217TIP3   OH246141   1.271   3.723   2.752  0.0094  0.0512  0.4466
 8217TIP3    H146142   1.263   3.632   2.721  0.6378 -0.1171  0.7502
 8217TIP3    H246143   1.344   3.720   2.814  0.8005  0.9846 -0.3977
 8218TIP3   OH246144   4.944   2.224   5.291  0.1427  0.4535  0.1299
 8218TIP3    H146145   4.923   2.241   5.383  0.7133  3.3896 -0.1753
 8218TIP3    H246146   5.039   2.236   5.286 -0.1750  3.1866 -1.2444
 8219TIP3   OH246147   1.945   6.742   2.436  0.5932  0.1681  0.4756
 8219TIP3    H146148   2.006   6.709   2.502  1.6023  0.4365 -0.3173
 8219TIP3    H246149   1.943   6.837   2.450  1.6151  0.3538 -0.5396
 8220TIP3   OH246150   2.332   3.054  13.131 -0.9641  0.3574 -0.7319
 8220TIP3    H146151   2.331   2.958  13.139 -1.1376  0.4712  0.8173
 8220TIP3    H246152   2.307   3.086  13.218 -0.9093  1.8173 -1.2287
 8221TIP3   OH246153   3.078   6.170   5.239 -0.3995 -0.4911 -0.2495
 8221TIP3    H146154   3.013   6.233   5.268  0.7665  1.4073 -1.5081
 8221TIP3    H246155   3.039   6.128   5.162 -0.4323  0.1591 -0.5970
 8222TIP3   OH246156   3.795   1.507   4.383 -0.3245 -1.0493  0.3568
 8222TIP3    H146157   3.769   1.415   4.376 -1.5466 -0.7662  1.0093
 8222TIP3    H246158   3.773   1.545   4.297 -1.9585 -0.8626  0.8238
 8223TIP3   OH246159   5.922   0.877   0.215  0.0613 -0.1012 -0.3778
 8223TIP3    H146160   5.928   0.819   0.291  3.0180 -0.5006 -0.8193
 8223TIP3    H246161   5.950   0.823   0.141  0.0189  1.0893 -1.2941
 8224TIP3   OH246162   1.689   2.376   5.341 -0.1071  0.3883  0.0910
 8224TIP3    H146163   1.742   2.338   5.271 -2.3949 -0.6813 -1.1571
 8224TIP3    H246164   1.710   2.469   5.340  0.5451  0.2449 -1.4272
 8225TIP3   OH246165   1.014   4.165  15.996  0.1253 -0.2760 -0.2970
 8225TIP3    H146166   1.074   4.206  16.058 -1.2302  0.3086  0.6868
 8225TIP3    H246167   0.981   4.237  15.942 -0.9447 -0.3064  0.2863
 8226TIP3   OH246168   5.983   0.466  16.217  0.6614 -0.4880  0.3923
 8226TIP3    H146169   5.895   0.503  16.217  1.2541  0.9779  0.0657
 8226TIP3    H246170   5.971   0.378  16.181 -0.4909  0.1290 -0.8229
 8227TIP3   OH246171   1.918   0.077  15.917 -0.1760  0.3831 -0.0821
 8227TIP3    H146172   1.853   0.147  15.919 -0.5764  0.0040  0.4896
 8227TIP3    H246173   1.994   0.114  15.963  0.5832  1.3476 -1.9967
 8228TIP3   OH246174   0.004   2.634   4.434 -0.0229  0.2466  0.2614
 8228TIP3    H146175  -0.033   2.566   4.379  0.5290 -1.3841  1.7839
 8228TIP3    H246176   0.079   2.667   4.385  1.2377 -2.0639  0.4853
 8229TIP3   OH246177   4.251   1.418  12.869  0.1260  0.2058  0.5184
 8229TIP3    H146178   4.337   1.404  12.830 -0.5080 -0.8245 -0.5637
 8229TIP3    H246179   4.235   1.512  12.859 -0.6353 -0.1943 -3.1294
 8230TIP3   OH246180   3.948   4.912  16.001 -0.0096  0.5224  0.5676
 8230TIP3    H146181   3.879   4.907  16.067 -0.7426  3.9003  0.2408
 8230TIP3    H246182   4.020   4.957  16.045  1.1295 -0.8337  0.1860
 8231TIP3   OH246183   4.167   5.425  11.519 -0.4156 -0.4506 -0.5301
 8231TIP3    H146184   4.263   5.428  11.524 -0.2994  2.4170 -2.2334
 8231TIP3    H246185   4.148   5.336  11.491  1.7737 -1.0662 -0.2845
 8232TIP3   OH246186   4.607   2.144  14.671 -0.4700  0.1424  0.2153
 8232TIP3    H146187   4.602   2.099  14.587  1.3947  2.2890 -1.1576
 8232TIP3    H246188   4.578   2.233  14.652 -0.6613  0.5035  2.0163
 8233TIP3   OH246189   2.384   4.127   2.117  0.0535  0.3420 -0.7852
 8233TIP3    H146190   2.382   4.035   2.144  0.6902  0.0243 -1.7428
 8233TIP3    H246191   2.335   4.128   2.035 -1.4697  1.1977  0.0931
 8234TIP3   OH246192   1.534   4.514  11.702 -0.2310  0.1306 -0.4647
 8234TIP3    H146193   1.577   4.430  11.687  1.2889  0.8369 -0.1909
 8234TIP3    H246194   1.499   4.538  11.616  1.3375  0.2838 -1.0950
 8235TIP3   OH246195   2.883   2.001   5.534 -0.6319 -0.3331  0.4117
 8235TIP3    H146196   2.819   2.037   5.472  0.1478 -0.3589 -0.4169
 8235TIP3    H246197   2.882   1.907   5.519 -1.4881 -0.5213  1.4634
 8236TIP3   OH246198   3.936   4.058   5.164  0.0794 -0.2445  0.5654
 8236TIP3    H146199   4.028   4.052   5.189  0.4236 -0.2712 -0.6144
 8236TIP3    H246200   3.921   3.980   5.111  0.4926  1.5817 -2.5036
 8237TIP3   OH246201   3.246   2.672  17.205 -0.0394  0.2405  0.5681
 8237TIP3    H146202   3.328   2.718  17.226  2.1139 -1.8138 -2.4047
 8237TIP3    H246203   3.194   2.735  17.157  0.1967  1.2748  1.6273
 8238TIP3   OH246204   0.161   5.920   2.755 -0.2314 -0.6997  0.5459
 8238TIP3    H146205   0.106   5.981   2.706  0.4369 -1.8337 -1.7614
 8238TIP3    H246206   0.232   5.974   2.789 -2.1711  0.6087  2.7687
 8239TIP3   OH246207   4.511   0.864   0.130 -0.3111  0.0198 -0.7537
 8239TIP3    H146208   4.435   0.810   0.106  0.1314 -0.4563 -1.1007
 8239TIP3    H246209   4.473   0.949   0.152 -0.9717 -0.2721 -0.7109
 8240TIP3   OH246210   1.470   2.677  15.562  0.6115 -0.4043 -0.1425
 8240TIP3    H146211   1.516   2.760  15.574 -1.7482  0.8501  1.1436
 8240TIP3    H246212   1.416   2.690  15.484  0.3771 -0.7919 -0.0503
 8241TIP3   OH246213   6.436   0.620   0.572 -0.3800  0.1873  0.5740
 8241TIP3    H146214   6.392   0.684   0.515 -0.6091  0.2217  0.7861
 8241TIP3    H246215   6.510   0.668   0.610  1.0902 -0.4457 -1.3601
 8242TIP3   OH246216   3.684   0.895  13.817 -0.2134 -0.0420  0.4255
 8242TIP3    H146217   3.748   0.958  13.849  1.8431 -2.0489  0.4987
 8242TIP3    H246218   3.662   0.926  13.729  1.7191  0.1186 -0.0398
 8243TIP3   OH246219   1.211   2.194   3.993 -0.5961  0.4633 -0.3055
 8243TIP3    H146220   1.134   2.140   3.975 -0.2872 -0.8035  1.8862
 8243TIP3    H246221   1.285   2.135   3.984 -0.0698  1.0551  0.0559
 8244TIP3   OH246222   0.146   3.777  13.690 -0.1703  0.1055 -0.2123
 8244TIP3    H146223   0.080   3.798  13.625  1.7065 -0.1900 -2.3646
 8244TIP3    H246224   0.178   3.862  13.720 -0.3321  0.2575 -0.4647
 8245TIP3   OH246225   1.871   3.942   4.974  0.4760 -0.1949 -0.4930
 8245TIP3    H146226   1.896   3.912   5.061 -3.3649 -0.3925  0.7277
 8245TIP3    H246227   1.824   4.024   4.989  0.4614  0.2385 -2.5057
 8246TIP3   OH246228   5.293   5.834   3.145 -0.0868  0.6609 -0.0795
 8246TIP3    H146229   5.268   5.748   3.111 -1.4064  0.8037  0.5069
 8246TIP3    H246230   5.387   5.825   3.165 -0.2547 -0.6947  0.1707
 8247TIP3   OH246231   1.607   2.096  10.836 -0.3078 -0.4645  0.3515
 8247TIP3    H146232   1.579   2.169  10.891 -2.5161 -0.6711 -0.4032
 8247TIP3    H246233   1.688   2.066  10.876  0.6702  2.3624  0.6864
 8248TIP3   OH246234   3.957   2.265  12.101  0.4554 -0.0459  0.2158
 8248TIP3    H146235   3.918   2.182  12.130  0.5876 -0.3941 -0.5928
 8248TIP3    H246236   3.935   2.327  12.171 -1.9245 -0.0967 -0.3960
 8249TIP3   OH246237   1.511   1.054   4.025  0.4568 -0.1281  0.6584
 8249TIP3    H146238   1.563   1.047   4.105  0.9432  0.7252  0.4285
 8249TIP3    H246239   1.420   1.053   4.055  0.5946 -1.1774  1.0995
 8250TIP3   OH246240   0.925   3.047   0.627 -0.0843  0.5039  0.2893
 8250TIP3    H146241   0.950   3.012   0.713  2.6211  2.5520  0.4760
 8250TIP3    H246242   0.944   3.140   0.634 -1.6314  1.0567 -1.9798
 8251TIP3   OH246243   4.174   4.892  12.532 -0.2376  0.5460 -0.9876
 8251TIP3    H146244   4.139   4.910  12.620 -0.3141  0.2232 -0.9500
 8251TIP3    H246245   4.224   4.971  12.510  1.1753 -0.0273  0.0419
 8252TIP3   OH246246   3.990   3.641  15.968 -0.0510 -0.5956 -0.2095
 8252TIP3    H146247   4.019   3.619  16.057 -0.9305 -0.9167  0.0078
 8252TIP3    H246248   3.958   3.731  15.974 -1.3429 -1.0590  0.1171
 8253TIP3   OH246249   6.366   2.765  16.196  0.3315  0.0931 -0.7555
 8253TIP3    H146250   6.383   2.736  16.286  1.1194  1.3529 -0.4714
 8253TIP3    H246251   6.452   2.777  16.158  0.0947  2.2339 -0.7588
 8254TIP3   OH246252   1.946   0.862   0.258 -0.0509 -0.3074  0.0388
 8254TIP3    H146253   1.966   0.943   0.304 -0.5780 -0.8094  1.2103
 8254TIP3    H246254   1.998   0.866   0.177  0.0481  1.1055  0.1474
 8255TIP3   OH246255   4.941   1.888   5.580 -0.0246  0.3484 -0.1382
 8255TIP3    H146256   4.893   1.931   5.652 -1.0930  0.3438 -0.8150
 8255TIP3    H246257   4.879   1.890   5.507 -0.0255 -2.1284 -0.2757
 8256TIP3   OH246258   0.413   1.863  13.662  0.3748  0.0016  0.3074
 8256TIP3    H146259   0.356   1.925  13.616  0.2698 -0.1905  0.1757
 8256TIP3    H246260   0.395   1.879  13.755 -0.2285 -0.3640  0.2582
 8257TIP3   OH246261   1.769   6.776   3.951  0.4781  0.0153  0.1053
 8257TIP3    H146262   1.754   6.718   4.026  1.1711 -0.1335  0.1314
 8257TIP3    H246263   1.706   6.847   3.963  2.3811  1.4365  2.3170
 8258TIP3   OH246264   3.845   0.339   4.492 -0.5083  0.3313  0.1094
 8258TIP3    H146265   3.785   0.286   4.545  0.7788  0.5124  1.8631
 8258TIP3    H246266   3.809   0.335   4.404 -0.2490 -3.8152  0.0221
 8259TIP3   OH246267   4.826   2.170   1.773  0.3886  0.8120 -0.0745
 8259TIP3    H146268   4.774   2.145   1.850  1.0920  1.0372  0.4884
 8259TIP3    H246269   4.822   2.265   1.771  0.4203  0.8087 -0.2798
 8260TIP3   OH246270   4.832   6.082  15.805 -0.0879 -0.0380 -0.3697
 8260TIP3    H146271   4.859   6.009  15.861  0.1696 -0.9421 -1.6304
 8260TIP3    H246272   4.849   6.160  15.858  1.7168 -0.7687  0.2200
 8261TIP3   OH246273   4.739   3.560  12.942  0.0100 -0.7934  0.0110
 8261TIP3    H146274   4.656   3.574  12.895  0.1247 -0.1705 -0.0123
 8261TIP3    H246275   4.792   3.637  12.921  0.5461 -1.1239  0.1381
 8262TIP3   OH246276   5.684   1.097  13.947 -0.1391  0.1019 -0.1993
 8262TIP3    H146277   5.617   1.131  14.007  0.7879  1.7268 -0.0267
 8262TIP3    H246278   5.734   1.035  14.000  0.6432  1.4879  0.7456
 8263TIP3   OH246279   6.610   3.830   0.582  0.2519 -0.4204 -0.4445
 8263TIP3    H146280   6.666   3.907   0.592  1.7021 -1.4705 -0.1198
 8263TIP3    H246281   6.587   3.806   0.672  1.3066 -1.4046 -0.4211
 8264TIP3   OH246282   4.605   0.170  10.602 -0.6260  0.3058  0.0279
 8264TIP3    H146283   4.598   0.097  10.663 -1.9513 -0.0157 -0.4905
 8264TIP3    H246284   4.537   0.155  10.537 -1.4088  2.3578  0.2885
 8265TIP3   OH246285   2.970   1.082   3.101  0.2374  0.3335  0.4798
 8265TIP3    H146286   2.998   1.099   3.011  1.6423 -1.3958  0.5451
 8265TIP3    H246287   2.981   1.165   3.146  0.8206  0.8771 -0.6346
 8266TIP3   OH246288   4.761   1.899  11.804 -0.4546 -0.2979 -0.1674
 8266TIP3    H146289   4.687   1.955  11.826  0.6431  0.4464  1.9023
 8266TIP3    H246290   4.838   1.955  11.818  0.6445 -2.0707  1.3320
 8267TIP3   OH246291   2.322   5.133  15.620 -0.4381 -0.3743  0.2251
 8267TIP3    H146292   2.255   5.180  15.671 -0.2555  1.0672 -0.7796
 8267TIP3    H246293   2.279   5.053  15.591 -1.4358  0.1091  0.3386
 8268TIP3   OH246294   1.530   3.603  12.510 -0.1090  0.2375  0.6298
 8268TIP3    H146295   1.580   3.628  12.587  3.0604 -0.8321 -0.9052
 8268TIP3    H246296   1.552   3.668  12.444  0.3690 -0.9825 -0.4685
 8269TIP3   OH246297   1.875   4.358  12.138 -0.1450  0.0329  0.1094
 8269TIP3    H146298   1.825   4.366  12.220  0.0565 -0.4463  0.2800
 8269TIP3    H246299   1.966   4.351  12.167 -0.0718 -0.1132 -0.1637
 8270TIP3   OH246300   6.820   6.159  11.252 -0.2959  0.5908  0.2057
 8270TIP3    H146301   6.771   6.207  11.319  0.5875 -0.4760  1.6615
 8270TIP3    H246302   6.809   6.067  11.276  1.4427  0.2680 -0.0959
 8271TIP3   OH246303   1.065   3.432  12.501 -0.1373 -0.0421 -0.1483
 8271TIP3    H146304   1.161   3.427  12.491 -0.1714 -1.1085 -0.0290
 8271TIP3    H246305   1.041   3.349  12.542 -1.0154  0.6222  0.7186
 8272TIP3   OH246306   1.927   4.491  12.964  0.5267 -0.4354  0.4972
 8272TIP3    H146307   2.004   4.505  13.018 -0.3033  0.7207  1.4336
 8272TIP3    H246308   1.952   4.522  12.877  0.7381  1.1090  1.0886
 8273TIP3   OH246309   5.815   2.430   3.348  0.7227  0.3316 -0.3700
 8273TIP3    H146310   5.827   2.354   3.405  5.2294  0.6288 -0.5164
 8273TIP3    H246311   5.841   2.400   3.261  1.4351  1.6807 -0.6631
 8274TIP3   OH246312   1.783   1.185  11.794 -0.2151 -0.3956 -0.5086
 8274TIP3    H146313   1.772   1.139  11.877  1.3792  0.8966  0.4693
 8274TIP3    H246314   1.852   1.136  11.748 -0.1660 -0.3411 -0.4930
 8275TIP3   OH246315   2.957   1.357   2.918 -0.2831 -0.6743  0.2278
 8275TIP3    H146316   2.956   1.426   2.984  0.5575  0.0470 -0.4908
 8275TIP3    H246317   3.045   1.321   2.921 -0.6460 -1.5603  0.4293
 8276TIP3   OH246318   1.984   5.585  15.153 -0.3386 -0.0606  0.1781
 8276TIP3    H146319   1.932   5.575  15.073 -0.1769 -0.7385  0.1556
 8276TIP3    H246320   1.941   5.657  15.200 -0.1814  0.6354 -0.7129
 8277TIP3   OH246321   0.880   4.055  17.002  0.2124  0.1355  0.1634
 8277TIP3    H146322   0.866   4.103  16.920  0.8874  1.5612  0.8529
 8277TIP3    H246323   0.821   3.980  16.995 -2.0071  1.7830 -0.3707
 8278TIP3   OH246324   4.312   5.893   1.623 -0.6171  0.4642 -0.1304
 8278TIP3    H146325   4.407   5.880   1.617 -0.8571 -2.3072  0.6471
 8278TIP3    H246326   4.279   5.877   1.535 -0.5006 -0.5320 -0.0082
 8279TIP3   OH246327   0.435   5.182   0.419  0.0799  0.2278  0.0620
 8279TIP3    H146328   0.415   5.090   0.432 -0.4524  0.5654  1.8428
 8279TIP3    H246329   0.358   5.228   0.453 -0.1253  1.3208 -1.7555
 8280TIP3   OH246330   1.099   2.629  14.958 -0.1685 -0.4890  0.1870
 8280TIP3    H146331   1.173   2.639  14.898 -0.3266 -0.2703  0.0308
 8280TIP3    H246332   1.048   2.556  14.921 -1.0814  0.6097 -0.7842
 8281TIP3   OH246333   0.395   5.881  15.162  0.3766 -0.3911 -0.3216
 8281TIP3    H146334   0.397   5.859  15.255  0.2878  1.6599  0.1974
 8281TIP3    H246335   0.302   5.878  15.139  0.3650 -0.5230 -0.2620
 8282TIP3   OH246336   2.478   2.728   5.944 -0.3629 -0.0328 -0.2294
 8282TIP3    H146337   2.541   2.798   5.960  0.1492 -0.6718  0.6672
 8282TIP3    H246338   2.500   2.661   6.009  0.1813 -1.7151 -2.0760
 8283TIP3   OH246339   4.406   0.350   0.700 -0.2261 -0.1414 -0.1462
 8283TIP3    H146340   4.440   0.370   0.613  0.1881 -1.1450 -0.2244
 8283TIP3    H246341   4.442   0.420   0.755  2.3076 -1.2952 -0.1714
 8284TIP3   OH246342   4.526   4.427  16.714 -0.5324  0.0803 -0.6866
 8284TIP3    H146343   4.500   4.517  16.732 -0.6123  0.0718 -0.7572
 8284TIP3    H246344   4.568   4.430  16.628 -1.4332 -0.1107 -1.1456
 8285TIP3   OH246345   0.710   5.734  14.822  0.3672 -0.3001  0.1776
 8285TIP3    H146346   0.637   5.715  14.762  0.3731  1.9824 -0.6159
 8285TIP3    H246347   0.671   5.727  14.909 -0.8067  0.8228 -0.2320
 8286TIP3   OH246348   5.725   1.744   4.773  0.1527 -0.2986 -0.8533
 8286TIP3    H146349   5.675   1.824   4.756  0.8183  0.3365  0.0695
 8286TIP3    H246350   5.815   1.767   4.752  0.8315  0.1520  2.0732
 8287TIP3   OH246351   2.326   6.466  12.043 -0.4478 -0.7451  0.1610
 8287TIP3    H146352   2.344   6.560  12.038 -2.6139 -0.0959  2.4114
 8287TIP3    H246353   2.412   6.424  12.035  0.7859  1.5019  0.7765
 8288TIP3   OH246354   4.947   6.183   3.657  0.3099 -0.3048  0.6992
 8288TIP3    H146355   5.030   6.136   3.655  0.1133 -0.6262 -0.3931
 8288TIP3    H246356   4.906   6.164   3.573  0.3376  2.0370  0.0923
 8289TIP3   OH246357   5.326   5.987   4.537 -0.0766  0.1648  0.7675
 8289TIP3    H146358   5.293   5.919   4.479  0.6671 -0.3545  0.9438
 8289TIP3    H246359   5.249   6.039   4.560 -0.2295  1.0772 -1.5543
 8290TIP3   OH246360   4.805   1.319   4.628 -1.2569  0.3363  0.5261
 8290TIP3    H146361   4.774   1.240   4.583 -2.8637 -0.6496  3.1745
 8290TIP3    H246362   4.887   1.341   4.583 -1.7095 -1.7102 -1.5003
 8291TIP3   OH246363   6.130   5.895  10.692  0.2309 -0.2276 -0.3359
 8291TIP3    H146364   6.091   5.914  10.607 -0.0625 -0.6281 -0.2956
 8291TIP3    H246365   6.068   5.835  10.733 -0.1302  0.7372  0.5713
 8292TIP3   OH246366   3.577   5.646  16.651 -0.7771 -0.2399  0.5513
 8292TIP3    H146367   3.531   5.607  16.726 -0.8852  1.8925  1.6564
 8292TIP3    H246368   3.528   5.725  16.630  0.6603  0.4937 -0.2006
 8293TIP3   OH246369   0.055   5.675   3.146 -0.4277 -0.6318 -0.0971
 8293TIP3    H146370   0.057   5.754   3.200  1.9415 -0.6069 -0.0985
 8293TIP3    H246371   0.035   5.706   3.058 -0.0609 -0.1007  0.0040
 8294TIP3   OH246372   1.921   4.452  16.713  0.2458 -0.3979 -0.0649
 8294TIP3    H146373   1.985   4.523  16.707  0.4927 -0.6688 -0.7447
 8294TIP3    H246374   1.958   4.382  16.659 -0.2134 -0.8789  0.2332
 8295TIP3   OH246375   4.002   4.742   5.448  0.6338 -0.4371 -1.1191
 8295TIP3    H146376   3.954   4.708   5.373  0.3846  0.2018 -1.2550
 8295TIP3    H246377   4.041   4.665   5.489 -1.3664 -1.1106 -0.3812
 8296TIP3   OH246378   6.826   0.361   4.301 -0.1121 -0.3489  0.4139
 8296TIP3    H146379   6.887   0.414   4.249  1.5207 -1.9140  0.6115
 8296TIP3    H246380   6.751   0.346   4.242  0.1391  0.7804 -0.2138
 8297TIP3   OH246381   3.487   6.224   5.550  0.2809  0.0391 -0.1859
 8297TIP3    H146382   3.551   6.210   5.619  0.7457 -2.0731 -0.9801
 8297TIP3    H246383   3.403   6.203   5.591  0.4354 -0.1424  0.0393
 8298TIP3   OH246384   1.790   3.080  14.390  0.4555 -0.5038  0.0995
 8298TIP3    H146385   1.883   3.094  14.409 -0.4185  1.3680  4.1306
 8298TIP3    H246386   1.754   3.169  14.385 -1.2958 -1.1875 -0.0691
 8299TIP3   OH246387   0.142   2.677   3.458 -0.2283 -0.2900 -0.1732
 8299TIP3    H146388   0.052   2.650   3.438 -0.3868 -0.3391  0.5818
 8299TIP3    H246389   0.132   2.757   3.510  0.1844 -0.0679 -0.4214
 8300TIP3   OH246390   2.510   4.760   1.831 -0.3454 -0.1811  0.3141
 8300TIP3    H146391   2.437   4.821   1.821  0.5742  0.7254 -1.4685
 8300TIP3    H246392   2.547   4.753   1.743  0.8363 -1.7293  0.8971
 8301TIP3   OH246393   2.189   2.843   4.200 -0.1331  0.2241 -0.7823
 8301TIP3    H146394   2.275   2.870   4.232 -1.1308  3.2344 -0.2756
 8301TIP3    H246395   2.144   2.809   4.278 -0.0050  0.3569 -0.6511
 8302TIP3   OH246396   2.884   1.824  14.420 -0.3680  0.0138  0.8301
 8302TIP3    H146397   2.969   1.862  14.397 -0.5746 -0.1434 -0.2403
 8302TIP3    H246398   2.843   1.804  14.336  0.2566 -3.7554  1.2556
 8303TIP3   OH246399   0.180   6.516  16.413  0.0436 -0.4871 -0.2541
 8303TIP3    H146400   0.093   6.479  16.428  0.3857 -1.3837 -0.3889
 8303TIP3    H246401   0.191   6.582  16.480 -0.3156 -1.1458  0.4695
 8304TIP3   OH246402   1.738   6.062   0.461 -0.1012 -0.3532 -0.5795
 8304TIP3    H146403   1.752   6.039   0.370 -1.0985 -0.3156 -0.7590
 8304TIP3    H246404   1.646   6.040   0.477  0.3830 -1.5220  0.7699
 8305TIP3   OH246405   5.970   3.608   1.652 -0.4792  0.0430  0.5862
 8305TIP3    H146406   6.006   3.679   1.705 -1.5140  0.8466  0.2273
 8305TIP3    H246407   6.031   3.600   1.578 -0.4910  0.7315  0.4982
 8306TIP3   OH246408   4.263   2.302  13.967  0.0491 -0.0465 -0.0621
 8306TIP3    H146409   4.208   2.369  14.008  0.7526  2.4387 -2.8914
 8306TIP3    H246410   4.331   2.284  14.032 -1.3630  0.3566  1.5959
 8307TIP3   OH246411   2.189   3.083  12.705 -0.0353 -0.7314  0.0689
 8307TIP3    H146412   2.211   3.039  12.787  0.4158 -0.0416  0.3268
 8307TIP3    H246413   2.128   3.152  12.731  0.6600 -0.0519 -0.0660
 8308TIP3   OH246414   2.669   3.413  11.397  0.5136 -0.7193  0.3910
 8308TIP3    H146415   2.756   3.442  11.424 -0.1278  1.7732  0.0103
 8308TIP3    H246416   2.609   3.461  11.453 -0.6620 -1.9574  0.2432
 8309TIP3   OH246417   1.564   6.555  16.009 -0.1321  0.3271 -0.3163
 8309TIP3    H146418   1.565   6.650  16.020  0.4374  0.5972 -2.2608
 8309TIP3    H246419   1.652   6.533  15.978  0.0755 -1.0035  1.0782
 8310TIP3   OH246420   6.590   5.364   1.676  0.1023 -0.1838  0.6034
 8310TIP3    H146421   6.563   5.455   1.667 -0.8687 -0.6800 -3.1042
 8310TIP3    H246422   6.683   5.364   1.653 -0.6942 -0.4274 -3.2729
 8311TIP3   OH246423   3.221   5.187  16.394 -0.0171  0.9685  0.0161
 8311TIP3    H146424   3.242   5.229  16.311  2.7850  0.5204  0.3935
 8311TIP3    H246425   3.302   5.192  16.445 -0.7155 -1.4608  1.5438
 8312TIP3   OH246426   3.820   1.890   4.342  0.1330 -0.0926 -0.2905
 8312TIP3    H146427   3.731   1.925   4.348  0.8594  1.9733 -0.8035
 8312TIP3    H246428   3.830   1.837   4.421 -1.6365 -0.6372 -0.3722
 8313TIP3   OH246429   3.533   5.170  13.154  0.6821  0.2375 -0.4323
 8313TIP3    H146430   3.516   5.120  13.234  1.6896  1.2623  0.4495
 8313TIP3    H246431   3.517   5.107  13.083 -3.7661  0.2090  0.2913
 8314TIP3   OH246432   0.843   2.065  11.742  0.1070 -0.2395 -0.0056
 8314TIP3    H146433   0.937   2.055  11.756 -0.2229 -0.9964  1.9275
 8314TIP3    H246434   0.822   2.001  11.673  1.2693  1.3193 -1.9400
 8315TIP3   OH246435   5.435   1.708  11.212  0.1366 -0.3270  0.8846
 8315TIP3    H146436   5.487   1.658  11.149  0.7136  1.0638  0.2048
 8315TIP3    H246437   5.465   1.798  11.200 -0.5878  0.1277  2.3402
 8316TIP3   OH246438   0.374   2.332  14.865  0.1552 -0.1621 -0.0915
 8316TIP3    H146439   0.373   2.427  14.859 -0.6399 -0.1372  0.2920
 8316TIP3    H246440   0.287   2.309  14.896  0.5787 -0.9673  0.5457
 8317TIP3   OH246441   5.922   1.628   3.692 -0.5016 -0.3925 -0.1687
 8317TIP3    H146442   5.906   1.723   3.697  0.8983 -0.1744  0.9582
 8317TIP3    H246443   5.836   1.589   3.707 -1.0377  0.7057 -0.2697
 8318TIP3   OH246444   4.402   4.981   3.653  0.0580  0.1032  0.6343
 8318TIP3    H146445   4.374   4.972   3.744  1.3742  0.6943  1.1113
 8318TIP3    H246446   4.482   5.033   3.657 -0.3545  0.9352 -0.9342
 8319TIP3   OH246447   3.147   6.803  14.879  0.2734  0.0329  0.1252
 8319TIP3    H146448   3.115   6.752  14.954  0.1745 -1.0764 -0.6508
 8319TIP3    H246449   3.172   6.887  14.917 -0.5636 -0.2039  1.2679
 8320TIP3   OH246450   4.510   6.146  16.713 -0.0176  0.1173  0.2289
 8320TIP3    H146451   4.570   6.155  16.788 -0.4702 -1.5143  0.8211
 8320TIP3    H246452   4.440   6.090  16.745 -0.4971 -0.1834 -1.2726
 8321TIP3   OH246453   4.018   5.280  15.993  0.1018  0.0521  0.3244
 8321TIP3    H146454   4.070   5.249  16.068  0.6289  1.3145  0.4971
 8321TIP3    H246455   3.963   5.349  16.029  1.1005  1.3868 -0.6431
 8322TIP3   OH246456   1.712   1.492   3.437  0.3665 -0.0337 -0.1922
 8322TIP3    H146457   1.768   1.560   3.475  0.7179 -0.5243  0.1919
 8322TIP3    H246458   1.742   1.411   3.479  0.2080 -0.4761 -0.9225
 8323TIP3   OH246459   2.685   6.726   0.740 -0.2730  0.2325 -0.2948
 8323TIP3    H146460   2.750   6.659   0.765  0.4798  0.8936 -0.4351
 8323TIP3    H246461   2.727   6.775   0.670  0.3998  2.6520  1.6308
 8324TIP3   OH246462   0.251   3.920   3.069 -0.5559 -0.3699 -0.1166
 8324TIP3    H146463   0.171   3.907   3.017 -0.8143  1.3130 -0.2017
 8324TIP3    H246464   0.251   4.014   3.089  0.0245 -0.8129  2.1621
 8325TIP3   OH246465   4.676   4.754  16.896  0.2116 -0.0800  0.4112
 8325TIP3    H146466   4.685   4.724  16.806  0.9459  1.4631 -0.0548
 8325TIP3    H246467   4.616   4.691  16.936 -2.9510  1.0720 -2.0538
 8326TIP3   OH246468   1.960   3.334   1.125  0.6081 -0.0733 -0.3757
 8326TIP3    H146469   1.946   3.287   1.043 -1.7487  0.3229 -0.2945
 8326TIP3    H246470   1.974   3.265   1.190  1.7123 -0.4192 -0.9572
 8327TIP3   OH246471   3.791   5.532   3.632 -0.0629 -0.4351 -0.0475
 8327TIP3    H146472   3.807   5.564   3.543 -0.8406 -0.0558 -0.0565
 8327TIP3    H246473   3.879   5.519   3.669  0.3338  2.0738  0.0765
 8328TIP3   OH246474   6.542   1.677  15.063 -0.6563 -0.2591  0.4575
 8328TIP3    H146475   6.538   1.754  15.006  1.2513  1.9789  3.0838
 8328TIP3    H246476   6.467   1.686  15.121  0.6743  0.8248  2.0768
 8329TIP3   OH246477   1.875   1.110   4.808  0.3289  0.0795 -0.2274
 8329TIP3    H146478   1.818   1.080   4.879  0.4835 -0.2885 -0.2534
 8329TIP3    H246479   1.903   1.029   4.765  2.2401  0.0895  0.8512
 8330TIP3   OH246480   4.120   6.619   5.471  0.6176  0.6558  0.0307
 8330TIP3    H146481   4.097   6.709   5.449  0.8139  0.7029  0.0173
 8330TIP3    H246482   4.059   6.565   5.421  0.5428  0.7805 -0.0109
 8331TIP3   OH246483   4.132   5.919   1.109  0.1689  0.0248  0.0574
 8331TIP3    H146484   4.166   5.983   1.046 -1.0992 -0.9447 -1.7444
 8331TIP3    H246485   4.051   5.959   1.142  1.2043  0.8557  1.7303
 8332TIP3   OH246486   2.692   4.708   0.959  0.1708 -0.0571 -0.3653
 8332TIP3    H146487   2.693   4.623   1.003  1.5672  0.1654  0.0896
 8332TIP3    H246488   2.603   4.740   0.971 -0.3373 -1.3752 -0.4056
 8333TIP3   OH246489   6.045   1.366  12.269 -0.3466  0.5520  0.5897
 8333TIP3    H146490   6.029   1.325  12.184 -1.9107 -0.8212  1.4818
 8333TIP3    H246491   6.065   1.458  12.248 -0.0793  0.1206 -1.2688
 8334TIP3   OH246492   0.089   3.246   4.697 -0.3221  0.0392 -0.0101
 8334TIP3    H146493   0.054   3.256   4.608 -0.0430  0.9192 -0.0290
 8334TIP3    H246494   0.019   3.203   4.745 -0.4873 -0.4235 -0.6472
 8335TIP3   OH246495   1.752   2.923   3.511  0.1156  0.1067 -0.0126
 8335TIP3    H146496   1.720   2.964   3.592 -1.3389 -1.6054  0.3406
 8335TIP3    H246497   1.750   2.994   3.446 -2.6708  0.5707  0.4648
 8336TIP3   OH246498   2.261   3.332  12.018 -0.2344  0.2403 -0.1508
 8336TIP3    H146499   2.249   3.273  12.093 -0.0779 -1.8028 -1.6639
 8336TIP3    H246500   2.173   3.366  12.001 -1.0234 -2.1031 -1.2036
 8337TIP3   OH246501   3.248   2.779   1.355  0.4831  0.9743 -0.6988
 8337TIP3    H146502   3.280   2.690   1.337 -1.3232 -0.0819  0.8532
 8337TIP3    H246503   3.280   2.797   1.444  0.5119  1.7185 -0.8593
 8338TIP3   OH246504   3.393   2.784  15.650 -0.1102  0.3867 -0.1717
 8338TIP3    H146505   3.434   2.735  15.721 -0.0252  0.1114 -0.4096
 8338TIP3    H246506   3.357   2.862  15.693  0.0903  0.3081  0.1437
 8339TIP3   OH246507   1.575   3.742  16.623  0.4962 -0.7939  0.1521
 8339TIP3    H146508   1.602   3.652  16.643  1.7857 -0.3975  0.2886
 8339TIP3    H246509   1.493   3.753  16.671  1.8524 -0.9496  2.6714
 8340TIP3   OH246510   3.525   1.365  16.854  0.2950 -0.1973 -0.1808
 8340TIP3    H146511   3.583   1.306  16.807 -0.0656  0.2941 -1.2564
 8340TIP3    H246512   3.465   1.399  16.788 -0.1161  0.6337  0.5920
 8341TIP3   OH246513   2.082   6.743  11.222 -0.2567  0.3317  0.7476
 8341TIP3    H146514   2.169   6.774  11.196 -1.2989  1.6215 -1.4704
 8341TIP3    H246515   2.035   6.822  11.247 -1.1069 -0.2247  0.9590
 8342TIP3   OH246516   3.803   2.904  15.861  0.2358  0.1804 -0.2274
 8342TIP3    H146517   3.729   2.884  15.918 -0.3249 -0.7886 -1.2455
 8342TIP3    H246518   3.777   2.984  15.815 -0.6722 -0.7057 -1.3250
 8343TIP3   OH246519   0.712   0.275   5.028 -0.3302  0.4861  0.4113
 8343TIP3    H146520   0.798   0.311   5.008  0.4375 -1.4058  0.1421
 8343TIP3    H246521   0.666   0.276   4.944  0.5000 -1.1799 -0.1094
 8344TIP3   OH246522   4.754   4.780   4.639  0.5846 -0.0906 -0.4615
 8344TIP3    H146523   4.722   4.738   4.719 -0.1102  1.6675  0.2248
 8344TIP3    H246524   4.841   4.743   4.625 -0.0963 -1.9450 -0.0693
 8345TIP3   OH246525   1.251   0.622  12.739 -0.9942 -0.3387 -0.0460
 8345TIP3    H146526   1.290   0.625  12.652 -1.6053  1.7654 -0.2889
 8345TIP3    H246527   1.188   0.693  12.740 -1.1240 -0.4159  2.0767
 8346TIP3   OH246528   3.687   2.920  12.243 -0.4126  0.6527 -0.2922
 8346TIP3    H146529   3.690   2.953  12.332  0.6319 -0.3023  0.0551
 8346TIP3    H246530   3.770   2.947  12.204 -0.4156  0.1915 -0.6346
 8347TIP3   OH246531   5.183   0.810  16.663 -0.2838  0.2622  0.4150
 8347TIP3    H146532   5.183   0.821  16.758 -0.3375 -0.4569  0.5073
 8347TIP3    H246533   5.275   0.797  16.641 -0.2005  1.0735  0.2874
 8348TIP3   OH246534   0.797   5.719   1.040 -0.5634 -0.6240  0.1832
 8348TIP3    H146535   0.774   5.656   1.108  0.0058 -1.1154 -0.0606
 8348TIP3    H246536   0.877   5.761   1.072 -0.0880 -1.1168 -0.3324
 8349TIP3   OH246537   2.957   4.446  16.371  0.0962  0.5103  0.4192
 8349TIP3    H146538   2.987   4.390  16.442 -1.1103  2.4580  2.5922
 8349TIP3    H246539   2.950   4.534  16.410 -0.9700  1.6077 -2.0026
 8350TIP3   OH246540   5.363   5.616   6.063  0.4746  0.0373 -0.2813
 8350TIP3    H146541   5.306   5.616   6.139  1.5575  0.2877  0.5602
 8350TIP3    H246542   5.408   5.700   6.066  0.4767  0.0859 -1.2535
 8351TIP3   OH246543   1.330   1.617  11.669 -0.8856  0.5042 -0.7249
 8351TIP3    H146544   1.249   1.627  11.719 -1.1643 -0.3212 -0.9980
 8351TIP3    H246545   1.370   1.704  11.671 -0.6917  0.4126  1.2779
 8352TIP3   OH246546   6.578   6.242  13.493 -0.1523 -0.7464 -0.1392
 8352TIP3    H146547   6.516   6.315  13.490 -0.3122 -0.7609  1.5999
 8352TIP3    H246548   6.594   6.220  13.402 -0.1129  1.4457 -0.7249
 8353TIP3   OH246549   4.249   2.870   3.597  0.0532  0.1162 -0.2707
 8353TIP3    H146550   4.249   2.932   3.671 -1.7222 -2.0253  1.6665
 8353TIP3    H246551   4.323   2.812   3.615 -0.3541 -0.3784 -0.1674
 8354TIP3   OH246552   5.953   0.603  14.551  0.2034  0.3559 -0.0585
 8354TIP3    H146553   5.918   0.684  14.588  2.2057  0.1622  2.5812
 8354TIP3    H246554   6.032   0.630  14.504 -1.2679  0.3367 -2.7426
 8355TIP3   OH246555   1.460   0.039   5.032  0.7688  0.3778  0.1925
 8355TIP3    H146556   1.500   0.044   5.119  0.8356  3.9481  0.1117
 8355TIP3    H246557   1.367   0.054   5.047  0.4566 -1.0083 -0.2219
 8356TIP3   OH246558   3.953   6.135   0.080 -0.5387  0.3493  0.0145
 8356TIP3    H146559   3.875   6.101   0.036 -0.0007 -0.0901 -0.6144
 8356TIP3    H246560   3.997   6.057   0.114 -1.2268  0.7076  1.8513
 8357TIP3   OH246561   3.881   5.206  11.164 -1.0892 -0.2110 -0.3601
 8357TIP3    H146562   3.970   5.217  11.131 -1.0487  1.1528  0.1063
 8357TIP3    H246563   3.884   5.242  11.253 -2.1170 -0.0371 -0.3795
 8358TIP3   OH246564   2.384   2.467  12.339 -0.1528  0.1257 -0.4472
 8358TIP3    H146565   2.353   2.540  12.285 -1.6177 -1.3332 -1.6854
 8358TIP3    H246566   2.316   2.456  12.406 -0.9095 -1.2182 -1.3845
 8359TIP3   OH246567   4.435   1.139  13.024 -0.4788  0.0034  0.6648
 8359TIP3    H146568   4.493   1.154  13.098  0.4786  0.6782 -0.2007
 8359TIP3    H246569   4.413   1.226  12.991 -0.9086 -0.2830  0.1595
 8360TIP3   OH246570   5.911   5.003  11.154  0.0508 -0.1641  0.0514
 8360TIP3    H146571   5.959   5.079  11.188  1.0899 -0.2139 -1.2393
 8360TIP3    H246572   5.840   5.041  11.103 -0.6218 -0.0920  1.0043
 8361TIP3   OH246573   0.615   1.686  17.116 -0.3432  0.0612 -0.1613
 8361TIP3    H146574   0.593   1.630  17.191 -0.7902 -0.6889 -0.8392
 8361TIP3    H246575   0.708   1.706  17.128 -0.3721 -0.1703  0.5142
 8362TIP3   OH246576   0.276   1.080  16.187 -0.2087 -0.0907 -0.4411
 8362TIP3    H146577   0.331   1.020  16.136 -1.4984 -0.1537 -1.8059
 8362TIP3    H246578   0.200   1.028  16.213 -0.1107  0.2597  0.6121
 8363TIP3   OH246579   6.022   0.720   5.836 -0.3232  0.0115 -0.0491
 8363TIP3    H146580   6.071   0.797   5.865  0.6325 -1.0461  1.2796
 8363TIP3    H246581   5.953   0.708   5.902 -0.1826 -0.5073  0.0146
 8364TIP3   OH246582   0.399   6.209   3.277  0.4785  0.6583 -0.0387
 8364TIP3    H146583   0.395   6.263   3.356  0.1188  1.2319 -0.4480
 8364TIP3    H246584   0.314   6.164   3.275  0.1638  1.2647 -0.5334
 8365TIP3   OH246585   4.529   1.837  13.512  0.2587 -0.0593 -0.6927
 8365TIP3    H146586   4.440   1.824  13.478  0.5381 -1.3088 -0.9864
 8365TIP3    H246587   4.584   1.839  13.434  0.3711  2.3450 -0.6543
 8366TIP3   OH246588   1.297   1.834  10.672  0.2269 -0.1585 -0.9814
 8366TIP3    H146589   1.257   1.788  10.745 -0.7052  1.9747 -0.0414
 8366TIP3    H246590   1.223   1.867  10.621  0.8444  0.4542 -1.5041
 8367TIP3   OH246591   3.896   6.272  11.550 -0.4228 -0.1700 -0.5530
 8367TIP3    H146592   3.860   6.341  11.494 -0.1039  0.2528 -0.2365
 8367TIP3    H246593   3.987   6.296  11.563 -0.2649 -0.7391 -0.5691
 8368TIP3   OH246594   1.163   4.390   2.862  0.0226  0.0939  0.7660
 8368TIP3    H146595   1.206   4.437   2.934 -1.6549  2.5639  0.2615
 8368TIP3    H246596   1.071   4.413   2.871 -0.1705  1.0342 -2.5121
 8369TIP3   OH246597   2.775   0.577  13.900  0.0493 -0.5874  0.4110
 8369TIP3    H146598   2.682   0.591  13.913 -0.0889 -1.7587  0.7880
 8369TIP3    H246599   2.803   0.525  13.975  0.8251 -1.0051 -0.1444
 8370TIP3   OH246600   0.011   3.657  15.152  0.3737  0.3792 -0.2384
 8370TIP3    H146601   0.071   3.605  15.097 -0.6855 -1.5286  0.3259
 8370TIP3    H246602  -0.073   3.651  15.107 -0.0501  0.4949  0.5258
 8371TIP3   OH246603   1.628   2.948  13.008 -0.0066 -0.1830 -0.1931
 8371TIP3    H146604   1.639   3.016  12.941 -1.1139  0.5205  0.3005
 8371TIP3    H246605   1.694   2.968  13.074 -0.9947  1.0682  0.4508
 8372TIP3   OH246606   3.527   5.234  16.857  0.2927  0.2673  0.3521
 8372TIP3    H146607   3.609   5.279  16.838  0.5578  0.7172  2.3522
 8372TIP3    H246608   3.533   5.211  16.950 -1.3796 -0.6975  0.2673
 8373TIP3   OH246609   2.579   4.317   1.379  0.0093  0.0220 -0.1634
 8373TIP3    H146610   2.484   4.326   1.389 -0.4661 -1.5581 -2.4547
 8373TIP3    H246611   2.596   4.225   1.397  1.0666  0.2094 -0.1569
 8374TIP3   OH246612   5.097   0.817   1.505  0.2738  0.3829  0.3516
 8374TIP3    H146613   5.141   0.884   1.558 -1.5381 -0.1112  2.6982
 8374TIP3    H246614   5.004   0.841   1.510 -0.1612 -0.9268 -0.8790
 8375TIP3   OH246615   2.140   0.440  13.567 -0.0373  0.3505 -0.1054
 8375TIP3    H146616   2.168   0.425  13.477 -2.1911 -1.1967 -0.5965
 8375TIP3    H246617   2.084   0.518  13.563 -1.0828 -0.3884 -0.3707
 8376TIP3   OH246618   0.046   1.182   1.204 -0.1085 -0.2772 -0.4858
 8376TIP3    H146619  -0.016   1.187   1.131 -0.4971 -3.5530 -0.4996
 8376TIP3    H246620   0.125   1.226   1.172 -0.6185 -0.7498 -2.4819
 8377TIP3   OH246621   0.138   0.630   4.703  0.0249  0.4093  0.1224
 8377TIP3    H146622   0.065   0.569   4.698  0.5079 -0.1733  0.0679
 8377TIP3    H246623   0.105   0.702   4.758 -1.3577  1.2875 -1.7556
 8378TIP3   OH246624   1.808   0.056  11.173  0.3874  0.3560 -0.1032
 8378TIP3    H146625   1.791   0.047  11.266 -1.1995  0.6758 -0.3406
 8378TIP3    H246626   1.789   0.147  11.153  0.6214  0.2717 -0.7627
 8379TIP3   OH246627   1.941   1.407   2.705 -0.8262  0.1415 -0.2779
 8379TIP3    H146628   2.018   1.455   2.675 -1.3932  0.0299 -2.0404
 8379TIP3    H246629   1.903   1.371   2.625 -2.0475 -0.8030  0.6880
 8380TIP3   OH246630   1.238   4.915  12.027 -0.0979 -0.3929 -0.4101
 8380TIP3    H146631   1.332   4.929  12.012 -0.1898 -0.2158 -0.8302
 8380TIP3    H246632   1.210   4.992  12.076  0.0095 -0.5260 -0.1380
 8381TIP3   OH246633   5.730   2.443   3.755 -0.1711 -0.1960 -0.2157
 8381TIP3    H146634   5.713   2.501   3.681  0.0242 -0.3661 -0.3996
 8381TIP3    H246635   5.826   2.436   3.758 -0.1632  0.0965  0.2788
 8382TIP3   OH246636   2.853   2.916  12.320 -0.0047 -0.5316  0.4460
 8382TIP3    H146637   2.828   2.987  12.260 -0.5216  0.5209  1.8399
 8382TIP3    H246638   2.934   2.881  12.283  0.9527  1.6111  0.3252
 8383TIP3   OH246639   1.889   1.478  11.832 -0.0373 -0.8850  1.1865
 8383TIP3    H146640   1.908   1.441  11.746  2.1105  0.7619  0.8876
 8383TIP3    H246641   1.867   1.401  11.886  0.5112 -2.1559 -0.3177
 8384TIP3   OH246642   5.830   3.195   3.754 -0.3227 -0.3289  0.2416
 8384TIP3    H146643   5.875   3.218   3.673  1.1194  0.3397  1.1783
 8384TIP3    H246644   5.895   3.213   3.823 -1.7226 -0.2705  1.5936
 8385TIP3   OH246645   4.957   3.479   1.117 -0.4665  0.0033  0.2914
 8385TIP3    H146646   5.002   3.511   1.195  1.1743  1.1605 -1.0500
 8385TIP3    H246647   4.949   3.556   1.061 -0.8294 -0.9526 -1.0231
 8386TIP3   OH246648   6.566   4.534   5.941  0.1580  0.0873  0.3482
 8386TIP3    H146649   6.527   4.459   5.895  1.3336  0.3969 -1.2397
 8386TIP3    H246650   6.648   4.500   5.977  1.2908  0.8197 -1.3833
 8387TIP3   OH246651   3.307   4.597   5.136  0.6538 -0.6998 -0.4695
 8387TIP3    H146652   3.363   4.625   5.064  1.0140  0.1228  0.1118
 8387TIP3    H246653   3.236   4.549   5.095  1.3914 -1.1117 -1.2882
 8388TIP3   OH246654   3.894   0.202  12.050 -0.0294  0.1795 -0.4739
 8388TIP3    H146655   3.799   0.192  12.050  0.0591 -0.9248 -1.5399
 8388TIP3    H246656   3.912   0.275  11.990 -0.1716 -0.1244 -0.8886
 8389TIP3   OH246657   6.136   6.571  13.280 -0.0657  0.0488  0.6118
 8389TIP3    H146658   6.045   6.600  13.293  0.2016  0.1810  2.4684
 8389TIP3    H246659   6.181   6.649  13.246 -1.0963 -0.6987 -2.8376
 8390TIP3   OH246660   1.748   2.463  12.304 -0.7007 -0.1489 -0.4176
 8390TIP3    H146661   1.748   2.553  12.334 -1.5086 -0.0276 -0.7430
 8390TIP3    H246662   1.787   2.413  12.375 -2.2883  0.1692  0.7210
 8391TIP3   OH246663   5.638   6.127  16.571  0.1414 -0.2150  0.0562
 8391TIP3    H146664   5.731   6.140  16.590 -0.1807  2.9959  0.0978
 8391TIP3    H246665   5.597   6.120  16.657 -0.0111  2.4187  0.2783
 8392TIP3   OH246666   6.773   4.450  16.569 -0.0674  0.3259  0.0959
 8392TIP3    H146667   6.795   4.372  16.618 -0.6769 -0.8469 -1.4074
 8392TIP3    H246668   6.702   4.491  16.619 -2.5497 -2.2591 -0.9974
 8393TIP3   OH246669   3.826   2.338  17.099  0.3758 -0.0386  0.6807
 8393TIP3    H146670   3.817   2.249  17.135  0.5417 -0.2668  0.1559
 8393TIP3    H246671   3.737   2.360  17.069  0.8072 -1.0320 -1.5209
 8394TIP3   OH246672   5.175   1.122  11.324 -0.1047 -0.3628 -0.3032
 8394TIP3    H146673   5.219   1.207  11.332 -0.9341  0.0886 -0.4627
 8394TIP3    H246674   5.116   1.132  11.249 -1.8593 -0.3302  1.0324
 8395TIP3   OH246675   0.685   3.561   5.742  0.6062  0.1345  0.2885
 8395TIP3    H146676   0.765   3.611   5.726  1.1160 -0.8105 -0.1671
 8395TIP3    H246677   0.715   3.473   5.765 -0.2776 -0.0009  0.9955
 8396TIP3   OH246678   0.802   4.403   0.496  0.2929  0.1571 -0.4235
 8396TIP3    H146679   0.830   4.427   0.408  0.2829 -1.3990 -0.8756
 8396TIP3    H246680   0.867   4.338   0.525  0.7790  1.2273  1.0573
 8397TIP3   OH246681   4.191   3.519  15.546 -0.3207  0.7856 -0.6143
 8397TIP3    H146682   4.221   3.450  15.488 -1.0334 -0.0098 -0.0618
 8397TIP3    H246683   4.231   3.599  15.511  1.5419 -0.0510 -0.5455
 8398TIP3   OH246684   5.120   1.862   5.351  0.2996 -0.0121 -0.5167
 8398TIP3    H146685   5.052   1.859   5.418  0.0778  0.0810 -0.7338
 8398TIP3    H246686   5.164   1.946   5.365  0.3207 -0.0385 -0.4237
 8399TIP3   OH246687   5.848   2.010   2.526 -0.3795  0.9862 -0.0585
 8399TIP3    H146688   5.892   2.030   2.444 -0.1286  0.7432  0.0167
 8399TIP3    H246689   5.757   2.036   2.511 -0.2044  1.5439 -0.1942
 8400TIP3   OH246690   1.609   3.302   3.098 -0.3952 -0.3826  0.3674
 8400TIP3    H146691   1.696   3.337   3.077 -0.5564 -0.4258 -0.4242
 8400TIP3    H246692   1.588   3.340   3.183 -0.6972  1.7715 -0.5938
 8401TIP3   OH246693   2.173   5.064  16.568  0.2174 -0.0036  0.2353
 8401TIP3    H146694   2.238   5.107  16.622 -1.2917  1.4469  0.9719
 8401TIP3    H246695   2.089   5.091  16.604 -0.8777  0.7821 -2.6204
 8402TIP3   OH246696   2.642   1.337  14.116 -0.0210  0.1977  0.3166
 8402TIP3    H146697   2.657   1.431  14.109 -0.4255  0.2522  0.1709
 8402TIP3    H246698   2.725   1.298  14.088 -0.5678  0.4733 -1.8703
 8403TIP3   OH246699   5.539   0.121   4.766 -0.4945  0.6529  0.1471
 8403TIP3    H146700   5.476   0.161   4.826  0.4939  3.5908 -0.6083
 8403TIP3    H246701   5.616   0.104   4.819  0.2632  2.9549 -0.1073
 8404TIP3   OH246702   0.714   4.683   3.871 -0.2317  0.3844 -0.2837
 8404TIP3    H146703   0.656   4.693   3.947 -0.9279  1.5884 -0.9436
 8404TIP3    H246704   0.680   4.606   3.826  0.1309 -0.2880  0.5651
 8405TIP3   OH246705   1.832   5.840   3.977  0.0072 -0.5802 -0.4853
 8405TIP3    H146706   1.829   5.922   4.027  0.7559 -0.9450  0.1734
 8405TIP3    H246707   1.773   5.782   4.024 -0.1281 -0.5852 -0.6595
 8406TIP3   OH246708   4.527   5.241   5.946 -0.0622  0.0287  0.6285
 8406TIP3    H146709   4.517   5.284   5.860 -0.3665 -0.8388  0.2202
 8406TIP3    H246710   4.585   5.299   5.995  0.4436  0.3330 -0.3115
 8407TIP3   OH246711   0.276   1.317   4.973  0.0534 -0.0942  0.5494
 8407TIP3    H146712   0.322   1.244   5.014  1.6759  0.1131 -0.7647
 8407TIP3    H246713   0.341   1.387   4.969 -0.0993  0.0020 -1.9859
 8408TIP3   OH246714   0.170   4.649   2.331 -0.0114  0.3659 -0.6501
 8408TIP3    H146715   0.128   4.566   2.356  1.8005 -0.3912  0.1126
 8408TIP3    H246716   0.211   4.630   2.246  0.5678  0.3909 -0.3837
 8409TIP3   OH246717   2.439   3.208   4.032 -0.6759  0.0469 -0.1344
 8409TIP3    H146718   2.353   3.165   4.033 -0.3431 -0.7139 -1.6627
 8409TIP3    H246719   2.487   3.167   4.104 -1.0265 -0.7765 -0.3543
 8410TIP3   OH246720   3.962   3.889  15.660  0.5558  0.2354 -0.4297
 8410TIP3    H146721   3.895   3.936  15.611  0.6963 -0.1473 -0.9908
 8410TIP3    H246722   3.978   3.809  15.610  2.5573  1.0426 -1.1797
 8411TIP3   OH246723   1.868   1.523   0.389 -0.0742 -0.3256 -0.4316
 8411TIP3    H146724   1.825   1.438   0.380  0.8292 -0.6557 -1.7951
 8411TIP3    H246725   1.929   1.512   0.463  0.1519 -0.9114 -0.7044
 8412TIP3   OH246726   2.518   3.259  12.105 -0.0666  0.1691  0.0469
 8412TIP3    H146727   2.538   3.200  12.032  1.5072 -0.7205  1.1301
 8412TIP3    H246728   2.458   3.323  12.068 -0.0207 -0.7721 -1.7898
 8413TIP3   OH246729   2.976   2.201   3.587  0.4218 -0.3416  0.1495
 8413TIP3    H146730   2.956   2.294   3.590 -1.5688 -0.7069 -0.4143
 8413TIP3    H246731   2.935   2.170   3.506  3.0263 -1.3135 -0.9026
 8414TIP3   OH246732   2.467   4.661   2.394 -0.0899 -0.0300  0.2172
 8414TIP3    H146733   2.446   4.704   2.477 -0.6862  1.1297 -0.4956
 8414TIP3    H246734   2.550   4.700   2.368 -1.1839  1.6245 -0.9903
 8415TIP3   OH246735   0.972   0.895   3.935 -0.4309  0.3651  0.5567
 8415TIP3    H146736   0.922   0.868   3.858 -0.2195  1.0043  0.1910
 8415TIP3    H246737   1.047   0.942   3.899  0.4715 -0.6161  1.0906
 8416TIP3   OH246738   3.214   6.178  17.247  0.4110  0.1235  0.1091
 8416TIP3    H146739   3.162   6.099  17.231  1.2116 -0.4844  0.4705
 8416TIP3    H246740   3.278   6.179  17.177 -0.1248  0.9236 -0.3872
 8417TIP3   OH246741   0.004   3.816   2.220  0.0223 -0.1033 -0.6224
 8417TIP3    H146742   0.074   3.757   2.247  1.0349  0.8626 -1.0976
 8417TIP3    H246743   0.029   3.847   2.134 -0.4017  1.1606 -0.3183
 8418TIP3   OH246744   0.027   4.440  12.738  0.1578 -0.1780  0.4635
 8418TIP3    H146745   0.059   4.513  12.791  1.3969 -0.2656 -0.1429
 8418TIP3    H246746   0.048   4.465  12.648 -0.5724 -0.7078  0.1358
 8419TIP3   OH246747   6.743   0.428   2.316  0.1709 -0.5208  0.1446
 8419TIP3    H146748   6.752   0.495   2.248 -0.2416 -1.1163 -0.5057
 8419TIP3    H246749   6.822   0.374   2.307 -1.1169 -2.2386 -1.7026
 8420TIP3   OH246750   4.083   2.546   0.434  0.3346  0.0829  0.4529
 8420TIP3    H146751   3.998   2.591   0.429  1.1674  1.7037  0.5002
 8420TIP3    H246752   4.059   2.455   0.450 -1.4280  0.3540 -0.2898
 8421TIP3   OH246753   6.356   4.664  12.477 -0.4411 -0.6810 -0.1149
 8421TIP3    H146754   6.319   4.700  12.558  0.2623  1.9759 -0.8693
 8421TIP3    H246755   6.282   4.659  12.417 -0.7369 -1.5063  0.3055
 8422TIP3   OH246756   6.216   4.932  13.346  0.6675 -0.1580 -0.3454
 8422TIP3    H146757   6.263   4.853  13.322 -2.3669 -2.0921 -0.3856
 8422TIP3    H246758   6.262   4.965  13.424  0.8300 -3.1797  0.9729
 8423TIP3   OH246759   5.440   4.053  14.305  0.4910  0.3833 -0.2743
 8423TIP3    H146760   5.486   3.981  14.260 -0.3708 -1.3953  1.5339
 8423TIP3    H246761   5.350   4.047  14.273  0.5354  1.0283 -0.5218
 8424TIP3   OH246762   3.610   2.420   1.726  0.7223 -0.4370  0.5973
 8424TIP3    H146763   3.539   2.415   1.790 -0.9954 -1.9927 -1.2653
 8424TIP3    H246764   3.633   2.329   1.709  0.1419 -0.1895 -1.9267
 8425TIP3   OH246765   6.425   2.602   4.714  0.1824  0.2254 -0.1142
 8425TIP3    H146766   6.463   2.561   4.791  0.8298 -1.5321 -1.3055
 8425TIP3    H246767   6.434   2.696   4.729  2.6015 -0.1049  0.8281
 8426TIP3   OH246768   5.492   2.958  15.937 -0.7238 -0.4347 -0.1560
 8426TIP3    H146769   5.508   2.948  15.843  0.5089 -2.4347  0.1984
 8426TIP3    H246770   5.426   2.891  15.957 -0.0819 -0.8636  0.5904
 8427TIP3   OH246771   6.624   2.796   5.001 -0.1370 -0.1412 -0.4535
 8427TIP3    H146772   6.561   2.792   4.929  0.5400  0.7303 -1.1118
 8427TIP3    H246773   6.622   2.708   5.039 -2.5440  0.1232  0.2621
 8428TIP3   OH246774   5.280   2.482   4.710  0.1159  0.6644  0.2633
 8428TIP3    H146775   5.358   2.430   4.691 -1.4778 -1.8186 -0.0271
 8428TIP3    H246776   5.252   2.452   4.797 -0.6452  1.3556  0.2701
 8429TIP3   OH246777   1.669   4.234   4.608  0.0918 -0.2117 -0.1334
 8429TIP3    H146778   1.760   4.242   4.577  0.8786  0.6219  2.1781
 8429TIP3    H246779   1.658   4.141   4.624  0.8446 -0.2259  0.3623
 8430TIP3   OH246780   2.808   2.091  11.143  0.0789 -0.2311 -0.5262
 8430TIP3    H146781   2.866   2.168  11.140 -0.1463  0.0997  1.8008
 8430TIP3    H246782   2.731   2.118  11.092  0.6267  0.5182 -0.9905
 8431TIP3   OH246783   1.804   0.748   0.588  0.0618 -0.1235  0.5647
 8431TIP3    H146784   1.791   0.787   0.675 -2.4887 -0.3195  0.3490
 8431TIP3    H246785   1.731   0.686   0.579  1.5582 -1.7976 -0.8397
 8432TIP3   OH246786   1.571   4.563   4.213 -0.6312 -0.1856 -0.3099
 8432TIP3    H146787   1.486   4.593   4.181  0.8992  1.3050 -3.4079
 8432TIP3    H246788   1.559   4.469   4.225 -2.7619  0.0140 -0.4112
 8433TIP3   OH246789   6.675   6.510   4.649  0.2779 -0.2589  0.0766
 8433TIP3    H146790   6.689   6.603   4.633  0.5936 -0.2603  0.3440
 8433TIP3    H246791   6.708   6.467   4.570 -1.0041 -0.0744 -0.5885
 8434TIP3   OH246792   1.869   6.472   2.712 -0.6084 -0.2650 -0.6386
 8434TIP3    H146793   1.871   6.480   2.617 -0.8677  0.6601 -0.5807
 8434TIP3    H246794   1.883   6.379   2.729  1.3027 -0.1903 -1.5179
 8435TIP3   OH246795   3.075   2.855  10.844  0.1028  0.0780  0.2277
 8435TIP3    H146796   3.010   2.785  10.840 -0.3497  0.5049  0.0669
 8435TIP3    H246797   3.155   2.815  10.809 -0.1172 -0.3960  0.2604
 8436TIP3   OH246798   6.573   3.033   0.217 -0.4961  0.2188 -0.2176
 8436TIP3    H146799   6.610   2.955   0.175 -0.1721  1.0638 -1.5721
 8436TIP3    H246800   6.540   3.085   0.144 -1.7257  0.8395  0.7615
 8437TIP3   OH246801   5.842   6.335   3.168 -0.3608  0.2473 -0.1566
 8437TIP3    H146802   5.815   6.418   3.208 -0.1974 -0.5152  1.6362
 8437TIP3    H246803   5.900   6.295   3.233  1.6016 -0.1566 -2.0545
 8438TIP3   OH246804   4.355   0.808   4.235  0.0709 -0.2949  0.4189
 8438TIP3    H146805   4.259   0.810   4.226 -0.0567 -1.4713  1.2411
 8438TIP3    H246806   4.381   0.900   4.232 -1.1039  0.0536  0.2889
 8439TIP3   OH246807   2.931   6.556   2.359  0.1953  0.3423 -0.0944
 8439TIP3    H146808   2.979   6.503   2.295  0.8335  1.2492 -0.3907
 8439TIP3    H246809   2.999   6.588   2.419 -0.3807 -0.3922  0.9781
 8440TIP3   OH246810   3.105   2.262  12.726 -0.0813 -0.9126  0.1364
 8440TIP3    H146811   3.047   2.196  12.767 -0.6494 -0.1860  0.5315
 8440TIP3    H246812   3.049   2.307  12.664  0.1406 -0.3962  0.3075
 8441TIP3   OH246813   3.744   3.612   4.860  0.0134 -0.4401  0.3555
 8441TIP3    H146814   3.703   3.580   4.941  2.1369 -2.6309  0.6916
 8441TIP3    H246815   3.747   3.535   4.803  1.8417  0.0985 -0.3454
 8442TIP3   OH246816   4.116   6.634  16.000 -0.0850 -0.1379 -0.1109
 8442TIP3    H146817   4.074   6.655  15.917  0.1925 -0.2652 -0.2821
 8442TIP3    H246818   4.197   6.590  15.976 -1.3467 -2.8739  0.2379
 8443TIP3   OH246819   5.824   5.367  13.728 -0.4478  0.1033  0.2274
 8443TIP3    H146820   5.868   5.297  13.681 -0.2075 -0.0431  0.6692
 8443TIP3    H246821   5.860   5.447  13.691  1.9109  0.0308  2.0839
 8444TIP3   OH246822   1.370   6.317  13.704 -0.1272  0.5030  0.6265
 8444TIP3    H146823   1.445   6.272  13.741 -0.7773 -1.9845 -0.8517
 8444TIP3    H246824   1.344   6.380  13.771  3.2357  1.5200  1.1587
 8445TIP3   OH246825   2.998   1.660  16.956 -0.0436  0.2637  0.1858
 8445TIP3    H146826   2.992   1.612  16.874  1.5300 -0.7007  0.5914
 8445TIP3    H246827   3.060   1.731  16.936  1.1731 -0.5974  0.7844
 8446TIP3   OH246828   1.508   2.751   5.359  0.8091  0.2026 -0.1357
 8446TIP3    H146829   1.416   2.744   5.386  0.4971 -1.9012 -1.4607
 8446TIP3    H246830   1.520   2.843   5.336 -1.4319  0.2345 -1.4075
 8447TIP3   OH246831   1.991   5.631  11.827  0.3359 -0.0719  0.2202
 8447TIP3    H146832   2.066   5.586  11.788  1.3729  0.1243  1.8879
 8447TIP3    H246833   1.949   5.675  11.754  1.9003 -0.1167 -0.7607
 8448TIP3   OH246834   6.206   2.121   2.585  0.3122  0.3824 -0.1817
 8448TIP3    H146835   6.251   2.157   2.662 -1.3556  0.9530  0.5646
 8448TIP3    H246836   6.120   2.096   2.617  0.2507 -1.1829 -1.4624
 8449TIP3   OH246837   1.200   0.511   3.418 -0.1920  0.0487  0.4515
 8449TIP3    H146838   1.231   0.422   3.398 -2.1519 -0.9143  1.3875
 8449TIP3    H246839   1.193   0.513   3.513  2.1176  2.0964  0.6654
 8450TIP3   OH246840   2.261   3.220  13.532 -0.0679 -0.6786  0.0581
 8450TIP3    H146841   2.335   3.261  13.488 -0.0022  0.9912  1.5817
 8450TIP3    H246842   2.294   3.201  13.620 -1.6207  0.9424  1.0746
 8451TIP3   OH246843   3.853   5.974  16.620 -0.1780  0.1113 -0.6992
 8451TIP3    H146844   3.925   6.011  16.569 -1.5562  1.2058 -1.9256
 8451TIP3    H246845   3.844   6.034  16.694  2.1504 -1.7470  1.2869
 8452TIP3   OH246846   3.090   5.123  16.683  0.0988 -0.1991  0.0579
 8452TIP3    H146847   3.185   5.114  16.673  0.2672  1.3304  0.1562
 8452TIP3    H246848   3.072   5.214  16.662 -1.4253 -0.5822 -0.4104
 8453TIP3   OH246849   0.699   4.959  14.340  0.2048  0.1347  0.5001
 8453TIP3    H146850   0.639   5.004  14.280  1.0039  1.5943  0.7416
 8453TIP3    H246851   0.644   4.931  14.413 -0.6263 -0.9157 -0.4855
 8454TIP3   OH246852   2.033   6.315   3.018 -0.5100 -0.3586 -0.3927
 8454TIP3    H146853   1.981   6.394   3.006 -1.0887 -0.3486  1.7735
 8454TIP3    H246854   2.119   6.346   3.048 -0.7359 -0.5162  0.4553
 8455TIP3   OH246855   4.197   6.161  15.543  0.2338  0.6042 -0.1731
 8455TIP3    H146856   4.264   6.106  15.585  0.7884  1.3445 -0.0609
 8455TIP3    H246857   4.247   6.220  15.486 -0.5431 -1.1320 -2.8760
 8456TIP3   OH246858   1.145   1.168   4.583  0.0917  0.3905 -0.6118
 8456TIP3    H146859   1.094   1.150   4.662  2.3896  0.8305  1.0631
 8456TIP3    H246860   1.132   1.261   4.567 -0.9620  0.1555 -1.2402
 8457TIP3   OH246861   4.167   3.216   0.474  0.0162  0.4924 -0.2225
 8457TIP3    H146862   4.184   3.127   0.443  0.2874  0.6751 -0.6106
 8457TIP3    H246863   4.126   3.204   0.559  2.3376  0.0400  0.9026
 8458TIP3   OH246864   1.277   5.168   2.839  0.1554 -0.4712  0.3227
 8458TIP3    H146865   1.259   5.256   2.872  0.3784 -0.6210  0.8640
 8458TIP3    H246866   1.371   5.168   2.819 -0.1122 -0.1618 -1.0245
 8459TIP3   OH246867   1.364   3.223  11.333 -0.4068  0.9825  0.2410
 8459TIP3    H146868   1.305   3.263  11.270 -0.1843 -0.8178 -1.1989
 8459TIP3    H246869   1.442   3.278  11.331 -0.8856  1.6657 -0.0994
 8460TIP3   OH246870   4.073   5.315  10.939 -0.0139  0.1958 -0.6952
 8460TIP3    H146871   4.118   5.233  10.959  0.9148  0.8689  0.0762
 8460TIP3    H246872   4.050   5.307  10.846  0.7002 -0.6400 -0.8158
 8461TIP3   OH246873   6.308   4.474   4.333  0.5074 -0.9300  0.5218
 8461TIP3    H146874   6.391   4.428   4.326  0.3373 -1.1349 -0.3857
 8461TIP3    H246875   6.252   4.432   4.267  0.3195  0.5047 -0.2818
 8462TIP3   OH246876   6.003   0.343  14.480 -0.3241  0.1789 -0.3433
 8462TIP3    H146877   5.915   0.329  14.446  0.2899 -2.2896 -1.1500
 8462TIP3    H246878   5.993   0.412  14.545 -3.1037 -0.9458  0.5887
 8463TIP3   OH246879   4.084   5.743  14.697  0.5772  0.9324 -0.4450
 8463TIP3    H146880   4.169   5.780  14.722  1.1452 -0.5561 -0.1080
 8463TIP3    H246881   4.097   5.711  14.608 -0.4579  3.1105 -1.4675
 8464TIP3   OH246882   4.241   3.094  13.610  0.1410 -0.6115 -0.1342
 8464TIP3    H146883   4.313   3.155  13.625 -0.3775  0.1656 -0.7467
 8464TIP3    H246884   4.237   3.084  13.515 -1.5392  0.5878 -0.2323
 8465TIP3   OH246885   3.335   2.796  14.319 -0.5239  0.5729 -0.2795
 8465TIP3    H146886   3.397   2.752  14.375  0.2641  1.3824 -0.4892
 8465TIP3    H246887   3.285   2.853  14.378 -0.1060  0.9686 -0.2974
 8466TIP3   OH246888   0.289   3.241  15.358 -0.0862  0.3943  0.0896
 8466TIP3    H146889   0.210   3.288  15.332 -0.0120  0.7404  0.4870
 8466TIP3    H246890   0.361   3.299  15.332  0.0307  0.1679 -0.0943
 8467TIP3   OH246891   4.391   3.494  16.056 -0.1797 -0.4143  0.1178
 8467TIP3    H146892   4.461   3.554  16.029  0.6058 -1.7013 -0.8151
 8467TIP3    H246893   4.328   3.550  16.100 -0.1713  1.3733 -1.9545
 8468TIP3   OH246894   3.093   5.067   2.058  0.0355 -0.0994  0.5974
 8468TIP3    H146895   3.120   5.122   1.984 -1.0454  0.5079  0.6399
 8468TIP3    H246896   3.146   4.988   2.049  0.8666  0.5159 -0.0667
 8469TIP3   OH246897   6.326   5.447   0.241 -0.3513 -0.1113  0.3713
 8469TIP3    H146898   6.281   5.447   0.326  0.6920 -0.4329  0.9424
 8469TIP3    H246899   6.405   5.499   0.256  0.2893 -0.9199 -0.1565
 8470TIP3   OH246900   1.722   1.306  13.753 -0.0170  0.1411  0.6986
 8470TIP3    H146901   1.698   1.393  13.718 -0.8685 -0.0786  0.7245
 8470TIP3    H246902   1.809   1.290  13.717 -0.5389  0.2759 -0.7101
 8471TIP3   OH246903   3.183   2.206   0.395 -0.2199 -0.1842  0.0523
 8471TIP3    H146904   3.173   2.293   0.433 -0.9612 -0.9625  1.7357
 8471TIP3    H246905   3.161   2.146   0.466 -2.0765 -1.7337 -1.7115
 8472TIP3   OH246906   1.602   3.158  17.116  0.3547 -0.1860  0.1138
 8472TIP3    H146907   1.677   3.216  17.105  0.5235 -0.3024  0.6303
 8472TIP3    H246908   1.630   3.095  17.183 -0.5154  0.2947  0.9428
 8473TIP3   OH246909   0.190   6.681   2.396 -0.0964 -0.4856 -0.2317
 8473TIP3    H146910   0.214   6.764   2.355  2.1892 -1.4155 -0.9380
 8473TIP3    H246911   0.219   6.689   2.487  2.8532 -1.4362 -0.9711
 8474TIP3   OH246912   4.798   5.086  14.107  0.4177  0.4787 -0.2368
 8474TIP3    H146913   4.833   4.997  14.099 -2.5787 -0.8449 -0.1583
 8474TIP3    H246914   4.759   5.104  14.022 -1.0873  0.6816  0.4579
 8475TIP3   OH246915   0.995   2.612   4.458 -0.3993  0.3156 -0.2600
 8475TIP3    H146916   1.034   2.621   4.371  0.9536  0.1757  0.3056
 8475TIP3    H246917   0.903   2.591   4.441  0.5383 -3.4550 -1.7910
 8476TIP3   OH246918   6.203   2.109   3.654 -0.2918 -0.4044 -0.1000
 8476TIP3    H146919   6.120   2.069   3.630 -0.7163 -0.0392  0.7171
 8476TIP3    H246920   6.267   2.038   3.651 -0.5730 -0.6191 -1.0394
 8477TIP3   OH246921   4.198   2.113  16.468 -0.1446  0.2671  0.0202
 8477TIP3    H146922   4.270   2.125  16.531  0.2570 -3.2824  0.4455
 8477TIP3    H246923   4.242   2.092  16.386 -0.5786 -2.3903  0.3920
 8478TIP3   OH246924   3.763   1.345   5.578 -0.3051 -0.3541  0.4548
 8478TIP3    H146925   3.825   1.349   5.650 -0.4363 -0.1632  0.5598
 8478TIP3    H246926   3.809   1.384   5.504  0.0814 -1.1871  0.2449
 8479TIP3   OH246927   2.846   1.458  15.593 -0.0801  0.1880  0.3401
 8479TIP3    H146928   2.857   1.424  15.682  0.8979 -0.9091 -0.1828
 8479TIP3    H246929   2.879   1.389  15.536  2.4082  2.1329 -0.7692
 8480TIP3   OH246930   5.451   6.712   4.141  0.5997 -0.1564 -0.1745
 8480TIP3    H146931   5.444   6.731   4.048 -0.9303 -0.2458 -0.1044
 8480TIP3    H246932   5.545   6.707   4.158  0.8980  0.0540 -1.6647
 8481TIP3   OH246933   4.047   5.224  11.768 -0.6389  0.6444  0.4608
 8481TIP3    H146934   3.976   5.259  11.822 -0.8685  2.4521 -0.9155
 8481TIP3    H246935   4.127   5.240  11.819 -1.0315  0.4137  1.1555
 8482TIP3   OH246936   5.547   4.984  15.561  0.5421 -0.2376  0.6942
 8482TIP3    H146937   5.582   5.060  15.515  0.3973 -0.0736  0.8509
 8482TIP3    H246938   5.469   4.958  15.512  0.3720 -0.0458  0.8591
 8483TIP3   OH246939   6.103   5.733  15.782  0.0468 -0.5451  0.6892
 8483TIP3    H146940   6.099   5.656  15.838  0.9867 -3.9809 -3.3836
 8483TIP3    H246941   6.196   5.743  15.761 -0.0953  1.5587  0.7851
 8484TIP3   OH246942   6.407   2.832  11.795 -0.6700 -0.2758 -0.5897
 8484TIP3    H146943   6.458   2.841  11.875  1.6252  2.4168 -2.1530
 8484TIP3    H246944   6.318   2.814  11.825  0.0197  0.9050  2.5934
 8485TIP3   OH246945   4.679   3.389  11.622  0.6060 -0.5799  0.0871
 8485TIP3    H146946   4.686   3.293  11.629 -0.1309 -0.8361 -2.0496
 8485TIP3    H246947   4.751   3.414  11.565  0.2456  0.0242 -0.1082
 8486TIP3   OH246948   5.643   6.599   5.006 -0.8830  0.0737 -0.4919
 8486TIP3    H146949   5.562   6.651   5.005 -0.2270  1.2895  2.0848
 8486TIP3    H246950   5.666   6.590   4.913 -2.9800  1.2464 -1.2104
 8487TIP3   OH246951   5.007   2.838   1.951  0.0723  0.5400 -0.5635
 8487TIP3    H146952   5.086   2.788   1.972 -0.5185 -0.7393 -1.2770
 8487TIP3    H246953   5.026   2.927   1.981  1.9112  0.3324 -0.9879
 8488TIP3   OH246954   5.548   0.937   2.700  0.8353 -0.5641  0.1419
 8488TIP3    H146955   5.452   0.931   2.695  0.6872  1.5030 -0.1175
 8488TIP3    H246956   5.578   0.870   2.638 -0.5292  0.7167 -2.0646
 8489TIP3   OH246957   4.869   1.954   2.317  0.4078 -0.4378 -0.0574
 8489TIP3    H146958   4.906   1.963   2.229 -0.2828  1.4195 -0.2101
 8489TIP3    H246959   4.775   1.942   2.302  0.4317 -1.2686  0.4148
 8490TIP3   OH246960   4.156   1.595  13.880 -0.1537 -0.1568  0.2224
 8490TIP3    H146961   4.107   1.671  13.912  0.5364 -0.4384  2.0387
 8490TIP3    H246962   4.173   1.615  13.788 -1.3231  1.1715  0.2606
 8491TIP3   OH246963   4.190   5.763  12.113  1.0966  0.4660  0.3257
 8491TIP3    H146964   4.199   5.697  12.044 -0.0239 -1.4634  1.9083
 8491TIP3    H246965   4.123   5.823  12.080 -1.3905 -1.8990  0.6495
 8492TIP3   OH246966   4.733   5.707  14.781  0.1614  0.5584  0.1832
 8492TIP3    H146967   4.824   5.686  14.762 -0.1866  1.2270 -2.7889
 8492TIP3    H246968   4.695   5.624  14.810  1.3683 -0.0864  0.0086
 8493TIP3   OH246969   0.696   1.986   2.561 -0.0815 -0.1397 -0.3350
 8493TIP3    H146970   0.747   1.978   2.641  1.1043 -1.5782 -1.1793
 8493TIP3    H246971   0.611   1.948   2.581 -0.7107  1.8118  0.9434
 8494TIP3   OH246972   2.707   0.964  11.180  0.3069  0.1999 -0.2148
 8494TIP3    H146973   2.781   1.016  11.211  0.5478 -0.7283  0.8667
 8494TIP3    H246974   2.708   0.886  11.236 -1.4452  0.1326 -0.2104
 8495TIP3   OH246975   5.565   3.121  11.357 -0.2697 -0.1973  0.4105
 8495TIP3    H146976   5.638   3.068  11.389 -0.0249 -0.9982 -1.3596
 8495TIP3    H246977   5.592   3.147  11.269 -1.2743  1.1861  0.4954
 8496TIP3   OH246978   1.894   3.178   4.035 -0.1484 -0.2230  0.1080
 8496TIP3    H146979   1.878   3.085   4.018 -0.3975 -0.4951  1.6317
 8496TIP3    H246980   1.808   3.213   4.056  0.2001 -0.1324  1.5313
 8497TIP3   OH246981   5.362   3.344   5.810 -0.3617  0.2167  0.1227
 8497TIP3    H146982   5.369   3.377   5.720  0.6413 -0.2768  0.0095
 8497TIP3    H246983   5.269   3.354   5.832 -0.4520  1.2128 -0.6287
 8498TIP3   OH246984   2.368   3.955   5.632 -0.3967 -0.0126 -0.2141
 8498TIP3    H146985   2.454   3.942   5.591 -0.6570 -1.1741 -0.4344
 8498TIP3    H246986   2.387   3.959   5.726 -0.0114  0.6453 -0.3162
 8499TIP3   OH246987   5.676   3.563   5.839  0.1667 -0.0870  0.0191
 8499TIP3    H146988   5.696   3.655   5.857 -2.6657  0.8492 -1.2137
 8499TIP3    H246989   5.684   3.520   5.924 -0.0975  1.6359  0.9580
 8500TIP3   OH246990   0.885   3.647  13.411  0.0844 -0.8363 -0.7823
 8500TIP3    H146991   0.862   3.693  13.330 -1.6298 -0.7317 -0.2909
 8500TIP3    H246992   0.920   3.715  13.468 -0.2051 -0.5893 -0.8930
 8501TIP3   OH246993   1.914   0.425  11.999 -0.2297  0.6154 -0.4161
 8501TIP3    H146994   2.003   0.450  11.973 -0.1554  0.3008 -0.4717
 8501TIP3    H246995   1.925   0.346  12.051 -0.4182  1.0105  0.2349
 8502TIP3   OH246996   1.404   3.494   0.047  0.1127 -0.0559  0.0443
 8502TIP3    H146997   1.441   3.507   0.134 -1.2395 -0.4470  0.6919
 8502TIP3    H246998   1.396   3.583   0.011  2.2439  0.0197 -0.3922
 8503TIP3   OH246999   2.264   2.079  14.516 -0.7973  0.2151 -0.3957
 8503TIP3    H147000   2.204   2.042  14.581 -1.5036 -0.7371 -1.5556
 8503TIP3    H247001   2.218   2.155  14.481  0.1740  1.6006  1.1647
 8504TIP3   OH247002   5.601   4.596  14.937 -0.0631  0.0275  0.5199
 8504TIP3    H147003   5.555   4.534  14.881  0.7155  0.3918 -0.5716
 8504TIP3    H247004   5.596   4.679  14.890 -0.4650  0.6479  1.6084
 8505TIP3   OH247005   6.651   0.691  12.625 -0.0808  0.5976  0.6267
 8505TIP3    H147006   6.648   0.615  12.683 -1.4926  0.6057  0.6074
 8505TIP3    H247007   6.683   0.763  12.679 -0.8118  0.4694  1.2389
 8506TIP3   OH247008   5.426   4.091   3.191 -0.3677  0.0462 -0.0897
 8506TIP3    H147009   5.454   4.037   3.116 -0.1913  0.0913 -0.0572
 8506TIP3    H247010   5.334   4.110   3.173 -0.8525 -1.4724  0.6239
 8507TIP3   OH247011   3.314   6.678  14.198 -0.2608 -0.3087  0.0859
 8507TIP3    H147012   3.404   6.710  14.189 -0.0672 -0.8800 -0.1255
 8507TIP3    H247013   3.301   6.624  14.120 -1.5788  1.5377 -1.0453
 8508TIP3   OH247014   2.104   6.593   5.756  0.3099 -0.4523 -0.0674
 8508TIP3    H147015   2.116   6.553   5.843  0.2126 -1.0199 -0.3129
 8508TIP3    H247016   2.180   6.651   5.747  0.4475 -0.5668  0.2991
 8509TIP3   OH247017   5.523   4.731   0.029  0.3018 -0.1084 -0.0360
 8509TIP3    H147018   5.472   4.684  -0.037 -0.0955  0.7223 -0.3210
 8509TIP3    H247019   5.459   4.759   0.094  0.7438 -1.2958  0.9513
 8510TIP3   OH247020   6.172   2.553   2.756 -0.0807 -0.5262 -0.3942
 8510TIP3    H147021   6.128   2.474   2.724  0.2554 -1.9612  2.3370
 8510TIP3    H247022   6.124   2.576   2.836  0.9405  1.0065 -0.1678
 8511TIP3   OH247023   2.038   4.690   5.043  0.1403 -0.0712 -0.0446
 8511TIP3    H147024   1.982   4.748   4.992  2.0694  0.0444 -2.1971
 8511TIP3    H247025   1.978   4.636   5.094 -1.8428  0.9664 -1.1861
 8512TIP3   OH247026   1.652   5.702  11.041  0.1923  0.7800  0.1432
 8512TIP3    H147027   1.735   5.654  11.034  0.5975  1.1315  1.9445
 8512TIP3    H247028   1.659   5.773  10.977  1.3327  0.8669  0.3455
 8513TIP3   OH247029   3.279   0.326  11.807  0.4560 -0.0285 -0.4544
 8513TIP3    H147030   3.373   0.331  11.787  0.4425 -1.7021 -1.1149
 8513TIP3    H247031   3.239   0.392  11.749  1.0963 -0.2308 -1.1453
 8514TIP3   OH247032   2.145   4.806  16.245 -0.2951 -0.1382 -0.3186
 8514TIP3    H147033   2.160   4.810  16.150 -1.7100 -0.0267 -0.5511
 8514TIP3    H247034   2.094   4.884  16.264  0.4516  0.1305  0.6490
 8515TIP3   OH247035   0.173   1.738   5.705  0.2633 -0.9595 -0.3467
 8515TIP3    H147036   0.185   1.829   5.677 -0.6980 -0.8209 -0.3644
 8515TIP3    H247037   0.107   1.744   5.775  0.7464 -1.5665  0.1712
 8516TIP3   OH247038   1.337   0.127   4.472  0.1440 -0.1767 -0.3286
 8516TIP3    H147039   1.244   0.138   4.490  0.0120  0.1336 -1.1671
 8516TIP3    H247040   1.369   0.215   4.453  0.6865 -0.2315  0.3028
 8517TIP3   OH247041   4.820   2.366  13.984 -0.5864  0.7451  0.2219
 8517TIP3    H147042   4.763   2.289  13.994 -1.7862  1.3239 -1.5741
 8517TIP3    H247043   4.824   2.405  14.071 -1.9731 -0.0023  0.6499
 8518TIP3   OH247044   3.654   2.024  14.113  0.3117 -0.2885  0.0390
 8518TIP3    H147045   3.710   2.092  14.147  0.1655 -0.8142  1.3752
 8518TIP3    H247046   3.587   2.070  14.063 -0.9301  0.7437  2.5103
 8519TIP3   OH247047   2.255   1.436  16.665 -0.2189  0.2578 -0.0679
 8519TIP3    H147048   2.205   1.380  16.724  0.1680  1.0076  0.9825
 8519TIP3    H247049   2.188   1.490  16.622 -0.3341  1.2319  1.3064
 8520TIP3   OH247050   6.260   2.282   4.189  0.4480 -0.1390  0.1579
 8520TIP3    H147051   6.175   2.322   4.172  0.4680 -0.3710 -0.5242
 8520TIP3    H247052   6.322   2.356   4.185  0.3929 -0.1132 -0.3365
 8521TIP3   OH247053   4.042   6.627   2.494 -0.2234 -0.2088 -0.2245
 8521TIP3    H147054   3.997   6.708   2.470 -0.1763 -0.5316 -1.4467
 8521TIP3    H247055   4.084   6.598   2.413  2.4433  0.2195  0.8870
 8522TIP3   OH247056   2.305   3.331   5.949  0.2163  0.9420 -0.1502
 8522TIP3    H147057   2.287   3.344   6.042 -1.1269 -2.4119  0.2153
 8522TIP3    H247058   2.396   3.360   5.939  0.0903  2.3400  1.9321
 8523TIP3   OH247059   6.264   5.077  13.611 -0.0570 -0.4965  0.0916
 8523TIP3    H147060   6.174   5.103  13.630 -0.1394 -1.5248  1.3052
 8523TIP3    H247061   6.316   5.155  13.628 -0.6777 -0.0056 -0.2411
 8524TIP3   OH247062   5.482   1.683   2.806  0.4000  0.0352 -0.0586
 8524TIP3    H147063   5.514   1.619   2.742 -0.1956 -0.1555 -0.1717
 8524TIP3    H247064   5.454   1.758   2.753 -3.0756 -1.3179 -0.3783
 8525TIP3   OH247065   5.698   2.860  13.885 -0.0765 -0.1277 -0.5060
 8525TIP3    H147066   5.714   2.766  13.877  0.4358 -0.0038 -1.0450
 8525TIP3    H247067   5.756   2.888  13.957  1.2373  0.0961 -1.6119
 8526TIP3   OH247068   5.804   2.269  15.670 -0.0922  0.0502 -0.5699
 8526TIP3    H147069   5.870   2.267  15.739  0.1950  1.5074 -0.7686
 8526TIP3    H247070   5.754   2.188  15.682  1.7299 -1.1189 -0.4299
 8527TIP3   OH247071   0.978   6.799  11.010 -0.7253  0.2299  0.2364
 8527TIP3    H147072   0.970   6.883  10.965 -1.5670  0.1577  0.2272
 8527TIP3    H247073   1.060   6.804  11.058  0.2568  0.2647 -1.3875
 8528TIP3   OH247074   4.848   4.409   3.082 -0.3332  0.3242 -0.3334
 8528TIP3    H147075   4.933   4.416   3.125  1.0379  0.8544 -2.9735
 8528TIP3    H247076   4.841   4.317   3.057  0.7767  0.7604 -2.4821
 8529TIP3   OH247077   2.503   2.912  11.639  0.2399  0.1842 -0.7526
 8529TIP3    H147078   2.576   2.937  11.584  1.0346  1.0357  0.6302
 8529TIP3    H247079   2.476   2.826  11.606  0.6319  0.6870 -2.4677
 8530TIP3   OH247080   3.064   0.914  12.262 -0.3716 -0.5709  0.4173
 8530TIP3    H147081   3.005   0.988  12.277  0.5193  0.3031 -0.2448
 8530TIP3    H247082   3.045   0.886  12.173  0.3820 -0.1059  0.1020
 8531TIP3   OH247083   4.578   5.101   3.049  0.0791  0.0577 -0.4294
 8531TIP3    H147084   4.586   5.128   3.141  0.9275 -0.6349 -0.2855
 8531TIP3    H247085   4.606   5.178   2.999 -1.5818  0.8762 -0.1708
 8532TIP3   OH247086   4.126   3.534  12.843  0.3176  0.3434 -0.2620
 8532TIP3    H147087   4.047   3.553  12.791 -0.3369 -0.2718  0.4743
 8532TIP3    H247088   4.149   3.617  12.883 -0.5661  0.3251  0.3158
 8533TIP3   OH247089   6.051   4.941  10.946  0.5045  0.5649  0.1184
 8533TIP3    H147090   5.996   4.882  10.894  2.0929 -2.1790  1.3386
 8533TIP3    H247091   6.000   4.959  11.025 -0.5731  2.1020 -0.8704
 8534TIP3   OH247092   6.828   3.765  10.751  0.1605  0.2670  0.2411
 8534TIP3    H147093   6.830   3.805  10.664  0.7309 -1.3576 -0.5336
 8534TIP3    H247094   6.905   3.709  10.754 -0.8874 -1.2085  1.0450
 8535TIP3   OH247095   1.809   1.447  16.230  0.0006  0.5925  0.1447
 8535TIP3    H147096   1.885   1.491  16.190  0.7740  0.9968  1.9742
 8535TIP3    H247097   1.735   1.503  16.207  0.9435  2.9123  2.2858
 8536TIP3   OH247098   2.625   5.710   2.121  0.0390  0.1177 -0.1061
 8536TIP3    H147099   2.551   5.691   2.063 -1.6940  1.5042  1.5392
 8536TIP3    H247100   2.649   5.624   2.156 -1.7059 -0.2362  0.3489
 8537TIP3   OH247101   6.800   2.905  14.094  0.1702  0.7327 -0.5432
 8537TIP3    H147102   6.879   2.856  14.119 -0.0999  0.0435 -1.0171
 8537TIP3    H247103   6.818   2.936  14.005 -0.0022  0.7798 -0.5618
 8538TIP3   OH247104   4.469   6.224  11.607  0.0330 -0.0119 -0.3451
 8538TIP3    H147105   4.418   6.192  11.533 -1.5013 -0.4072  0.8196
 8538TIP3    H247106   4.453   6.318  11.609 -0.6402 -0.1290 -0.0063
 8539TIP3   OH247107   5.030   4.708   0.741  0.2441 -0.6358 -0.5420
 8539TIP3    H147108   4.958   4.740   0.687  0.2433  0.5060  0.1119
 8539TIP3    H247109   5.108   4.714   0.685  0.0727 -0.5106 -0.7666
 8540TIP3   OH247110   4.349   4.412  16.321  0.2071  0.6514 -0.3253
 8540TIP3    H147111   4.263   4.450  16.341 -0.1031  0.1010 -0.5773
 8540TIP3    H247112   4.352   4.411  16.225 -1.0179 -2.5376 -0.4755
 8541TIP3   OH247113   0.981   5.569  14.344 -0.3330  0.5240  0.3792
 8541TIP3    H147114   0.898   5.560  14.391  0.7772  1.6807  2.6811
 8541TIP3    H247115   1.025   5.643  14.385  1.7793  0.0976 -0.9341
 8542TIP3   OH247116   1.268   1.087  15.374  0.2800  0.2702 -0.1959
 8542TIP3    H147117   1.250   0.993  15.383  1.5436  0.1012  0.8451
 8542TIP3    H247118   1.353   1.091  15.330  0.5657  0.9056  0.3903
 8543TIP3   OH247119   3.950   2.625  11.307 -0.3303 -0.2253  0.0248
 8543TIP3    H147120   4.027   2.644  11.360 -0.2669  1.6668 -0.6925
 8543TIP3    H247121   3.897   2.566  11.362  1.0713 -0.6534  0.9694
 8544TIP3   OH247122   3.850   4.523  14.428 -0.0853 -0.0751  0.2221
 8544TIP3    H147123   3.922   4.465  14.403  0.6522  0.8723  0.0483
 8544TIP3    H247124   3.873   4.552  14.517  0.4182  1.1729 -0.2794
 8545TIP3   OH247125   1.896   2.221   1.795  0.3550  0.9277 -0.0778
 8545TIP3    H147126   1.955   2.281   1.841  0.0127  0.3803  1.1129
 8545TIP3    H247127   1.920   2.134   1.827 -0.3844  0.6009 -0.3812
 8546TIP3   OH247128   0.769   1.312   3.345 -0.4534  0.4551  0.1900
 8546TIP3    H147129   0.863   1.331   3.345  0.0848 -1.8752  0.0194
 8546TIP3    H247130   0.739   1.338   3.258  0.5160 -0.6268 -0.5095
 8547TIP3   OH247131   1.053   4.050   4.465  0.3176 -0.7572  0.9301
 8547TIP3    H147132   1.060   4.101   4.545 -1.1031 -0.7077  1.0544
 8547TIP3    H247133   0.962   4.019   4.464  0.3390 -0.8492 -0.6017
 8548TIP3   OH247134   1.460   0.411  14.017 -0.6704 -0.0926  0.1139
 8548TIP3    H147135   1.536   0.441  13.966 -1.7902  0.2407 -1.4434
 8548TIP3    H247136   1.449   0.319  13.991 -0.5891 -0.2472  0.6159
 8549TIP3   OH247137   1.523   4.296  13.577  0.0424 -0.2772  0.2692
 8549TIP3    H147138   1.518   4.392  13.569 -0.0397 -0.3560 -0.7714
 8549TIP3    H247139   1.584   4.269  13.508  0.6094 -0.9277  1.0039
 8550TIP3   OH247140   1.153   3.182   5.074 -0.2159 -0.1274 -0.6068
 8550TIP3    H147141   1.079   3.157   5.129  0.5570  0.4530  0.7497
 8550TIP3    H247142   1.229   3.173   5.131  0.3947  2.5605 -0.8820
 8551TIP3   OH247143   4.758   5.990  14.027  0.3184 -0.0528  0.3762
 8551TIP3    H147144   4.831   5.955  14.079 -0.1024 -0.6781  0.5520
 8551TIP3    H247145   4.742   6.077  14.064  0.1580 -0.4067  1.1757
 8552TIP3   OH247146   5.634   5.233  13.263 -0.1231 -0.1118 -0.4791
 8552TIP3    H147147   5.567   5.233  13.331  0.3531  0.2435  0.0052
 8552TIP3    H247148   5.717   5.233  13.312  0.2516 -1.6247 -1.0658
 8553TIP3   OH247149   4.769   5.321  13.352 -0.3792 -0.3626  0.3245
 8553TIP3    H147150   4.792   5.229  13.365 -2.7843 -0.9502  0.8012
 8553TIP3    H247151   4.792   5.363  13.435 -0.2377 -0.7428  0.4781
 8554TIP3   OH247152   5.604   2.089   1.667  0.3349 -0.3201 -0.4168
 8554TIP3    H147153   5.648   2.007   1.644 -0.9978 -0.7187 -1.6711
 8554TIP3    H247154   5.573   2.124   1.584  0.8071  1.4548  0.0945
 8555TIP3   OH247155   2.647   2.372  15.717 -0.1816  0.3187 -0.2403
 8555TIP3    H147156   2.602   2.453  15.740  1.8041  1.0992  1.1823
 8555TIP3    H247157   2.577   2.308  15.704 -1.7279  1.8153  0.3453
 8556TIP3   OH247158   0.939   6.107   1.064 -0.5756  0.4521  0.4026
 8556TIP3    H147159   0.909   6.035   1.010  0.0656  0.8015 -0.4380
 8556TIP3    H247160   0.881   6.106   1.140 -0.4889 -1.0273  0.4731
 8557TIP3   OH247161   5.039   2.350  15.879  0.3128 -0.7687 -0.2098
 8557TIP3    H147162   5.109   2.412  15.860 -0.6231  0.5403  0.4672
 8557TIP3    H247163   5.033   2.295  15.801  1.9102 -0.7399 -0.3745
 8558TIP3   OH247164   1.994   5.443  16.770  0.0737  0.2493 -0.3878
 8558TIP3    H147165   2.029   5.530  16.790  0.3510  0.0410  0.0462
 8558TIP3    H247166   2.006   5.434  16.675 -2.5913  1.8364 -0.9663
 8559TIP3   OH247167   5.949   1.406  14.338  0.4810  0.0246 -0.5251
 8559TIP3    H147168   5.869   1.448  14.308 -0.7542 -1.4069  0.6132
 8559TIP3    H247169   6.015   1.475  14.334 -0.9141  1.3970 -0.9561
 8560TIP3   OH247170   5.072   0.992   0.044  0.0072  0.6989  0.5980
 8560TIP3    H147171   5.133   0.919   0.055 -0.7650  0.1260  1.1131
 8560TIP3    H247172   5.119   1.053  -0.014  0.6905 -0.1567  0.2218
 8561TIP3   OH247173   0.897   1.697  15.482 -0.3552 -0.0298 -0.0144
 8561TIP3    H147174   0.885   1.604  15.498  0.2793 -0.1198 -0.0229
 8561TIP3    H247175   0.881   1.708  15.389 -1.8616  0.1231  0.2281
 8562TIP3   OH247176   6.611   5.223  10.674 -0.6056  0.6175 -0.2170
 8562TIP3    H147177   6.649   5.138  10.696 -0.5618  0.9327  1.0153
 8562TIP3    H247178   6.687   5.280  10.663 -0.6472  0.9635  1.0489
 8563TIP3   OH247179   3.258   1.498   2.379  0.1893  0.1319  0.6999
 8563TIP3    H147180   3.299   1.577   2.343  0.2941 -1.1340 -2.2042
 8563TIP3    H247181   3.315   1.426   2.352 -0.5881 -1.0833  2.1380
 8564TIP3   OH247182   5.359   0.069  12.793  0.2573 -0.6219 -0.1014
 8564TIP3    H147183   5.343   0.061  12.699  0.7654 -0.2109 -0.2249
 8564TIP3    H247184   5.275   0.099  12.829  0.3328  0.1592 -0.5566
 8565TIP3   OH247185   0.847   3.459   3.598 -0.0450 -0.5405 -0.5019
 8565TIP3    H147186   0.770   3.491   3.551  0.3164  2.1439  0.5405
 8565TIP3    H247187   0.814   3.388   3.653 -1.4462 -0.4262 -1.1592
 8566TIP3   OH247188   3.504   5.420  15.436 -0.0266  0.0763  0.1036
 8566TIP3    H147189   3.421   5.397  15.479 -0.5225 -1.8122 -1.6716
 8566TIP3    H247190   3.569   5.367  15.481  0.1325  1.0499  1.0535
 8567TIP3   OH247191   0.233   2.960   4.136 -0.0259 -0.5450  0.2219
 8567TIP3    H147192   0.258   3.041   4.091  0.4775  0.4278  2.1265
 8567TIP3    H247193   0.300   2.897   4.112  1.0811  0.3899  0.7657
 8568TIP3   OH247194   6.284   3.503  10.504 -0.5150  0.0250 -0.8336
 8568TIP3    H147195   6.314   3.562  10.573 -4.6302  1.6496 -0.1460
 8568TIP3    H247196   6.325   3.537  10.425  2.6124 -0.5737  0.3512
 8569TIP3   OH247197   1.726   2.530  15.261  0.2574 -0.0941  0.1908
 8569TIP3    H147198   1.750   2.597  15.326 -0.8085  1.6566 -1.1246
 8569TIP3    H247199   1.640   2.500  15.290  0.3260 -0.2207  0.2641
 8570TIP3   OH247200   3.466   0.029   1.658 -0.7880 -0.4882  0.5925
 8570TIP3    H147201   3.558   0.005   1.667 -1.0847 -1.2179  1.9089
 8570TIP3    H247202   3.454   0.040   1.563  0.8862  0.6774  0.4577
 8571TIP3   OH247203   3.450   2.574  14.110  0.5161  0.1611  0.0329
 8571TIP3    H147204   3.541   2.561  14.084 -0.3476 -1.7715 -2.3737
 8571TIP3    H247205   3.453   2.644  14.175  3.6159  0.6931 -0.5634
 8572TIP3   OH247206   4.266   6.244   6.262 -0.2686  0.0515 -0.2444
 8572TIP3    H147207   4.289   6.269   6.173 -0.3797  0.4095 -0.1738
 8572TIP3    H247208   4.306   6.312   6.317 -2.5610  1.4896 -0.1841
 8573TIP3   OH247209   1.395   5.862  17.127  0.1399  0.8366 -0.5799
 8573TIP3    H147210   1.486   5.893  17.134  0.3929 -0.0792  0.4788
 8573TIP3    H247211   1.347   5.915  17.190  0.4966 -0.5647  0.9320
 8574TIP3   OH247212   4.368   5.115  12.759 -0.1355 -0.2627  0.7076
 8574TIP3    H147213   4.384   5.084  12.848 -0.4937 -0.5313  0.6801
 8574TIP3    H247214   4.404   5.203  12.757  1.0968 -0.7512  0.7230
 8575TIP3   OH247215   0.805   2.343   2.117 -0.5210 -0.3023  0.0786
 8575TIP3    H147216   0.844   2.393   2.188 -1.8925  1.1354 -0.1275
 8575TIP3    H247217   0.754   2.275   2.160 -0.2561 -0.2773  0.4299
 8576TIP3   OH247218   0.230   0.786   1.732  0.0480 -0.9346  0.3434
 8576TIP3    H147219   0.307   0.771   1.786 -1.0745 -4.5218  1.2889
 8576TIP3    H247220   0.162   0.812   1.795  0.0258  0.3482 -0.1977
 8577TIP3   OH247221   0.442   3.626   2.690  0.0431  0.2492  0.0164
 8577TIP3    H147222   0.475   3.537   2.705  1.1673  0.7639  0.7110
 8577TIP3    H247223   0.520   3.682   2.694 -0.7700  1.3810  0.6100
 8578TIP3   OH247224   3.892   2.363  13.867  0.0785 -0.3275  0.5874
 8578TIP3    H147225   3.970   2.406  13.833  0.7740 -0.7057  1.6490
 8578TIP3    H247226   3.819   2.415  13.833  0.6944 -0.8730 -1.6891
 8579TIP3   OH247227   2.802   3.104   6.188 -0.3092 -0.3376  0.8249
 8579TIP3    H147228   2.802   3.191   6.228  0.2426 -0.2702  0.6920
 8579TIP3    H247229   2.838   3.046   6.256 -0.3479 -0.4002  0.7927
 8580TIP3   OH247230   6.537   6.067   2.249  0.4602  0.0186  0.2743
 8580TIP3    H147231   6.585   5.992   2.215  0.5261  1.2137 -2.5161
 8580TIP3    H247232   6.605   6.133   2.265  0.1005  0.5455 -0.3491
 8581TIP3   OH247233   4.372   3.801  15.820 -0.1182 -0.0379  0.4375
 8581TIP3    H147234   4.447   3.762  15.864  2.0951  1.5930 -1.5942
 8581TIP3    H247235   4.360   3.748  15.741  0.8696  1.3450 -0.7117
 8582TIP3   OH247236   0.769   4.005  15.490  0.7746  0.6744 -0.2120
 8582TIP3    H147237   0.777   4.100  15.492 -0.8258  0.8953 -1.5048
 8582TIP3    H247238   0.704   3.988  15.421  0.2259 -1.2946  0.7080
 8583TIP3   OH247239   0.072   5.477   4.478 -0.2249 -0.1418  0.2754
 8583TIP3    H147240   0.071   5.507   4.569 -0.3941 -1.1565  0.6242
 8583TIP3    H247241   0.045   5.385   4.483  1.5785 -0.7733 -0.5877
 8584TIP3   OH247242   3.527   2.280  16.754 -0.2061 -0.0408  0.6296
 8584TIP3    H147243   3.517   2.343  16.683  1.5595  0.9106  1.1707
 8584TIP3    H247244   3.527   2.333  16.834 -1.3066 -1.0106  1.3106
 8585TIP3   OH247245   6.088   4.505  16.699  0.5496 -0.2420  0.2002
 8585TIP3    H147246   6.036   4.565  16.753  1.6647  0.7653  0.2005
 8585TIP3    H247247   6.143   4.563  16.646  0.9159 -1.2574 -0.5500
 8586TIP3   OH247248   0.337   3.830  16.679  0.3261 -0.2443 -0.4892
 8586TIP3    H147249   0.408   3.873  16.725  1.0296 -1.0769 -0.7738
 8586TIP3    H247250   0.310   3.758  16.736  0.2489 -0.4154 -0.7362
 8587TIP3   OH247251   3.899   2.721   2.108  0.4417  0.1230  0.1118
 8587TIP3    H147252   3.856   2.803   2.081  1.2195  0.8204  0.9430
 8587TIP3    H247253   3.944   2.743   2.189 -1.3896 -1.7747  1.7638
 8588TIP3   OH247254   0.095   6.064   4.799 -0.0281 -0.0805  0.2192
 8588TIP3    H147255   0.129   6.135   4.743  0.9929 -0.3403  0.4859
 8588TIP3    H247256   0.032   6.018   4.743  0.2765  0.2338 -0.4030
 8589TIP3   OH247257   0.491   3.483   0.361 -0.2664  0.0674  0.0306
 8589TIP3    H147258   0.580   3.482   0.324  0.3512 -2.0249  1.4056
 8589TIP3    H247259   0.498   3.539   0.438 -0.1708  0.0431  0.0404
 8590TIP3   OH247260   6.477   4.586   0.359  0.1710  0.7010  0.3858
 8590TIP3    H147261   6.532   4.510   0.341  2.7859  2.2858  0.9726
 8590TIP3    H247262   6.455   4.579   0.452  0.9096  0.9198  0.5855
 8591TIP3   OH247263   1.866   3.406  10.905 -0.5348  0.9190 -0.3187
 8591TIP3    H147264   1.865   3.324  10.855  0.6973 -0.1463  1.3218
 8591TIP3    H247265   1.811   3.465  10.853 -2.6745 -1.3433 -0.8594
 8592TIP3   OH247266   3.246   3.669  10.932 -0.3344  0.5576  0.4674
 8592TIP3    H147267   3.167   3.714  10.903 -0.6216 -0.3929 -0.2606
 8592TIP3    H247268   3.309   3.740  10.950 -1.3687  1.3293  1.1799
 8593TIP3   OH247269   5.297   0.583  13.692  0.0323  0.0286  0.0673
 8593TIP3    H147270   5.340   0.588  13.607 -0.0405 -0.3868  0.0044
 8593TIP3    H247271   5.232   0.653  13.691  0.0795  0.0687 -0.1880
 8594TIP3   OH247272   2.370   3.643   1.066  0.3180  0.3584 -0.5329
 8594TIP3    H147273   2.423   3.674   1.140 -0.5678 -1.1028  0.7717
 8594TIP3    H247274   2.428   3.581   1.020 -0.1094 -1.0486  0.7467
 8595TIP3   OH247275   1.671   0.168  13.101 -0.0787 -0.3508  0.2882
 8595TIP3    H147276   1.677   0.262  13.115  0.6512 -0.1724 -1.0342
 8595TIP3    H247277   1.581   0.145  13.124  0.1694  0.3530  2.2283
 8596TIP3   OH247278   0.635   5.523   1.158 -0.4353 -0.2961  0.0608
 8596TIP3    H147279   0.663   5.456   1.220 -0.2453 -0.2394  0.0358
 8596TIP3    H247280   0.582   5.475   1.094 -1.5883 -0.1747  0.8863
 8597TIP3   OH247281   5.429   1.266   4.641  0.2829 -0.2583  0.2899
 8597TIP3    H147282   5.401   1.319   4.715 -0.6063 -1.7965  1.1094
 8597TIP3    H247283   5.354   1.210   4.622  0.6792 -0.2407 -1.4737
 8598TIP3   OH247284   6.183   6.498  17.163  0.3328 -0.0875  0.1206
 8598TIP3    H147285   6.212   6.479  17.252  0.3657  0.4316  0.2229
 8598TIP3    H247286   6.210   6.588  17.148  2.5138 -0.8998 -1.2784
 8599TIP3   OH247287   2.166   3.988  13.917  0.0981 -0.5250 -1.0983
 8599TIP3    H147288   2.100   3.937  13.965  0.7022  0.0482  0.4115
 8599TIP3    H247289   2.191   4.058  13.978  2.9947 -1.4359 -1.0979
 8600TIP3   OH247290   0.506   3.067  17.245  0.0036  0.2545  0.7067
 8600TIP3    H147291   0.478   2.987  17.288  1.0397  0.3175  1.5584
 8600TIP3    H247292   0.471   3.061  17.157  1.8778 -2.2296 -0.0011
 8601TIP3   OH247293   6.200   2.830   2.087 -0.0158  0.3386 -0.1149
 8601TIP3    H147294   6.248   2.880   2.021  0.9526 -1.0981 -0.5650
 8601TIP3    H247295   6.264   2.767   2.119 -0.6071  0.7171  1.8992
 8602TIP3   OH247296   4.498   2.884   3.285 -0.3270  0.1725  0.2605
 8602TIP3    H147297   4.566   2.842   3.234 -0.0386 -0.2685  0.9903
 8602TIP3    H247298   4.416   2.855   3.246 -0.1414 -1.2764  0.8924
 8603TIP3   OH247299   6.623   5.300   4.177  0.6177 -0.3754 -0.0093
 8603TIP3    H147300   6.693   5.245   4.212 -0.2526 -1.4456  0.1297
 8603TIP3    H247301   6.664   5.351   4.108  1.6683 -0.5067  0.5021
 8604TIP3   OH247302   3.267   0.758  15.500  1.1927  0.4256 -0.0146
 8604TIP3    H147303   3.215   0.801  15.568  2.0527  0.0789  0.8794
 8604TIP3    H247304   3.210   0.758  15.423 -0.1442  0.0490  0.9369
 8605TIP3   OH247305   2.312   4.017   3.526  0.0629  0.3379  0.0464
 8605TIP3    H147306   2.228   3.977   3.548  0.6731 -0.2122  1.5092
 8605TIP3    H247307   2.290   4.104   3.493 -1.1373 -0.2731 -0.8346
 8606TIP3   OH247308   6.626   3.011  12.505  0.3544 -0.1098 -0.5187
 8606TIP3    H147309   6.681   2.978  12.434  0.8546 -0.5845  0.0818
 8606TIP3    H247310   6.592   2.933  12.548  1.8132  0.1122  1.1285
 8607TIP3   OH247311   3.589   2.082   2.572  0.6183 -0.3086 -0.6801
 8607TIP3    H147312   3.627   2.000   2.541 -0.4844 -0.6566 -1.1735
 8607TIP3    H247313   3.657   2.122   2.625  0.8873 -1.9246  0.2364
 8608TIP3   OH247314   3.008   2.666   3.827 -0.4743 -0.0800  0.5057
 8608TIP3    H147315   2.991   2.590   3.882  1.6816 -1.6037 -0.7750
 8608TIP3    H247316   3.037   2.735   3.887 -1.4902 -0.5746  1.5827
 8609TIP3   OH247317   6.015   3.965  16.388 -0.2772  0.4357  0.2851
 8609TIP3    H147318   5.930   3.942  16.427 -0.5106  1.5309  0.4342
 8609TIP3    H247319   6.065   4.002  16.461  0.2219  0.0792  0.1232
 8610TIP3   OH247320   6.768   6.188  15.271 -0.1177 -0.2393 -0.6447
 8610TIP3    H147321   6.808   6.237  15.342  0.6528 -0.5283 -0.8691
 8610TIP3    H247322   6.674   6.207  15.279  0.0548  0.4540 -0.1162
 8611TIP3   OH247323   2.943   3.450   0.405  0.2737  0.3744 -0.0687
 8611TIP3    H147324   3.038   3.462   0.402  0.2149  0.6655 -1.1902
 8611TIP3    H247325   2.926   3.375   0.348 -0.0206 -0.8629  1.5603
 8612TIP3   OH247326   1.610   5.102   3.089  0.8502 -0.2757 -0.2400
 8612TIP3    H147327   1.543   5.099   3.022  1.1162  0.7143 -0.5617
 8612TIP3    H247328   1.680   5.154   3.051  1.3654 -0.4201  0.4850
 8613TIP3   OH247329   1.759   6.073  12.005 -0.2282 -0.3203  0.1847
 8613TIP3    H147330   1.811   6.007  12.050  1.3251  0.8394  0.1958
 8613TIP3    H247331   1.819   6.147  11.994 -2.9173  2.7775  3.7902
 8614TIP3   OH247332   3.039   0.046   1.434  0.6095 -0.0032 -0.3187
 8614TIP3    H147333   3.008   0.110   1.499 -5.2972 -2.4293 -0.1370
 8614TIP3    H247334   3.086  -0.019   1.486 -1.0452 -0.1711  1.0664
 8615TIP3   OH247335   5.539   2.220   2.175 -0.0412  0.3943 -0.3333
 8615TIP3    H147336   5.476   2.148   2.180  0.8322 -0.5829 -2.1458
 8615TIP3    H247337   5.532   2.251   2.085  1.8160  0.4739 -0.4872
 8616TIP3   OH247338   5.318   6.077   1.339 -0.6447  0.8171 -0.2127
 8616TIP3    H147339   5.227   6.087   1.366 -0.4207  1.2389  0.4160
 8616TIP3    H247340   5.363   6.153   1.377  0.2956 -0.2777  0.9734
 8617TIP3   OH247341   1.232   2.598   3.670 -0.6812  0.6591 -0.0734
 8617TIP3    H147342   1.230   2.594   3.574  0.0940  1.5984 -0.1507
 8617TIP3    H247343   1.301   2.537   3.695  0.7266  2.1130 -0.2799
 8618TIP3   OH247344   4.942   2.769  12.251  0.7222  0.0068  0.0024
 8618TIP3    H147345   5.012   2.822  12.290  1.3596 -0.9435  0.2007
 8618TIP3    H247346   4.953   2.683  12.292  0.6662 -0.6896 -1.3988
 8619TIP3   OH247347   4.069   2.044   6.103 -0.4267  0.3871  0.0876
 8619TIP3    H147348   4.123   1.972   6.070 -0.2266 -0.3755  1.9425
 8619TIP3    H247349   3.979   2.012   6.094 -0.4420  0.5964 -0.5927
 8620TIP3   OH247350   3.126   2.873  15.024 -0.2288  0.0982  0.2105
 8620TIP3    H147351   3.053   2.909  15.075  0.4523 -0.0606  1.3101
 8620TIP3    H247352   3.196   2.861  15.087  0.7589  0.2200 -0.8351
 8621TIP3   OH247353   0.738   6.237  17.310  0.7208 -0.0337 -0.0630
 8621TIP3    H147354   0.812   6.287  17.276 -0.5011  2.8164  1.0939
 8621TIP3    H247355   0.736   6.257  17.403  0.4951 -2.8694  0.6428
 8622TIP3   OH247356   0.386   3.309  13.655  0.3483 -0.1214 -0.0103
 8622TIP3    H147357   0.404   3.331  13.563  0.2881  1.2674  0.2931
 8622TIP3    H247358   0.399   3.390  13.703 -2.7472  0.0633  0.7921
 8623TIP3   OH247359   0.289   6.558  11.246 -0.2925  0.1766 -0.2368
 8623TIP3    H147360   0.249   6.575  11.161  1.1369  0.7012 -0.8374
 8623TIP3    H247361   0.294   6.462  11.252 -0.9697  0.1271 -0.4575
 8624TIP3   OH247362   0.119   5.058   6.320  0.0054 -0.5301 -0.3630
 8624TIP3    H147363   0.052   5.099   6.264 -0.4945 -0.2058  0.4580
 8624TIP3    H247364   0.190   5.123   6.323 -0.8294  0.3826  1.0209
 8625TIP3   OH247365   2.722   3.561   3.355 -0.0219  0.6922 -0.6614
 8625TIP3    H147366   2.770   3.618   3.295 -1.1760  0.7989 -1.5094
 8625TIP3    H247367   2.633   3.596   3.357 -0.5233 -0.5184 -0.4839
 8626TIP3   OH247368   6.406   1.601  12.587  0.3506 -0.3451  0.4912
 8626TIP3    H147369   6.456   1.520  12.574 -0.5949 -0.8880  0.0622
 8626TIP3    H247370   6.420   1.651  12.507  0.1286 -0.5548  0.3158
 8627TIP3   OH247371   1.510   5.817   4.697  0.0699  0.2603  0.2038
 8627TIP3    H147372   1.547   5.832   4.784  1.8440  0.3118 -0.5341
 8627TIP3    H247373   1.527   5.899   4.649  1.2001 -0.5760 -0.8818
 8628TIP3   OH247374   3.352   1.751  15.964 -0.5948 -0.1483  0.3706
 8628TIP3    H147375   3.343   1.743  15.869 -1.3606 -0.3148  0.4458
 8628TIP3    H247376   3.432   1.704  15.985  1.3429  2.5510 -0.5296
 8629TIP3   OH247377   5.411   3.074  16.768 -0.7227  0.5850  0.3928
 8629TIP3    H147378   5.473   3.005  16.792 -2.7878 -0.7562  2.1490
 8629TIP3    H247379   5.455   3.155  16.794  1.1985 -0.1091 -0.4809
 8630TIP3   OH247380   1.054   4.098  11.832 -0.5102 -0.6427 -0.0853
 8630TIP3    H147381   0.980   4.147  11.796 -0.2758 -1.7155 -2.1550
 8630TIP3    H247382   1.131   4.150  11.809 -0.3598 -1.3291 -1.1882
 8631TIP3   OH247383   5.615   4.820  14.789 -0.5852 -0.0193  0.5508
 8631TIP3    H147384   5.706   4.840  14.811 -0.9639  0.6911  1.5777
 8631TIP3    H247385   5.582   4.900  14.748 -0.1359 -1.0491 -1.9508
 8632TIP3   OH247386   4.737   5.571  10.792  0.2807 -0.3249  0.1196
 8632TIP3    H147387   4.712   5.484  10.821 -1.1841 -0.2324 -0.8041
 8632TIP3    H247388   4.696   5.630  10.856  0.5010 -0.2744  0.2158
 8633TIP3   OH247389   6.546   2.549  10.336  0.5178 -0.4881  0.0953
 8633TIP3    H147390   6.502   2.620  10.290  1.5557  0.4431  0.4928
 8633TIP3    H247391   6.570   2.586  10.421 -0.9700 -2.0341  1.2652
 8634TIP3   OH247392   4.357   6.414   4.854  0.6535  0.6391 -0.2316
 8634TIP3    H147393   4.443   6.452   4.871  0.2187  1.0229  1.2338
 8634TIP3    H247394   4.317   6.472   4.789  1.8215 -0.0594 -1.6282
 8635TIP3   OH247395   1.335   0.476  10.611 -0.7821 -0.2837 -0.4746
 8635TIP3    H147396   1.286   0.542  10.561 -1.8737 -1.7073 -1.3569
 8635TIP3    H247397   1.379   0.424  10.544 -0.9003 -1.1824  0.1405
 8636TIP3   OH247398   4.513   6.328  12.884  0.0585  0.3947  0.0293
 8636TIP3    H147399   4.423   6.298  12.887 -0.0088  0.3644 -1.6568
 8636TIP3    H247400   4.522   6.385  12.960 -0.9851 -0.6189  0.9512
 8637TIP3   OH247401   6.011   1.030   0.980 -0.4903 -0.3035  0.1405
 8637TIP3    H147402   6.034   0.955   1.034 -0.3759  0.3543  1.0213
 8637TIP3    H247403   5.970   0.991   0.902 -1.1659 -1.2373  0.9400
 8638TIP3   OH247404   6.251   5.600  16.799 -0.1946  0.0740  0.2180
 8638TIP3    H147405   6.306   5.550  16.859  1.3445  2.4542  0.9660
 8638TIP3    H247406   6.187   5.538  16.766 -0.1681 -1.6747  3.2023
 8639TIP3   OH247407   1.314   3.343  12.037  0.0412 -0.2479  0.2215
 8639TIP3    H147408   1.307   3.297  11.953 -1.8356 -0.0288  0.2204
 8639TIP3    H247409   1.233   3.322  12.083  0.9883 -0.2445  1.9425
 8640TIP3   OH247410   6.204   6.006   1.743  0.2533  0.5325  0.2227
 8640TIP3    H147411   6.122   6.011   1.695  0.1686 -1.1536  0.1304
 8640TIP3    H247412   6.211   5.914   1.769  1.1933  1.0296  1.8637
 8641TIP3   OH247413   4.540   1.999  14.457 -0.0057 -0.2916 -0.1886
 8641TIP3    H147414   4.448   2.009  14.482  0.1120  0.3183  0.0247
 8641TIP3    H247415   4.538   1.954  14.373 -0.4834 -0.6475  0.0109
 8642TIP3   OH247416   4.937   4.800  13.448 -0.1942 -0.1096 -0.2051
 8642TIP3    H147417   4.922   4.706  13.452 -1.1088 -0.1716 -2.8812
 8642TIP3    H247418   4.852   4.836  13.421  0.6262  1.2574 -1.0458
 8643TIP3   OH247419   2.200   5.453   0.217  0.1792 -0.4012 -0.5871
 8643TIP3    H147420   2.207   5.473   0.124  1.1779 -0.7124 -0.5870
 8643TIP3    H247421   2.275   5.496   0.257  0.3483 -1.1575 -0.0751
 8644TIP3   OH247422   3.538   1.334   0.993 -0.5708 -0.6869 -0.8363
 8644TIP3    H147423   3.473   1.370   0.934 -1.5011 -1.0085 -0.0362
 8644TIP3    H247424   3.508   1.244   1.010 -0.1172 -0.7229 -0.1850
 8645TIP3   OH247425   5.671   3.245  15.014 -0.8031  0.2718  0.2899
 8645TIP3    H147426   5.707   3.180  14.954  0.2682  0.9379  0.1895
 8645TIP3    H247427   5.608   3.294  14.961  0.3638  1.0563 -0.4073
 8646TIP3   OH247428   1.304   1.355  12.068 -0.1920  0.2551  0.1298
 8646TIP3    H147429   1.317   1.264  12.094 -3.0700 -0.3211 -0.1107
 8646TIP3    H247430   1.367   1.370  11.998  1.0894 -1.1768  0.9316
 8647TIP3   OH247431   6.289   6.257   3.890  0.6504 -0.2600 -0.4127
 8647TIP3    H147432   6.374   6.244   3.847  1.7556  1.1232  1.2443
 8647TIP3    H247433   6.237   6.304   3.825  1.4276 -0.3638 -1.1382
 8648TIP3   OH247434   1.482   6.712  13.953 -0.2387 -0.3957 -0.9228
 8648TIP3    H147435   1.470   6.618  13.968 -0.9702  0.1127  2.2589
 8648TIP3    H247436   1.393   6.746  13.942 -0.0973  0.1638 -0.3492
 8649TIP3   OH247437   6.551   6.071  15.673 -0.3223 -0.0543  0.2566
 8649TIP3    H147438   6.558   5.977  15.688  0.7426 -0.1114 -0.5130
 8649TIP3    H247439   6.501   6.080  15.592 -1.2871  0.0908  0.8481
 8650TIP3   OH247440   3.441   1.843  16.869  0.2271 -0.4333  0.3366
 8650TIP3    H147441   3.352   1.870  16.846  0.7824  0.6624 -0.5843
 8650TIP3    H247442   3.479   1.812  16.787  1.1586  0.4541  0.4164
 8651TIP3   OH247443   3.223   4.882   2.793 -0.0847  0.3841  0.1053
 8651TIP3    H147444   3.140   4.913   2.830 -0.6209 -1.3392  0.4024
 8651TIP3    H247445   3.207   4.876   2.699  0.1491  1.3144 -0.0093
 8652TIP3   OH247446   0.007   5.524   2.418 -0.0687 -0.2948 -0.6245
 8652TIP3    H147447  -0.062   5.507   2.355 -0.6317 -0.5591  0.0506
 8652TIP3    H247448   0.015   5.443   2.468  0.7328 -0.2696 -0.6943
 8653TIP3   OH247449   2.271   0.756  14.116  0.0589  0.0981 -0.1159
 8653TIP3    H147450   2.312   0.813  14.181 -0.9163  0.7361 -0.0340
 8653TIP3    H247451   2.204   0.708  14.164 -2.0875  2.0614 -0.9725
 8654TIP3   OH247452   5.961   6.258   4.959  0.5788  0.3686  0.0586
 8654TIP3    H147453   5.892   6.292   5.017  0.9305 -1.4987  1.6735
 8654TIP3    H247454   5.919   6.252   4.873 -1.3002 -0.6922  0.9848
 8655TIP3   OH247455   0.301   1.167   0.016 -0.2095 -0.1599 -0.1974
 8655TIP3    H147456   0.345   1.239  -0.029  0.5264  0.0209  0.7733
 8655TIP3    H247457   0.217   1.205   0.044  0.7409  0.7939  1.5229
 8656TIP3   OH247458   0.658   4.248   5.777 -0.4841 -0.2081 -0.0661
 8656TIP3    H147459   0.588   4.231   5.841 -1.2598 -0.6066 -1.0058
 8656TIP3    H247460   0.629   4.325   5.729 -0.1634 -0.2443 -0.3193
 8657TIP3   OH247461   0.265   5.113   2.489  0.1567  0.5066  0.1938
 8657TIP3    H147462   0.198   5.087   2.426  0.4477 -1.4103  0.6370
 8657TIP3    H247463   0.216   5.153   2.561 -0.1630  3.0464 -1.3122
 8658TIP3   OH247464   6.204   1.199  11.767 -0.0070  0.3866 -0.1335
 8658TIP3    H147465   6.236   1.163  11.685 -0.0046 -0.4586  0.2213
 8658TIP3    H247466   6.110   1.184  11.765 -0.2911  2.0710 -0.7897
 8659TIP3   OH247467   2.960   2.463   5.162  0.0990 -0.0255 -0.0797
 8659TIP3    H147468   2.993   2.552   5.174  2.6031 -0.7570 -0.8556
 8659TIP3    H247469   2.961   2.425   5.250  0.2800  0.3161  0.0682
 8660TIP3   OH247470   1.893   0.175  10.162 -0.2243  0.1226  0.6361
 8660TIP3    H147471   1.826   0.239  10.187  0.2885  1.5111 -1.2925
 8660TIP3    H247472   1.844   0.096  10.139 -0.9414  0.0986  2.1535
 8661TIP3   OH247473   0.094   5.667   5.149 -0.0868  0.0587 -0.0482
 8661TIP3    H147474   0.131   5.716   5.076  0.4271 -2.1116 -1.3560
 8661TIP3    H247475   0.036   5.602   5.107 -0.1330 -0.9514  1.4984
 8662TIP3   OH247476   6.745   1.623  17.204 -0.5896  0.6178 -0.1869
 8662TIP3    H147477   6.686   1.621  17.128 -0.7545 -0.3271 -0.0416
 8662TIP3    H247478   6.799   1.701  17.190 -0.6518  0.4792 -1.2477
 8663TIP3   OH247479   1.903   4.143   3.182 -0.1779 -0.2870  0.2118
 8663TIP3    H147480   1.851   4.221   3.202  0.7419 -0.2984  3.0353
 8663TIP3    H247481   1.980   4.176   3.136  0.9712  0.7889  2.7317
 8664TIP3   OH247482   2.458   3.909  14.180 -0.2276 -0.9572  0.4671
 8664TIP3    H147483   2.492   3.981  14.127  0.2653 -1.4931  0.0422
 8664TIP3    H247484   2.432   3.950  14.263  0.4312 -0.3588  0.3858
 8665TIP3   OH247485   5.801   5.770   0.975 -0.2257 -0.2316  0.0303
 8665TIP3    H147486   5.848   5.830   1.033 -1.0400 -0.9024  1.4499
 8665TIP3    H247487   5.755   5.827   0.914  0.5763  0.5056  0.0833
 8666TIP3   OH247488   3.282   1.660  14.325  0.9626 -0.6531  0.0411
 8666TIP3    H147489   3.300   1.728  14.260  0.1089  1.1300  1.5976
 8666TIP3    H247490   3.272   1.580  14.273  0.3838  0.6804 -2.0144
 8667TIP3   OH247491   2.464   3.059  14.810  0.0496  0.3530  0.2498
 8667TIP3    H147492   2.399   3.079  14.742  0.9333  0.7876 -0.4835
 8667TIP3    H247493   2.412   3.035  14.886 -0.9685 -0.4107 -0.6544
 8668TIP3   OH247494   1.391   3.124   2.051 -0.2283 -0.1790 -0.2956
 8668TIP3    H147495   1.378   3.218   2.042  0.4397 -0.0935 -0.4758
 8668TIP3    H247496   1.487   3.113   2.052 -0.2949 -0.8943 -0.6804
 8669TIP3   OH247497   6.609   4.114   4.989  0.8759 -0.2176 -0.6377
 8669TIP3    H147498   6.608   4.203   4.953  0.3007  0.1223  0.2054
 8669TIP3    H247499   6.685   4.073   4.948  0.6017  0.3518 -1.7743
 8670TIP3   OH247500   6.106   0.583  13.721 -0.0520 -0.4912  0.1841
 8670TIP3    H147501   6.196   0.608  13.696 -0.6929  0.4340 -1.3342
 8670TIP3    H247502   6.118   0.518  13.791  1.7924 -0.2521  0.1468
 8671TIP3   OH247503   0.984   1.016  11.269 -0.0599 -0.5470  0.2966
 8671TIP3    H147504   1.045   1.001  11.341  0.2560  1.6254  0.5534
 8671TIP3    H247505   0.992   0.938  11.214  2.2631 -0.7336  0.8017
 8672TIP3   OH247506   1.750   3.328   3.631 -1.2960  0.7881  0.1239
 8672TIP3    H147507   1.784   3.391   3.695 -0.5983  0.8216 -0.2634
 8672TIP3    H247508   1.749   3.245   3.678  0.5710  0.5276 -0.2144
 8673TIP3   OH247509   1.432   4.643   5.666 -0.9078  0.0641  0.4690
 8673TIP3    H147510   1.527   4.644   5.656 -0.7370 -0.4723  1.8718
 8673TIP3    H247511   1.399   4.664   5.579  0.4953  1.6294  0.2660
 8674TIP3   OH247512   0.108   5.868   5.650  0.2372  0.2516  0.3225
 8674TIP3    H147513   0.128   5.959   5.627 -1.2590  0.4379 -0.4170
 8674TIP3    H247514   0.098   5.869   5.745  0.8998  0.7136  0.3925
 8675TIP3   OH247515   1.753   2.572   4.882 -0.3248 -0.1741  0.1005
 8675TIP3    H147516   1.687   2.620   4.933 -0.4601  1.1256 -1.2027
 8675TIP3    H247517   1.750   2.483   4.916 -1.7424  0.1975  1.0478
 8676TIP3   OH247518   0.635   6.778   0.450  0.0926  0.7282 -0.3139
 8676TIP3    H147519   0.637   6.870   0.421 -0.6223  1.0264  0.5333
 8676TIP3    H247520   0.542   6.759   0.460  0.2565  0.0150 -0.1523
 8677TIP3   OH247521   4.636   4.015   4.083 -0.3511 -0.4316 -0.5269
 8677TIP3    H147522   4.554   3.996   4.037 -0.5470 -1.4573  0.2090
 8677TIP3    H247523   4.704   3.974   4.029 -0.3812 -0.0916 -0.8272
 8678TIP3   OH247524   1.076   1.332  14.124 -0.3522  0.8680 -0.3368
 8678TIP3    H147525   0.995   1.370  14.158 -1.0393 -0.3903 -0.4990
 8678TIP3    H247526   1.050   1.294  14.040  0.0680 -0.7949  0.2603
 8679TIP3   OH247527   6.388   3.062   5.450  0.0508 -0.1451  0.2379
 8679TIP3    H147528   6.479   3.037   5.431 -0.1864 -0.2300 -0.8541
 8679TIP3    H247529   6.336   3.016   5.384 -0.4889  2.4009 -1.2383
 8680TIP3   OH247530   4.611   1.232   5.032  0.1091  0.8658 -0.2134
 8680TIP3    H147531   4.585   1.216   4.941  0.8823  0.1379 -0.3326
 8680TIP3    H247532   4.676   1.302   5.027  1.7118 -0.5456 -0.5151
 8681TIP3   OH247533   1.836   2.205  15.654  0.5865 -0.7882 -0.1042
 8681TIP3    H147534   1.750   2.162  15.651  0.0979  0.0091  1.3178
 8681TIP3    H247535   1.898   2.134  15.666  0.1846 -1.4219 -1.6515
 8682TIP3   OH247536   5.028   0.466  15.860 -0.0660  0.3016  0.2503
 8682TIP3    H147537   5.115   0.426  15.858 -0.4783 -0.5931 -0.1491
 8682TIP3    H247538   5.022   0.505  15.948  0.5569 -0.0293  0.4465
 8683TIP3   OH247539   5.823   5.909   1.227 -0.0047 -0.2080  0.1974
 8683TIP3    H147540   5.753   5.972   1.243  0.2185  0.7507 -2.2209
 8683TIP3    H247541   5.902   5.953   1.259 -0.2050 -0.4467  1.0503
 8684TIP3   OH247542   2.147   0.778  13.573 -0.8146  0.4028  0.0751
 8684TIP3    H147543   2.088   0.854  13.575 -1.7477 -0.2973 -0.3616
 8684TIP3    H247544   2.158   0.754  13.664  0.9548  2.1592  0.3799
 8685TIP3   OH247545   5.243   4.184   3.740 -0.2780  0.4915  0.1245
 8685TIP3    H147546   5.312   4.204   3.677  0.2347  1.7820  1.0672
 8685TIP3    H247547   5.288   4.140   3.812 -0.9719 -1.6575 -0.6785
 8686TIP3   OH247548   5.583   0.780   2.949  0.6729 -0.1712  0.0677
 8686TIP3    H147549   5.559   0.840   2.879 -2.5110  0.3232  1.4528
 8686TIP3    H247550   5.565   0.693   2.913  1.8299 -0.1372 -0.6626
 8687TIP3   OH247551   2.973   4.596  13.803 -0.5251 -0.2355 -0.3066
 8687TIP3    H147552   3.043   4.621  13.864 -2.1990  1.2833  1.1011
 8687TIP3    H247553   2.920   4.675  13.794 -1.4052 -0.9926 -2.2881
 8688TIP3   OH247554   5.087   3.174  14.476 -0.3007 -0.4259 -0.6147
 8688TIP3    H147555   5.155   3.147  14.414 -0.6064 -0.4397 -0.9495
 8688TIP3    H247556   5.098   3.115  14.551 -0.3802 -0.8782 -0.9576
 8689TIP3   OH247557   1.238   3.153   0.498 -0.1231  0.0788 -0.2749
 8689TIP3    H147558   1.256   3.213   0.425  0.3869  0.6080  0.2775
 8689TIP3    H247559   1.177   3.200   0.554  0.8696  0.4132  0.5584
 8690TIP3   OH247560   2.658   6.271   4.659  0.3726 -0.3279  0.0075
 8690TIP3    H147561   2.607   6.198   4.692  0.8658 -1.5066 -1.7086
 8690TIP3    H247562   2.612   6.299   4.580  1.2830 -0.1084 -0.4591
 8691TIP3   OH247563   5.491   2.699   0.645  0.2237 -0.3615 -0.6271
 8691TIP3    H147564   5.468   2.646   0.568 -3.2814  0.4108 -0.2573
 8691TIP3    H247565   5.556   2.761   0.612  0.0637 -1.1400 -2.5468
 8692TIP3   OH247566   3.948   0.186   5.804  0.2100 -0.4043  0.6080
 8692TIP3    H147567   3.889   0.112   5.791  1.1947 -0.8160 -2.6019
 8692TIP3    H247568   3.998   0.165   5.883  0.2124 -3.0159 -0.0089
 8693TIP3   OH247569   3.298   3.811  13.318 -0.1360  0.4661  0.3438
 8693TIP3    H147570   3.314   3.735  13.263 -0.3997  0.3592  0.4096
 8693TIP3    H247571   3.354   3.880  13.282  0.2501  0.1876  0.4013
 8694TIP3   OH247572   3.243   2.664  12.141 -0.5100 -0.1820  0.2047
 8694TIP3    H147573   3.277   2.583  12.102  0.3145 -0.3809  1.2891
 8694TIP3    H247574   3.308   2.688  12.207 -1.3930  0.6594  0.7952
 8695TIP3   OH247575   1.695   4.622   3.504  0.4833 -0.3681  0.2651
 8695TIP3    H147576   1.608   4.589   3.485 -0.7436  1.3612  2.4353
 8695TIP3    H247577   1.712   4.597   3.595  0.6341  2.4012  1.0985
 8696TIP3   OH247578   5.581   4.707  11.300  0.0895  0.3653  0.3454
 8696TIP3    H147579   5.526   4.767  11.350 -0.8740  0.4500 -0.7753
 8696TIP3    H247580   5.531   4.625  11.298 -0.3637  0.6482 -1.2734
 8697TIP3   OH247581   0.726   0.182   2.964 -0.1418  0.1314  0.0733
 8697TIP3    H147582   0.634   0.195   2.940 -0.8775  0.1166  2.5352
 8697TIP3    H247583   0.749   0.098   2.924 -0.8801  0.5954 -1.3842
 8698TIP3   OH247584   0.182   4.742  15.539 -0.1094  0.2701 -0.2129
 8698TIP3    H147585   0.276   4.757  15.553 -0.3015 -0.2656  2.0793
 8698TIP3    H247586   0.152   4.821  15.494  1.3609  0.5997 -0.6878
 8699TIP3   OH247587   6.728   4.726  16.135 -0.1378 -0.1074 -0.2725
 8699TIP3    H147588   6.646   4.772  16.157 -0.6545 -0.8728 -0.5418
 8699TIP3    H247589   6.699   4.643  16.098  0.7767 -0.4795 -0.1735
 8700TIP3   OH247590   6.607   3.414   0.678 -0.2608 -0.0922 -0.2929
 8700TIP3    H147591   6.555   3.339   0.647 -0.7096  0.2035 -0.2542
 8700TIP3    H247592   6.678   3.374   0.728 -0.5990 -0.4891 -0.1212
 8701TIP3   OH247593   3.630   3.775  14.593 -0.2475  0.3861  0.4491
 8701TIP3    H147594   3.548   3.740  14.558 -0.6196  1.5442  0.1114
 8701TIP3    H247595   3.642   3.859  14.548  1.5893 -0.1462 -0.1523
 8702TIP3   OH247596   2.984   0.849   2.872 -0.7158  0.4301  0.0378
 8702TIP3    H147597   3.037   0.928   2.882  0.0624 -0.1143  0.3623
 8702TIP3    H247598   3.049   0.779   2.860 -1.2474 -0.5957  2.5893
 8703TIP3   OH247599   4.099   2.835  12.819 -0.5877 -0.1693  0.2367
 8703TIP3    H147600   4.081   2.924  12.849 -0.0413 -0.0432  0.1938
 8703TIP3    H247601   4.014   2.792  12.822 -0.8102  0.2754  0.5134
 8704TIP3   OH247602   0.915   4.535  11.502  0.5580  0.0830  0.2331
 8704TIP3    H147603   0.839   4.581  11.537  1.3361  0.1951  1.8601
 8704TIP3    H247604   0.941   4.585  11.425 -0.0452  0.9690  0.5955
 8705TIP3   OH247605   3.016   5.684   4.792 -0.2326  0.4801  0.4529
 8705TIP3    H147606   3.084   5.636   4.745  0.7245  2.2968 -0.0785
 8705TIP3    H247607   3.013   5.642   4.878  0.1803 -0.8651 -0.1536
 8706TIP3   OH247608   3.507   3.830   0.871 -0.0269  0.5057  0.6546
 8706TIP3    H147609   3.425   3.785   0.893  0.8831 -1.0081  1.1444
 8706TIP3    H247610   3.521   3.890   0.944 -1.0603  1.3267  0.1983
 8707TIP3   OH247611   1.379   0.094  13.108  0.0679  0.1180  0.4440
 8707TIP3    H147612   1.348   0.172  13.061 -0.7017 -0.5547 -0.1998
 8707TIP3    H247613   1.302   0.037  13.112  1.2406 -1.7219 -1.4092
 8708TIP3   OH247614   0.578   3.882   5.049 -0.1334  0.5062  0.1052
 8708TIP3    H147615   0.485   3.863   5.063 -0.5126 -0.1662 -2.5938
 8708TIP3    H247616   0.620   3.796   5.054  0.0972  0.6086 -0.0712
 8709TIP3   OH247617   1.428   2.666  13.915 -0.3824  0.4927  0.4811
 8709TIP3    H147618   1.369   2.733  13.882 -1.1730 -0.4466 -0.0670
 8709TIP3    H247619   1.476   2.637  13.837 -2.8479 -2.3348 -0.1460
 8710TIP3   OH247620   5.322   0.939  12.511  0.0795  0.5303  0.3546
 8710TIP3    H147621   5.323   0.948  12.607  1.3828  2.4872  0.2136
 8710TIP3    H247622   5.263   1.008  12.481 -3.3807 -2.3893 -0.2053
 8711TIP3   OH247623   3.394   0.346   0.225 -0.4461  0.0460  0.4119
 8711TIP3    H147624   3.440   0.265   0.201  0.1458  1.1597 -2.7815
 8711TIP3    H247625   3.310   0.340   0.179  0.1811  1.7611 -1.1069
 8712TIP3   OH247626   3.265   5.131  14.417 -0.0698  0.5768  0.2719
 8712TIP3    H147627   3.274   5.217  14.377 -0.2924  0.4198 -0.1155
 8712TIP3    H247628   3.337   5.127  14.481  1.5963  0.0323 -1.5282
 8713TIP3   OH247629   4.152   5.627   4.470  0.0854 -0.2919 -0.4868
 8713TIP3    H147630   4.166   5.675   4.552  0.8807 -1.3854  0.0379
 8713TIP3    H247631   4.106   5.690   4.413  0.3373  0.7933  0.4685
 8714TIP3   OH247632   5.867   1.625  12.552 -0.4507  0.6062 -0.4040
 8714TIP3    H147633   5.934   1.690  12.574 -1.5661  1.6969 -0.1019
 8714TIP3    H247634   5.806   1.672  12.496 -1.3423 -0.1582 -0.0894
 8715TIP3   OH247635   3.795   0.843   3.195  0.1322 -0.8512 -0.0311
 8715TIP3    H147636   3.784   0.851   3.100  1.1237  2.2726 -0.0084
 8715TIP3    H247637   3.711   0.870   3.231  0.2836 -0.3105 -0.0587
 8716TIP3   OH247638   2.362   4.774  16.451  0.1469  0.5638 -0.2621
 8716TIP3    H147639   2.322   4.688  16.464  0.8923 -0.7830 -5.0363
 8716TIP3    H247640   2.289   4.832  16.431 -0.1977  0.7351  1.3309
 8717TIP3   OH247641   6.303   5.110  15.382 -0.5870 -0.1942  0.2546
 8717TIP3    H147642   6.294   5.170  15.456  0.1092  0.6375 -0.3147
 8717TIP3    H247643   6.232   5.134  15.323  0.4232  0.9430 -0.5455
 8718TIP3   OH247644   1.238   0.457   0.067 -0.0952 -0.0044 -0.4313
 8718TIP3    H147645   1.242   0.425   0.157 -0.4851 -0.4442 -0.5608
 8718TIP3    H247646   1.301   0.529   0.063 -0.6080  0.4986  0.3831
 8719TIP3   OH247647   2.440   6.297  15.577 -0.5098  0.1484  0.4016
 8719TIP3    H147648   2.456   6.237  15.650 -2.1363 -0.0920  0.5993
 8719TIP3    H247649   2.508   6.276  15.513 -0.4126 -1.1663  0.9181
 8720TIP3   OH247650   6.521   6.513  13.010 -0.2761 -0.1122 -0.2113
 8720TIP3    H147651   6.499   6.587  12.954 -1.0496  0.2800  0.5781
 8720TIP3    H247652   6.437   6.479  13.040  0.1052  0.4139  1.6062
 8721TIP3   OH247653   2.024   4.788   2.923 -0.3445 -0.0134 -0.4211
 8721TIP3    H147654   2.110   4.825   2.903  0.2789 -0.7128  0.7941
 8721TIP3    H247655   1.979   4.856   2.971 -0.2363  0.1336 -0.5264
 8722TIP3   OH247656   3.623   6.228  13.951 -0.3478 -0.1997  0.0617
 8722TIP3    H147657   3.628   6.283  14.030  1.6962  0.4254 -0.4458
 8722TIP3    H247658   3.612   6.290  13.879 -2.0577 -0.7602 -0.2029
 8723TIP3   OH247659   2.820   4.545   0.612 -0.1835 -0.0885  0.0828
 8723TIP3    H147660   2.784   4.521   0.527 -1.8050 -1.4580  1.1066
 8723TIP3    H247661   2.779   4.629   0.633 -1.7492 -0.9419  0.5877
 8724TIP3   OH247662   0.423   4.489   3.523 -0.0594 -0.3325  0.3796
 8724TIP3    H147663   0.391   4.477   3.613  0.1118 -1.8890  0.2540
 8724TIP3    H247664   0.518   4.499   3.533  0.1188 -1.7424  0.3056
 8725TIP3   OH247665   0.812   6.048   5.521  0.3671 -0.9548 -0.1840
 8725TIP3    H147666   0.722   6.044   5.551 -0.1556 -0.2486 -1.5452
 8725TIP3    H247667   0.865   6.023   5.597 -0.9732 -1.5149  0.5824
 8726TIP3   OH247668   3.324   5.141   4.345 -0.3143 -0.2387 -0.2174
 8726TIP3    H147669   3.395   5.183   4.394 -0.4379 -0.4018  0.1098
 8726TIP3    H247670   3.358   5.131   4.256  0.2042 -0.6362  0.0214
 8727TIP3   OH247671   2.512   5.824   0.829 -0.0722 -0.1625 -0.4492
 8727TIP3    H147672   2.597   5.808   0.788  0.2248 -2.4460  0.8519
 8727TIP3    H247673   2.470   5.889   0.773  2.0363  0.1340 -1.8094
 8728TIP3   OH247674   3.294   6.437   2.916  0.0774 -0.0889 -0.1449
 8728TIP3    H147675   3.336   6.415   3.000  1.0850  2.9097  0.2878
 8728TIP3    H247676   3.248   6.519   2.934  1.0769  1.1404 -2.7025
 8729TIP3   OH247677   6.705   1.441  15.177  0.4762  0.0131  1.0369
 8729TIP3    H147678   6.638   1.501  15.144  1.3674  0.9553  0.8977
 8729TIP3    H247679   6.728   1.387  15.102 -1.0806 -1.2665  1.4153
 8730TIP3   OH247680   1.247   2.854  13.817  0.5127 -0.4289  0.3767
 8730TIP3    H147681   1.176   2.917  13.833 -1.8569 -2.9595  0.6616
 8730TIP3    H247682   1.224   2.813  13.734  1.4260 -1.5909  0.6690
 8731TIP3   OH247683   4.831   4.721   4.115 -0.3829  0.5179 -0.3507
 8731TIP3    H147684   4.864   4.797   4.163  1.1935 -0.1641 -0.2917
 8731TIP3    H247685   4.744   4.706   4.151 -0.9987  2.6634 -0.8185
 8732TIP3   OH247686   2.813   3.098  12.086 -0.1710 -0.4357 -0.2707
 8732TIP3    H147687   2.793   3.022  12.032 -0.0486 -0.5340 -0.1787
 8732TIP3    H247688   2.889   3.138  12.045  0.1394 -0.7120  0.0286
 8733TIP3   OH247689   3.051   5.022   3.011 -0.0418 -0.2935  0.1982
 8733TIP3    H147690   3.084   5.095   2.959  1.2637 -0.9828  0.0164
 8733TIP3    H247691   3.024   5.062   3.094  2.0533  0.2356  0.6877
 8734TIP3   OH247692   1.731   2.896  15.884  0.3494  0.1816  0.0185
 8734TIP3    H147693   1.782   2.965  15.927  1.8722 -0.8185 -0.1068
 8734TIP3    H247694   1.789   2.863  15.815 -0.9977 -0.0966 -1.0422
 8735TIP3   OH247695   1.787   5.278   2.252 -0.5464  0.3311  0.1966
 8735TIP3    H147696   1.852   5.213   2.278 -0.7372  0.5910  1.3466
 8735TIP3    H247697   1.786   5.273   2.156 -0.7608 -1.5728  0.2472
 8736TIP3   OH247698   1.257   0.241   5.853  0.5470 -0.1662  0.2469
 8736TIP3    H147699   1.310   0.317   5.876  0.8304 -0.3983  0.3788
 8736TIP3    H247700   1.294   0.170   5.905  1.9123 -0.9579 -1.6756
 8737TIP3   OH247701   4.268   3.249   2.863 -0.3347 -0.2034  0.5405
 8737TIP3    H147702   4.198   3.295   2.909  0.9718  2.8441 -0.2882
 8737TIP3    H247703   4.339   3.244   2.927 -0.4038 -0.9413  0.5635
 8738TIP3   OH247704   6.136   0.473   5.161 -0.4971 -0.4152 -0.5984
 8738TIP3    H147705   6.112   0.387   5.195 -0.0051 -0.3334 -0.0103
 8738TIP3    H247706   6.082   0.485   5.083 -3.8545  0.6117  1.6759
 8739TIP3   OH247707   2.858   0.736   5.878 -0.3260 -0.0064 -0.8601
 8739TIP3    H147708   2.940   0.779   5.901  0.1297 -0.6638 -1.2258
 8739TIP3    H247709   2.791   0.804   5.890  0.3293  0.6975 -1.0844
 8740TIP3   OH247710   3.192   3.479   4.051  0.4190 -0.1166 -0.0711
 8740TIP3    H147711   3.097   3.475   4.051  0.4178 -1.1261  1.4692
 8740TIP3    H247712   3.220   3.388   4.056  1.4236  0.2081  0.7340
 8741TIP3   OH247713   5.275   0.487   4.792  0.2644  0.3455  0.4752
 8741TIP3    H147714   5.200   0.537   4.824 -0.5811 -0.4254 -0.2072
 8741TIP3    H247715   5.237   0.403   4.765  1.3342  0.0472 -0.1632
 8742TIP3   OH247716   1.512   4.442  12.045 -0.1140  0.1268  0.0104
 8742TIP3    H147717   1.423   4.450  12.079  0.4034  2.8701  0.9133
 8742TIP3    H247718   1.558   4.389  12.111 -0.8681 -0.7359 -0.1309
 8743TIP3   OH247719   4.140   4.439   2.945  0.1514  0.6922  0.1598
 8743TIP3    H147720   4.138   4.384   3.023 -1.0859  0.1841 -0.2079
 8743TIP3    H247721   4.193   4.515   2.970  0.6365  0.0402  1.1507
 8744TIP3   OH247722   1.056   2.394   2.580 -0.1149 -0.0826  0.3709
 8744TIP3    H147723   1.009   2.317   2.612 -0.9186  0.1273 -0.2714
 8744TIP3    H247724   1.118   2.359   2.516 -0.9483 -0.1443 -0.4249
 8745TIP3   OH247725   3.907   2.768   5.098 -0.1678  0.3897  0.4847
 8745TIP3    H147726   3.989   2.808   5.129 -0.1055 -0.0632  0.9043
 8745TIP3    H247727   3.850   2.767   5.175 -0.2650 -0.0775  0.4086
 8746TIP3   OH247728   2.515   4.780  15.041  0.3836  0.0816  0.6335
 8746TIP3    H147729   2.486   4.866  15.071 -0.4340  0.5766 -1.4254
 8746TIP3    H247730   2.434   4.731  15.028  0.3935  0.7879 -3.1708
 8747TIP3   OH247731   6.411   4.588   1.014 -0.3735  0.0392  0.5297
 8747TIP3    H147732   6.485   4.606   1.071 -0.7828  0.1168  1.0500
 8747TIP3    H247733   6.344   4.551   1.072  0.5608 -3.7691 -0.5247
 8748TIP3   OH247734   1.480   4.153   2.140 -0.0270  0.2888 -0.9545
 8748TIP3    H147735   1.504   4.096   2.067  0.1116 -0.3538 -0.4154
 8748TIP3    H247736   1.539   4.128   2.211  1.0523  2.1319 -1.1573
 8749TIP3   OH247737   1.172   3.508  13.226 -0.4567 -0.7992 -0.2491
 8749TIP3    H147738   1.177   3.418  13.193  0.2928 -0.5338 -0.8983
 8749TIP3    H247739   1.247   3.515  13.285  0.3787 -0.1759 -1.3380
 8750TIP3   OH247740   5.196   0.102  15.753 -0.1033 -0.2019  0.1632
 8750TIP3    H147741   5.229   0.109  15.664  2.3388 -2.1790  0.7852
 8750TIP3    H247742   5.140   0.024  15.751  1.1416 -1.1406  0.6096
 8751TIP3   OH247743   5.159   6.510  12.298  0.2246 -0.2552  0.1855
 8751TIP3    H147744   5.246   6.498  12.336  2.0433 -0.2281 -3.5527
 8751TIP3    H247745   5.148   6.605  12.291 -0.0870 -0.2610  0.5364
 8752TIP3   OH247746   4.498   6.716  13.296 -0.2882 -0.9415  0.2328
 8752TIP3    H147747   4.468   6.777  13.364 -2.0883 -1.9604  0.4126
 8752TIP3    H247748   4.496   6.630  13.338  0.5608 -1.3440 -0.5214
 8753TIP3   OH247749   5.477   1.061  16.145 -0.4683 -0.7664  0.4792
 8753TIP3    H147750   5.393   1.079  16.103 -0.0666  0.3117  0.1080
 8753TIP3    H247751   5.534   1.034  16.073  0.2833  1.2992  0.2406
 8754TIP3   OH247752   1.685   6.607   5.219 -0.3498 -0.1215  0.0208
 8754TIP3    H147753   1.707   6.681   5.275 -2.0288 -1.3928  2.5576
 8754TIP3    H247754   1.759   6.599   5.160  0.4726  2.7382  0.4958
 8755TIP3   OH247755   0.948   5.050   3.751  0.0720  0.5236  0.1022
 8755TIP3    H147756   0.869   4.996   3.744  0.0414  0.7146 -1.4621
 8755TIP3    H247757   0.925   5.118   3.815 -1.4098  1.1514 -1.0241
 8756TIP3   OH247758   4.417   0.402   3.998 -0.5710 -0.1194 -0.6459
 8756TIP3    H147759   4.451   0.384   3.910  1.2119 -1.8143  0.3211
 8756TIP3    H247760   4.479   0.466   4.034 -1.3973  0.7005 -0.6528
 8757TIP3   OH247761   1.944   6.095  13.849  0.1604  0.2112 -0.1994
 8757TIP3    H147762   1.965   6.188  13.852  2.2360 -0.2153  0.7850
 8757TIP3    H247763   2.011   6.054  13.903 -0.9666 -1.8281 -0.2320
 8758TIP3   OH247764   1.034   5.858   0.260  0.6293 -0.5244  0.0255
 8758TIP3    H147765   1.020   5.769   0.230 -0.7759  0.0067 -0.9964
 8758TIP3    H247766   1.063   5.906   0.183  1.6202 -0.1318  0.6205
 8759TIP3   OH247767   0.378   6.743   0.384 -0.6195 -0.6587 -0.0583
 8759TIP3    H147768   0.313   6.754   0.453 -0.6675 -2.7308  0.2994
 8759TIP3    H247769   0.330   6.698   0.314 -0.2953  0.4425 -1.0199
 8760TIP3   OH247770   4.059   5.231   5.939  0.7509 -0.3837  0.0643
 8760TIP3    H147771   4.129   5.210   6.001 -0.5434 -2.0464  1.0562
 8760TIP3    H247772   3.987   5.262   5.994 -0.5275 -2.1492 -0.5330
 8761TIP3   OH247773   1.318   2.364  17.104  0.1114 -0.3409 -0.6265
 8761TIP3    H147774   1.392   2.392  17.050 -0.4320  0.9085 -0.7530
 8761TIP3    H247775   1.355   2.299  17.164  0.7786 -1.5694 -2.3138
 8762TIP3   OH247776   0.152   4.384   2.881  0.3204  0.1165 -0.4672
 8762TIP3    H147777   0.247   4.385   2.884  0.3658 -0.4701 -1.3257
 8762TIP3    H247778   0.131   4.357   2.792 -0.6600  0.9105 -0.4970
 8763TIP3   OH247779   0.295   0.492   1.698  0.2932  0.8564  0.3536
 8763TIP3    H147780   0.202   0.503   1.717 -0.0636  0.1210 -0.8701
 8763TIP3    H247781   0.323   0.577   1.665 -0.6048  0.3693 -1.7918
 8764TIP3   OH247782   3.328   0.788   5.275  0.2067  0.0386 -0.5743
 8764TIP3    H147783   3.419   0.819   5.278  0.3408 -0.3937  0.4114
 8764TIP3    H247784   3.336   0.693   5.269 -0.1525 -0.0873  0.6331
 8765TIP3   OH247785   5.039   0.165  15.153  0.0267  0.6152  0.5963
 8765TIP3    H147786   5.064   0.077  15.126 -1.6015  0.3476 -0.1456
 8765TIP3    H247787   5.061   0.168  15.246  0.0884 -0.5804  0.6411
 8766TIP3   OH247788   4.454   5.798  16.866  0.5164  0.1394  0.1689
 8766TIP3    H147789   4.364   5.799  16.833  0.5805 -2.2746 -0.2479
 8766TIP3    H247790   4.508   5.779  16.789  1.2259 -0.1105  0.7131
 8767TIP3   OH247791   1.767   3.067   2.969  0.1870  0.2235  0.3527
 8767TIP3    H147792   1.817   3.147   2.953 -0.5122  0.8994  1.3752
 8767TIP3    H247793   1.678   3.089   2.941 -0.1475  0.0372  1.2410
 8768TIP3   OH247794   1.796   1.645   5.944 -0.1861  0.4029 -0.6115
 8768TIP3    H147795   1.887   1.633   5.970 -0.8744 -1.8649  1.0386
 8768TIP3    H247796   1.787   1.592   5.865 -0.3123 -0.2932 -0.1410
 8769TIP3   OH247797   3.082   3.747  14.962  0.4969  0.2578 -0.3295
 8769TIP3    H147798   3.164   3.786  14.932  1.1913  0.5572  1.7784
 8769TIP3    H247799   3.024   3.749  14.885  1.1875  3.5161 -0.8863
 8770TIP3   OH247800   6.137   4.426  11.002  0.0344  0.4415 -0.1635
 8770TIP3    H147801   6.104   4.403  10.915  1.5585  0.2265 -0.7121
 8770TIP3    H247802   6.181   4.510  10.990  0.5439  0.2505  0.3336
 8771TIP3   OH247803   1.319   1.860  13.640 -0.0442 -0.2496  0.2194
 8771TIP3    H147804   1.238   1.905  13.616  0.3234  1.7567  2.3756
 8771TIP3    H247805   1.291   1.779  13.683 -0.8246 -0.5243 -0.7921
 8772TIP3   OH247806   4.118   6.267  11.148 -0.2279  0.0264 -0.1608
 8772TIP3    H147807   4.080   6.199  11.203 -0.8074  0.1809 -0.3543
 8772TIP3    H247808   4.170   6.220  11.083  0.0222 -0.1839  0.1910
 8773TIP3   OH247809   4.433   1.234   3.746  0.2951  0.2224  0.4435
 8773TIP3    H147810   4.394   1.214   3.661 -0.6389  1.8323  0.4598
 8773TIP3    H247811   4.521   1.198   3.741  0.2415  0.2618 -1.1945
 8774TIP3   OH247812   3.195   5.705   3.061 -0.0082 -0.5243  0.0035
 8774TIP3    H147813   3.140   5.757   3.120  1.1849  0.0445  0.6544
 8774TIP3    H247814   3.280   5.749   3.063  0.3389 -1.0693 -1.3890
 8775TIP3   OH247815   3.333   1.911  11.527  0.7488  0.1299  0.1394
 8775TIP3    H147816   3.362   1.828  11.565 -1.5546 -0.6921  0.2855
 8775TIP3    H247817   3.333   1.896  11.432  0.6527  0.0746  0.1483
 8776TIP3   OH247818   5.734   3.512  12.619  0.8434 -0.1075 -0.2248
 8776TIP3    H147819   5.697   3.490  12.533  1.3501 -0.4453 -0.3567
 8776TIP3    H247820   5.658   3.516  12.677  0.4790  0.2382 -0.7057
 8777TIP3   OH247821   3.648   5.772  10.558 -0.0190  0.3392 -0.3901
 8777TIP3    H147822   3.648   5.856  10.511  1.5581  0.2581 -0.5944
 8777TIP3    H247823   3.564   5.733  10.537 -0.4026  1.4729 -1.0449
 8778TIP3   OH247824   0.949   4.440   5.664 -0.3181 -0.0494  0.5539
 8778TIP3    H147825   0.916   4.417   5.577  0.0325 -2.6021  0.9937
 8778TIP3    H247826   1.044   4.430   5.657 -0.4029 -2.3091  1.6637
 8779TIP3   OH247827   2.138   6.468  12.967  0.7293 -0.4094 -0.0851
 8779TIP3    H147828   2.054   6.457  12.922 -0.5017  0.7894  1.7701
 8779TIP3    H247829   2.130   6.413  13.045  0.6208  1.5902  1.3809
 8780TIP3   OH247830   1.247   6.399   2.536  0.1862 -0.5368  0.1436
 8780TIP3    H147831   1.245   6.315   2.491 -0.4877  0.6867 -2.3342
 8780TIP3    H247832   1.339   6.412   2.559  0.5328 -1.3409 -0.7249
 8781TIP3   OH247833   0.477   2.713   5.615  0.3285 -0.5600  0.0161
 8781TIP3    H147834   0.445   2.647   5.676  0.4251 -0.4251  0.2107
 8781TIP3    H247835   0.562   2.740   5.649 -0.9871  1.8608  1.6465
 8782TIP3   OH247836   3.669   1.820   3.111 -0.0432  0.0843 -0.4872
 8782TIP3    H147837   3.729   1.821   3.186 -0.4730 -0.1719 -0.1367
 8782TIP3    H247838   3.639   1.729   3.106  0.7123 -0.1278 -1.5559
 8783TIP3   OH247839   1.790   4.210   0.897  0.7462 -0.3499  0.1205
 8783TIP3    H147840   1.791   4.115   0.887 -0.6231 -0.2123 -1.6350
 8783TIP3    H247841   1.827   4.244   0.816 -1.1126  0.6406 -0.3724
 8784TIP3   OH247842   4.248   5.789  15.136 -0.3870 -0.0401 -0.5928
 8784TIP3    H147843   4.153   5.797  15.129 -0.5697 -1.1290  0.3109
 8784TIP3    H247844   4.262   5.738  15.216  0.9680  0.2869 -0.6000
 8785TIP3   OH247845   5.566   4.233   4.436 -0.4885 -0.3263 -0.0906
 8785TIP3    H147846   5.484   4.238   4.486  1.1281  1.6641  2.6011
 8785TIP3    H247847   5.618   4.307   4.467  2.1755 -1.2156 -2.0695
 8786TIP3   OH247848   4.447   5.993   0.024 -0.1716 -0.0457 -0.1702
 8786TIP3    H147849   4.443   5.900   0.002 -1.8940 -0.3289  1.2169
 8786TIP3    H247850   4.514   5.999   0.092  0.3635 -0.1695 -0.6800
 8787TIP3   OH247851   6.629   2.288   2.616  0.1235 -0.1219 -0.7826
 8787TIP3    H147852   6.685   2.291   2.694  0.3629 -1.7380 -0.8681
 8787TIP3    H247853   6.563   2.356   2.631  0.8890  0.4237  0.2563
 8788TIP3   OH247854   4.535   5.445   4.273 -0.2024 -0.4981  0.5008
 8788TIP3    H147855   4.505   5.409   4.356  1.0445  0.2055  1.2905
 8788TIP3    H247856   4.589   5.520   4.297 -0.3080  0.0931 -0.9808
 8789TIP3   OH247857   4.129   2.694   5.396 -0.3538  0.1094 -0.2042
 8789TIP3    H147858   4.209   2.685   5.343  0.4855 -0.7567  1.1399
 8789TIP3    H247859   4.118   2.789   5.405  1.2294  0.2738  0.5356
 8790TIP3   OH247860   6.074   5.314  12.307 -0.2292 -0.4891  0.0028
 8790TIP3    H147861   6.088   5.237  12.253  1.5354 -1.0453  1.1647
 8790TIP3    H247862   6.159   5.357  12.311 -0.7074  0.4277  0.9919
 8791TIP3   OH247863   3.919   3.454  11.788 -0.1665 -0.4404  0.1081
 8791TIP3    H147864   3.861   3.421  11.719 -1.6891  1.5675  0.3083
 8791TIP3    H247865   3.992   3.495  11.741  0.1639 -1.3804 -0.2099
 8792TIP3   OH247866   0.786   2.371   0.596 -0.5505  0.1118  0.2293
 8792TIP3    H147867   0.803   2.278   0.608  1.4047  0.3769 -0.2610
 8792TIP3    H247868   0.710   2.389   0.653  0.0058 -1.4491  1.5170
 8793TIP3   OH247869   1.830   2.272   4.909  0.1661 -0.0464  0.0261
 8793TIP3    H147870   1.769   2.242   4.976  0.8258  0.7777  1.0234
 8793TIP3    H247871   1.807   2.221   4.831 -0.4668 -1.1950  0.9308
 8794TIP3   OH247872   5.604   6.380   2.115 -0.3198 -0.2380  0.6815
 8794TIP3    H147873   5.584   6.287   2.114  0.3333 -0.3780 -0.6692
 8794TIP3    H247874   5.667   6.390   2.187 -0.0897 -0.9005  0.5811
 8795TIP3   OH247875   1.293   2.838   2.223  0.1159  0.1210 -0.1197
 8795TIP3    H147876   1.253   2.805   2.143 -0.2783  0.1339  0.0700
 8795TIP3    H247877   1.368   2.781   2.238 -1.7012 -2.0506  1.3189
 8796TIP3   OH247878   0.555   1.436   4.903 -0.2465 -0.1426  0.0200
 8796TIP3    H147879   0.555   1.524   4.866  0.8228 -0.2998 -0.3803
 8796TIP3    H247880   0.556   1.377   4.827 -1.2747 -0.5275  0.2747
 8797TIP3   OH247881   4.431   6.699   4.859 -0.4484 -0.3703  0.0076
 8797TIP3    H147882   4.516   6.688   4.818 -0.2413  2.2581 -0.4581
 8797TIP3    H247883   4.443   6.670   4.950  0.5009 -1.4026 -0.4339
 8798TIP3   OH247884   6.493   3.741   2.228  0.1597 -0.2345  0.4753
 8798TIP3    H147885   6.456   3.814   2.278  0.0738 -0.3679  0.6090
 8798TIP3    H247886   6.416   3.694   2.195  0.2210  0.2892 -0.4231
 8799TIP3   OH247887   6.369   3.030  14.573  0.5671 -0.1783 -0.1351
 8799TIP3    H147888   6.365   3.118  14.534 -1.1055  0.2002  0.8198
 8799TIP3    H247889   6.321   2.975  14.512 -2.3239  0.4720  1.3651
 8800TIP3   OH247890   0.195   3.557   0.644 -0.3181  0.7057  0.1399
 8800TIP3    H147891   0.187   3.485   0.581  0.6487  0.8284 -0.1402
 8800TIP3    H247892   0.204   3.636   0.590 -1.4245  1.0625  0.4439
 8801TIP3   OH247893   0.925   4.091  12.201  0.5569 -0.3359  0.2449
 8801TIP3    H147894   1.019   4.092  12.184  0.2816  0.3079 -1.4731
 8801TIP3    H247895   0.909   4.167  12.257  0.9872 -0.0731  0.0172
 8802TIP3   OH247896   0.680   0.059  15.070  0.5709  0.0584  0.0111
 8802TIP3    H147897   0.775   0.063  15.076  0.5450  1.6049 -0.0793
 8802TIP3    H247898   0.662  -0.022  15.023  1.8513 -0.1240 -0.2066
 8803TIP3   OH247899   5.301   4.821   3.714  0.2356  0.0678 -0.0405
 8803TIP3    H147900   5.315   4.774   3.632  0.5609  0.3717 -0.1635
 8803TIP3    H247901   5.244   4.894   3.690  1.1301  0.7299 -0.2030
 8804TIP3   OH247902   4.064   2.644   1.757 -0.2372  0.7023 -0.3541
 8804TIP3    H147903   3.978   2.684   1.771 -0.2399  0.1011  1.6159
 8804TIP3    H247904   4.125   2.700   1.806  0.1172 -0.2836  0.3453
 8805TIP3   OH247905   3.793   5.204  16.430  0.1544 -0.1046 -0.2706
 8805TIP3    H147906   3.831   5.132  16.380 -2.7294 -1.7058 -0.4000
 8805TIP3    H247907   3.845   5.208  16.510  0.0476 -2.8517  0.0344
 8806TIP3   OH247908   0.996   5.850   1.163 -0.2032  1.1206  0.4484
 8806TIP3    H147909   1.044   5.925   1.127  1.0936  0.6904  1.2315
 8806TIP3    H247910   0.995   5.865   1.257  0.1876  0.0938  0.6250
 8807TIP3   OH247911   6.756   3.085  15.822 -0.4896 -0.1653 -0.3751
 8807TIP3    H147912   6.674   3.067  15.869  0.4373  0.1742  1.4463
 8807TIP3    H247913   6.735   3.159  15.765 -0.9050  1.4291  1.7282
 8808TIP3   OH247914   1.592   3.456   2.217  0.2768  0.2757 -0.4016
 8808TIP3    H147915   1.651   3.525   2.189  0.6973 -0.3729 -1.1362
 8808TIP3    H247916   1.539   3.436   2.140  0.8620 -0.9245 -0.5203
 8809TIP3   OH247917   3.448   2.373  17.163 -0.4709  0.0041  0.2691
 8809TIP3    H147918   3.393   2.450  17.175 -1.5164 -0.7006  0.0725
 8809TIP3    H247919   3.494   2.389  17.080 -2.7772 -0.7868 -1.2623
 8810TIP3   OH247920   4.691   4.797  13.165 -0.3359 -0.1485 -0.0276
 8810TIP3    H147921   4.737   4.717  13.191  0.3073  0.0330 -0.5669
 8810TIP3    H247922   4.651   4.775  13.081 -0.0288  0.1372 -0.2509
 8811TIP3   OH247923   1.361   4.958  14.614 -0.6005 -0.3962  0.0692
 8811TIP3    H147924   1.371   4.998  14.527  1.2325 -2.4881 -0.7899
 8811TIP3    H247925   1.413   5.014  14.672  0.6579 -0.6129 -0.8063
 8812TIP3   OH247926   4.200   6.084  16.085  0.6688  0.2374  0.0394
 8812TIP3    H147927   4.177   6.153  16.147  1.1232 -0.2577  0.7699
 8812TIP3    H247928   4.158   6.111  16.003  1.9697  2.0898 -0.0699
 8813TIP3   OH247929   5.570   2.836   0.296  0.1658  0.1931 -0.5443
 8813TIP3    H147930   5.630   2.765   0.274  0.6831  0.2114  0.7120
 8813TIP3    H247931   5.527   2.858   0.213  0.8948 -0.7445 -1.1932
 8814TIP3   OH247932   3.659   3.461  12.630 -0.6195 -0.4066  0.2036
 8814TIP3    H147933   3.688   3.430  12.544 -0.6472 -0.7378  0.3113
 8814TIP3    H247934   3.572   3.498  12.615 -1.7149 -2.6670  0.4954
 8815TIP3   OH247935   4.002   4.122   4.340 -0.0564  0.3049  0.1943
 8815TIP3    H147936   4.053   4.165   4.272  1.7251 -0.9496  0.6848
 8815TIP3    H247937   4.065   4.070   4.389 -1.6046 -0.3143  1.6432
 8816TIP3   OH247938   1.354   0.066   1.651  0.6774 -0.4444  0.2445
 8816TIP3    H147939   1.322   0.156   1.641  0.5922 -0.6402 -1.3658
 8816TIP3    H247940   1.292   0.012   1.602 -0.3803 -1.6808  2.7190
 8817TIP3   OH247941   3.753   4.027  13.216  0.2724  0.0875 -0.2755
 8817TIP3    H147942   3.837   3.987  13.193  0.1914  0.2471 -0.8571
 8817TIP3    H247943   3.739   4.094  13.149 -0.9039 -0.7738 -0.9149
 8818TIP3   OH247944   3.703   5.310   4.688  0.3740 -0.2335  0.4129
 8818TIP3    H147945   3.655   5.276   4.764  0.5293 -2.3039 -0.3589
 8818TIP3    H247946   3.794   5.310   4.715  0.4235 -0.9184  0.2767
 8819TIP3   OH247947   5.450   6.227   4.269 -0.1584 -0.0042 -0.1089
 8819TIP3    H147948   5.517   6.284   4.231  0.3588 -1.8626 -2.1881
 8819TIP3    H247949   5.368   6.274   4.253  0.2829  0.3406 -1.5305
 8820TIP3   OH247950   6.093   0.188   2.972 -0.0058 -0.2147 -0.3217
 8820TIP3    H147951   6.081   0.269   3.022  0.3994 -0.6768  0.5412
 8820TIP3    H247952   6.126   0.218   2.887 -1.0022  0.6000 -0.4427
 8821TIP3   OH247953   3.516   2.710  15.138  0.0791 -0.4494  0.0872
 8821TIP3    H147954   3.510   2.615  15.129  1.7151 -0.5575 -0.1794
 8821TIP3    H247955   3.599   2.733  15.098  0.3948  0.9191  1.4136
 8822TIP3   OH247956   2.367   4.230  12.966 -0.6174  0.4355  0.0332
 8822TIP3    H147957   2.387   4.320  12.938 -0.2537  0.0294 -1.0507
 8822TIP3    H247958   2.451   4.186  12.967 -0.7245  0.2294  1.0811
 8823TIP3   OH247959   4.326   2.075  15.228  0.0996  0.0875  0.0187
 8823TIP3    H147960   4.311   1.981  15.227  1.7052 -0.1897 -0.3842
 8823TIP3    H247961   4.377   2.092  15.150 -1.3909  1.5468 -0.6971
 8824TIP3   OH247962   2.153   3.344   3.735  0.2855 -0.4908 -0.1706
 8824TIP3    H147963   2.151   3.256   3.698  0.5228 -1.4598  1.9689
 8824TIP3    H247964   2.173   3.401   3.661 -2.2610 -1.9199 -2.1251
 8825TIP3   OH247965   1.461   3.034  15.817  0.3048 -0.1665  0.0111
 8825TIP3    H147966   1.548   3.003  15.791  0.5814 -0.2259  0.9709
 8825TIP3    H247967   1.450   3.117  15.771  0.9930 -0.0199  0.0939
 8826TIP3   OH247968   1.371   4.307  12.262  0.3549 -0.2813 -0.2324
 8826TIP3    H147969   1.342   4.288  12.351  0.6713 -0.1733 -0.1027
 8826TIP3    H247970   1.294   4.343  12.218  0.0741 -0.7530 -0.1339
 8827TIP3   OH247971   1.942   4.881   6.634 -0.3312  0.2149  0.2855
 8827TIP3    H147972   1.995   4.866   6.556 -0.5405  2.6739 -0.4305
 8827TIP3    H247973   2.005   4.907   6.701 -0.3488  0.4535  0.2139
 8828TIP3   OH247974   6.419   6.780  14.341  0.7015 -0.1793  0.5803
 8828TIP3    H147975   6.434   6.799  14.434 -0.1116 -0.6287  0.8196
 8828TIP3    H247976   6.399   6.687  14.339 -1.2833  0.1945  0.2491
 8829TIP3   OH247977   1.625   0.463  13.168  0.0359  0.0350  0.6743
 8829TIP3    H147978   1.576   0.485  13.247 -2.3104  2.0748 -1.1950
 8829TIP3    H247979   1.687   0.535  13.157 -2.2589  1.8972 -1.2296
 8830TIP3   OH247980   2.453   5.535   5.379 -0.3440  0.3980 -0.0602
 8830TIP3    H147981   2.540   5.563   5.352 -0.7428  0.7715 -0.9777
 8830TIP3    H247982   2.440   5.578   5.464 -1.1413  3.5658 -1.6218
 8831TIP3   OH247983   3.481   2.656  11.494  0.1734  0.6900  0.3071
 8831TIP3    H147984   3.395   2.682  11.527 -0.2502  0.3108 -0.4745
 8831TIP3    H247985   3.540   2.723  11.527 -0.3662  0.7930  1.1101
 8832TIP3   OH247986   6.195   0.326   2.732 -0.2344  0.0313 -0.2770
 8832TIP3    H147987   6.192   0.420   2.750 -1.6503  0.1377 -0.9209
 8832TIP3    H247988   6.282   0.310   2.697 -0.3232  1.3094 -1.1358
 8833TIP3   OH247989   2.261   3.903  12.039  0.5301 -0.0330  0.1929
 8833TIP3    H147990   2.239   3.887  11.948 -0.0016  1.8685 -0.0500
 8833TIP3    H247991   2.342   3.955  12.036 -0.5114  1.7147  0.6704
 8834TIP3   OH247992   4.502   3.617  12.396 -0.7434 -0.3049 -0.2523
 8834TIP3    H147993   4.582   3.566  12.382  0.8549  1.5954  1.4524
 8834TIP3    H247994   4.462   3.624  12.309  1.2734 -0.7762 -1.2638
 8835TIP3   OH247995   4.089   2.570  13.798  0.0793 -0.3923 -0.0551
 8835TIP3    H147996   4.098   2.605  13.887 -1.7369 -1.1879  0.4892
 8835TIP3    H247997   4.077   2.648  13.744  0.6651  0.0763  0.4629
 8836TIP3   OH247998   0.382   2.826  11.567  0.1752 -0.3126  0.3242
 8836TIP3    H147999   0.457   2.767  11.567 -0.2153 -0.8114  0.8327
 8836TIP3    H248000   0.348   2.821  11.477  0.3697 -0.5658  0.2625
 8837TIP3   OH248001   4.669   1.999  13.681 -0.9342 -0.0482  0.9582
 8837TIP3    H148002   4.603   2.064  13.703 -0.7875  0.8270 -0.9168
 8837TIP3    H248003   4.623   1.935  13.626 -0.3514  0.3620 -0.0454
 8838TIP3   OH248004   2.969   1.421  13.611  0.0459  0.1186 -0.0141
 8838TIP3    H148005   2.896   1.445  13.554  0.2746  0.7825 -0.0292
 8838TIP3    H248006   2.929   1.410  13.697 -0.1648 -0.0933 -0.1356
 8839TIP3   OH248007   0.747   0.627  14.609  0.4255  0.3599 -0.4490
 8839TIP3    H148008   0.777   0.640  14.698 -1.7062  2.3500  0.0887
 8839TIP3    H248009   0.739   0.532  14.600  2.5702  0.0028  0.7347
 8840TIP3   OH248010   4.737   1.809  16.745  0.2517  0.2299  0.5536
 8840TIP3    H148011   4.810   1.748  16.749  0.5564  0.6399  1.5010
 8840TIP3    H248012   4.772   1.885  16.699 -0.0347 -0.1654 -0.3427
 8841TIP3   OH248013   0.883   5.919  14.731 -0.5830  0.2342  0.1605
 8841TIP3    H148014   0.827   5.845  14.754 -1.1403  0.2510 -1.0702
 8841TIP3    H248015   0.888   5.971  14.812  0.2098 -1.3611  1.1796
 8842TIP3   OH248016   1.472   4.414  14.507  0.1993 -0.0213  0.3758
 8842TIP3    H148017   1.450   4.321  14.505 -0.9709  0.2366  0.7745
 8842TIP3    H248018   1.388   4.459  14.497  0.7864  0.9988 -0.1325
 8843TIP3   OH248019   5.920   3.453   4.619 -0.2493 -0.3010  0.0449
 8843TIP3    H148020   5.832   3.427   4.649 -1.3037  2.9483  0.1024
 8843TIP3    H248021   5.907   3.478   4.527  0.9691 -1.1073 -0.3713
 8844TIP3   OH248022   2.603   6.471   3.431  0.0985 -0.3473 -0.3836
 8844TIP3    H148023   2.587   6.526   3.354 -0.0659 -0.9970 -0.8222
 8844TIP3    H248024   2.537   6.499   3.494  1.6193  1.7267  0.3819
 8845TIP3   OH248025   6.121   0.556   3.693  0.0531  0.1006  0.7731
 8845TIP3    H148026   6.074   0.605   3.625  1.6744 -0.3497 -0.7415
 8845TIP3    H248027   6.054   0.500   3.733 -0.8213 -0.0670 -0.8550
 8846TIP3   OH248028   4.035   0.671  15.343 -0.3922  0.1218 -0.0729
 8846TIP3    H148029   4.069   0.602  15.400  0.5171  1.1249  0.6439
 8846TIP3    H248030   3.959   0.631  15.299 -0.0899 -1.2085  0.5656
 8847TIP3   OH248031   1.640   4.544   2.931 -0.1741  0.8240  0.2874
 8847TIP3    H148032   1.624   4.638   2.924  2.2835  1.2464 -0.4525
 8847TIP3    H248033   1.633   4.511   2.842  0.1353  0.5155  0.3745
 8848TIP3   OH248034   0.068   2.866  11.113 -0.1205 -0.2869  0.3288
 8848TIP3    H148035   0.021   2.791  11.076 -1.2568  0.5472  0.0389
 8848TIP3    H248036  -0.000   2.931  11.132  0.8000  0.5460  0.9116
 8849TIP3   OH248037   4.753   2.048  16.073  0.5824 -0.2655 -0.6723
 8849TIP3    H148038   4.792   1.961  16.076  2.3374  0.5043 -0.1435
 8849TIP3    H248039   4.695   2.051  16.150  1.0709 -0.7115 -0.2817
 8850TIP3   OH248040   1.987   4.314   3.457  0.1955 -0.3438  0.2583
 8850TIP3    H148041   1.969   4.254   3.529 -0.6945  0.9486  1.1623
 8850TIP3    H248042   2.028   4.390   3.499  1.0383 -0.1903 -0.8076
 8851TIP3   OH248043   5.418   2.805  11.439  0.0117 -0.0258  0.0982
 8851TIP3    H148044   5.366   2.730  11.410  0.8033 -1.7439  2.7546
 8851TIP3    H248045   5.365   2.846  11.508  0.9220 -0.0641  0.8390
 8852TIP3   OH248046   3.496   2.306  14.165  0.5515 -0.1255  0.5015
 8852TIP3    H148047   3.467   2.397  14.165  1.7459  0.3366  2.6682
 8852TIP3    H248048   3.590   2.311  14.151  0.4981 -1.1180 -0.3126
 8853TIP3   OH248049   5.839   2.546   4.200  0.1700 -0.6145 -0.1920
 8853TIP3    H148050   5.760   2.583   4.159 -0.3826 -1.1201  0.4098
 8853TIP3    H248051   5.846   2.592   4.284  0.8138 -0.2060 -0.4571
 8854TIP3   OH248052   1.384   6.644  11.328  0.0090  0.4245  0.8388
 8854TIP3    H148053   1.399   6.644  11.234 -0.1969 -1.6805  0.7493
 8854TIP3    H248054   1.292   6.671  11.338 -0.3926 -0.6898  0.3099
 8855TIP3   OH248055   0.526   0.748   1.565  0.2806 -0.2586  0.3700
 8855TIP3    H148056   0.538   0.838   1.596  0.2798 -0.2851  0.4462
 8855TIP3    H248057   0.540   0.693   1.642 -2.5263 -0.1734  1.0426
 8856TIP3   OH248058   0.358   2.410   5.357 -0.4738 -0.0226  0.0964
 8856TIP3    H148059   0.269   2.384   5.382 -0.2655 -0.5982  0.2573
 8856TIP3    H248060   0.349   2.500   5.325 -1.2651 -0.4063 -0.7909
 8857TIP3   OH248061   4.783   0.699  17.104 -0.2198 -0.4936 -0.1333
 8857TIP3    H148062   4.788   0.774  17.163 -1.2094 -0.0159 -0.6570
 8857TIP3    H248063   4.742   0.630  17.157  0.2725 -0.5383  0.2004
 8858TIP3   OH248064   1.014   2.159   4.386  0.1215 -0.3947  0.1729
 8858TIP3    H148065   1.070   2.219   4.337 -0.3453 -0.9843 -1.1354
 8858TIP3    H248066   1.047   2.072   4.364 -1.7989 -0.8074 -1.3247
 8859TIP3   OH248067   0.868   3.587   2.396 -0.2013  0.4028  0.6034
 8859TIP3    H148068   0.959   3.602   2.421 -0.1872 -1.5581  1.9219
 8859TIP3    H248069   0.833   3.529   2.464 -1.9326 -0.3004 -0.7948
 8860TIP3   OH248070   4.209   2.438  12.082 -0.2990  0.1115 -0.1356
 8860TIP3    H148071   4.181   2.499  12.014  0.0240  0.1949 -0.1981
 8860TIP3    H248072   4.144   2.368  12.081 -0.4636  0.2686 -0.3213
 8861TIP3   OH248073   4.949   3.974   0.982 -0.1608  0.1906  0.0606
 8861TIP3    H148074   4.980   3.944   0.896 -1.3491 -2.3598  0.4259
 8861TIP3    H248075   4.916   4.063   0.965  2.4650  1.0017 -1.3876
 8862TIP3   OH248076   3.914   5.597  15.208 -0.7472  0.0755  0.0131
 8862TIP3    H148077   3.980   5.530  15.226 -1.0738 -0.5362 -0.9530
 8862TIP3    H248078   3.853   5.592  15.281  1.0451  1.7117  1.7450
 8863TIP3   OH248079   4.247   0.369  13.068  0.0516 -0.3319 -0.5206
 8863TIP3    H148080   4.324   0.326  13.104  0.2947  0.8999  0.5036
 8863TIP3    H248081   4.272   0.395  12.980  1.6020  1.8593  0.4694
 8864TIP3   OH248082   4.392   2.063   5.169  0.5893 -0.5518  0.3160
 8864TIP3    H148083   4.305   2.027   5.187  0.8184 -0.3935  1.9390
 8864TIP3    H248084   4.374   2.146   5.124 -0.0587 -0.8895 -0.0781
 8865TIP3   OH248085   3.839   5.998  11.551 -0.2556 -0.1649  0.0931
 8865TIP3    H148086   3.871   6.087  11.564 -0.3513 -0.4170  2.4278
 8865TIP3    H248087   3.747   6.001  11.578 -0.3045 -0.9395  0.0249
 8866TIP3   OH248088   6.249   0.361   5.555 -0.1608  0.0949 -0.0771
 8866TIP3    H148089   6.291   0.402   5.479  2.0053 -0.7070  0.6228
 8866TIP3    H248090   6.248   0.267   5.534 -3.5750  0.1550 -0.9390
 8867TIP3   OH248091   0.687   2.460   3.576  0.0516 -0.4665 -0.5779
 8867TIP3    H148092   0.659   2.430   3.662 -1.2653 -0.4832 -0.9954
 8867TIP3    H248093   0.698   2.554   3.585  0.9284 -0.5976 -0.1412
 8868TIP3   OH248094   2.197   5.247  11.708  0.5871  0.2288 -0.0501
 8868TIP3    H148095   2.292   5.233  11.719  0.4442 -1.6051 -0.7692
 8868TIP3    H248096   2.176   5.203  11.626 -0.7391  1.4882 -0.4091
 8869TIP3   OH248097   1.355   3.883  11.179  0.1502 -0.1078 -0.0476
 8869TIP3    H148098   1.297   3.935  11.235 -1.1002 -1.6068  0.1236
 8869TIP3    H248099   1.438   3.882  11.226  0.0683  1.3018  0.1826
 8870TIP3   OH248100   5.586   6.108   2.938 -0.1426  0.7628  0.0441
 8870TIP3    H148101   5.586   6.169   3.011  0.2934  1.0226 -0.1696
 8870TIP3    H248102   5.563   6.161   2.862  0.2021  0.6549 -0.1374
 8871TIP3   OH248103   0.760   0.264  12.781  0.2371 -0.4193 -0.0284
 8871TIP3    H148104   0.677   0.311  12.779  0.5782  0.2397  0.8883
 8871TIP3    H248105   0.746   0.189  12.722 -0.6023  0.3225 -0.8056
 8872TIP3   OH248106   3.079   2.264   2.022  0.2089 -0.2517  0.0140
 8872TIP3    H148107   3.091   2.358   2.034 -0.4715 -0.1602 -0.0125
 8872TIP3    H248108   3.062   2.253   1.929 -2.9169 -0.0200  0.4567
 8873TIP3   OH248109   0.617   5.899  16.219 -0.0344  0.4279  0.2250
 8873TIP3    H148110   0.618   5.947  16.303  0.0908  0.7314  0.0537
 8873TIP3    H248111   0.542   5.934  16.172 -1.2215 -1.0497  0.9482
 8874TIP3   OH248112   2.713   5.952   2.256 -0.0893 -0.1162  0.4073
 8874TIP3    H148113   2.725   5.898   2.334  1.7509 -0.2866  0.0416
 8874TIP3    H248114   2.649   5.904   2.203 -2.1964  0.5251  2.2211
 8875TIP3   OH248115   0.487   5.843  15.714 -0.3387  0.4814 -0.1419
 8875TIP3    H148116   0.447   5.775  15.767 -4.2155  2.0734 -0.6769
 8875TIP3    H248117   0.552   5.797  15.661 -2.7488 -2.8607 -0.5194
 8876TIP3   OH248118   3.873   3.557   4.422  0.7188 -0.1550 -0.5165
 8876TIP3    H148119   3.896   3.650   4.425  0.8871 -0.2147  0.0994
 8876TIP3    H248120   3.947   3.512   4.463 -0.5865 -0.3277  1.8145
 8877TIP3   OH248121   5.554   6.647  16.325 -0.5953 -0.2258  0.3948
 8877TIP3    H148122   5.590   6.587  16.390 -0.5568 -1.0945 -0.3969
 8877TIP3    H248123   5.609   6.635  16.248 -1.4343 -0.2027 -0.2244
 8878TIP3   OH248124   2.464   2.909   6.276  0.4461  0.8301 -0.0676
 8878TIP3    H148125   2.403   2.835   6.272  0.5758  0.6946  0.3505
 8878TIP3    H248126   2.531   2.881   6.339  1.2392  0.7582 -0.9166
 8879TIP3   OH248127   2.342   0.087  16.818  0.0389  0.3926  0.0765
 8879TIP3    H148128   2.378   0.174  16.799 -2.6212  1.3022 -1.2653
 8879TIP3    H248129   2.419   0.035  16.843  1.9592  2.6510 -0.6694
 8880TIP3   OH248130   0.056   3.088   6.135  0.0766 -0.0770  0.1747
 8880TIP3    H148131  -0.012   3.122   6.194  0.6164  1.4892 -0.0594
 8880TIP3    H248132   0.039   3.132   6.052  0.9644 -0.2072 -0.0780
 8881TIP3   OH248133   2.351   0.051   1.225 -0.0828  0.3888  0.0078
 8881TIP3    H148134   2.262   0.035   1.194 -0.7292  1.2859  1.3183
 8881TIP3    H248135   2.402  -0.024   1.192 -1.4010 -0.3706 -0.3651
 8882TIP3   OH248136   2.099   2.016   4.747 -0.3814  0.2052 -0.2768
 8882TIP3    H148137   2.007   1.999   4.729 -1.0097  2.1703  0.7565
 8882TIP3    H248138   2.144   1.993   4.665 -1.7961 -0.5067 -0.8979
 8883TIP3   OH248139   0.692   4.849  17.243  0.2243  0.2867  0.1461
 8883TIP3    H148140   0.678   4.902  17.321 -0.4395  0.3315  0.0090
 8883TIP3    H248141   0.680   4.911  17.170 -2.6550 -0.4084 -0.0920
 8884TIP3   OH248142   1.569   6.558  16.613 -0.2426  0.2462 -0.3234
 8884TIP3    H148143   1.494   6.618  16.608 -0.1940  0.4111  0.7780
 8884TIP3    H248144   1.643   6.615  16.633  0.0854  0.0093 -0.8454
 8885TIP3   OH248145   2.094   0.854   0.707  0.1442  0.1757  0.5692
 8885TIP3    H148146   2.019   0.804   0.741  0.0760 -0.1151  0.0038
 8885TIP3    H248147   2.168   0.825   0.761 -0.0190 -0.0539  0.6717
 8886TIP3   OH248148   0.670   1.909  11.558  0.4278 -0.1518  0.3501
 8886TIP3    H148149   0.628   1.973  11.500  0.4256 -0.0233  0.4935
 8886TIP3    H248150   0.727   1.859  11.500 -2.6300 -2.8535 -0.6579
 8887TIP3   OH248151   4.376   0.638   5.615  0.4361  0.1817  0.2633
 8887TIP3    H148152   4.304   0.626   5.553  0.7443  0.5212 -0.1671
 8887TIP3    H248153   4.351   0.714   5.667  0.0757 -0.2347  0.7058
 8888TIP3   OH248154   5.238   4.026  11.647  0.3866 -0.2041  0.2907
 8888TIP3    H148155   5.325   4.018  11.608  1.6348  1.3261  2.5842
 8888TIP3    H248156   5.192   4.089  11.591  1.1523 -0.1407 -0.2818
 8889TIP3   OH248157   5.353   4.081  13.219  0.1776 -0.3764 -0.5364
 8889TIP3    H148158   5.446   4.100  13.228 -0.1372  1.6485 -1.1683
 8889TIP3    H248159   5.344   4.044  13.132  0.1533  1.3525 -1.3061
 8890TIP3   OH248160   4.967   2.586  13.372  0.3485 -0.0712  0.4911
 8890TIP3    H148161   4.956   2.524  13.444  1.0802 -1.1957 -0.3249
 8890TIP3    H248162   5.011   2.535  13.304 -1.3951  0.5911 -1.2295
 8891TIP3   OH248163   2.179   0.490   3.729  0.4954  0.4153  0.3980
 8891TIP3    H148164   2.249   0.547   3.763  2.8570 -2.4451  0.8294
 8891TIP3    H248165   2.142   0.450   3.808 -0.9098  1.0778  0.0907
 8892TIP3   OH248166   0.388   6.578  14.848  0.2626 -0.5392 -0.0188
 8892TIP3    H148167   0.461   6.602  14.791  0.0827  0.6953  0.2487
 8892TIP3    H248168   0.382   6.483  14.839  1.1543 -0.5351 -0.9399
 8893TIP3   OH248169   5.098   6.764   0.447 -0.0757  0.2574 -0.9474
 8893TIP3    H148170   5.117   6.743   0.539  0.1871  1.5805 -0.6740
 8893TIP3    H248171   5.017   6.816   0.451 -1.0849 -1.1843 -1.6518
 8894TIP3   OH248172   1.467   3.632  16.941 -0.1877  0.2093  0.1320
 8894TIP3    H148173   1.451   3.723  16.918  0.4807  0.2646 -0.1388
 8894TIP3    H248174   1.411   3.616  17.017 -2.6734 -0.0355 -1.6205
 8895TIP3   OH248175   1.707   6.793   0.427 -0.2188 -0.1931  0.8017
 8895TIP3    H148176   1.680   6.873   0.382 -0.3868 -0.0244  1.1962
 8895TIP3    H248177   1.785   6.818   0.476  0.7937 -0.7272 -0.4807
 8896TIP3   OH248178   4.740   4.574   3.903  0.0808  0.0333 -0.2596
 8896TIP3    H148179   4.779   4.596   3.988  1.1436  1.0809 -0.9938
 8896TIP3    H248180   4.810   4.590   3.840 -0.8777 -0.1872 -1.4019
 8897TIP3   OH248181   6.040   2.541   5.652 -0.0995  0.5750 -0.2567
 8897TIP3    H148182   5.973   2.513   5.591 -1.9921  2.3042  0.8764
 8897TIP3    H248183   6.038   2.637   5.647  1.7343  0.6951  0.4271
 8898TIP3   OH248184   3.161   6.350   1.370 -0.2432  0.3600  0.6212
 8898TIP3    H148185   3.129   6.374   1.283 -0.7854 -0.3979  0.6010
 8898TIP3    H248186   3.233   6.411   1.387 -0.9086  1.2897  0.1481
 8899TIP3   OH248187   4.261   3.226   3.146 -0.1873  0.1841 -0.1886
 8899TIP3    H148188   4.242   3.215   3.239  1.4174 -1.8128 -0.0190
 8899TIP3    H248189   4.357   3.221   3.141 -0.1786  1.2544 -1.8675
 8900TIP3   OH248190   6.238   4.927   1.204 -0.3229  0.1889 -0.3467
 8900TIP3    H148191   6.218   4.865   1.134 -2.2195  0.3757 -0.0103
 8900TIP3    H248192   6.244   5.012   1.160 -1.3837  0.2872 -0.3173
 8901TIP3   OH248193   2.023   0.206   2.679 -0.3735 -0.2606 -0.5545
 8901TIP3    H148194   1.996   0.246   2.762 -1.9147 -1.8251 -0.2537
 8901TIP3    H248195   2.114   0.180   2.694 -0.3696  0.2088  0.3396
 8902TIP3   OH248196   4.205   3.990   5.206  0.5218 -0.4451 -0.6754
 8902TIP3    H148197   4.196   3.922   5.140  1.1013 -1.1843 -0.0124
 8902TIP3    H248198   4.297   4.017   5.201  0.6608 -0.7622  0.0625
 8903TIP3   OH248199   1.275   4.945   3.852 -0.4352 -0.6465  0.0969
 8903TIP3    H148200   1.203   4.932   3.914 -1.0479 -1.6441 -0.8105
 8903TIP3    H248201   1.244   4.907   3.770  0.2790  0.8379 -0.9062
 8904TIP3   OH248202   2.450   0.780   3.250  0.4349  0.4348 -0.2159
 8904TIP3    H148203   2.527   0.727   3.229  1.0437  1.4410 -0.5722
 8904TIP3    H248204   2.377   0.733   3.210  0.5986 -1.3696  1.4424
 8905TIP3   OH248205   6.300   5.975  12.655  0.1686  0.0392 -0.4824
 8905TIP3    H148206   6.342   5.980  12.740  1.0575 -1.4712 -0.8115
 8905TIP3    H248207   6.224   6.033  12.663  0.4274  0.1966  1.2023
 8906TIP3   OH248208   1.052   6.559   0.484 -0.9309  0.6037 -0.3065
 8906TIP3    H148209   1.074   6.512   0.564 -0.9706  0.3421 -0.4496
 8906TIP3    H248210   1.136   6.571   0.439 -0.7302  1.8126  0.3448
 8907TIP3   OH248211   4.277   3.726  13.047  0.3130 -0.0581 -0.3037
 8907TIP3    H148212   4.324   3.794  13.096  0.0053 -0.7704  1.0334
 8907TIP3    H248213   4.203   3.771  13.007  0.8582  0.6414 -0.5403
 8908TIP3   OH248214   1.338   4.986  12.791  0.1464 -0.5107  0.3248
 8908TIP3    H148215   1.418   5.014  12.747 -1.1080  1.5821 -0.7759
 8908TIP3    H248216   1.270   5.044  12.757 -1.4030 -0.5358  3.0664
 8909TIP3   OH248217   4.453   4.843  13.875 -0.3013 -0.1039 -0.0064
 8909TIP3    H148218   4.483   4.831  13.785 -1.9186 -2.2974 -0.3491
 8909TIP3    H248219   4.475   4.934  13.897 -1.0708  0.9336 -3.0963
 8910TIP3   OH248220   4.280   6.412  15.252 -0.4373 -0.0418 -0.2646
 8910TIP3    H148221   4.326   6.482  15.298 -0.1504 -0.2250 -0.2678
 8910TIP3    H248222   4.349   6.362  15.209 -0.7387  0.5274 -1.4773
 8911TIP3   OH248223   4.242   4.343   6.092 -0.5025 -0.5911 -0.8769
 8911TIP3    H148224   4.212   4.277   6.154 -0.5404 -0.0794 -0.3471
 8911TIP3    H248225   4.174   4.411   6.094  0.7982  0.7374  0.5638
 8912TIP3   OH248226   2.148   6.651  15.566 -0.0211  0.1174  0.3510
 8912TIP3    H148227   2.055   6.657  15.586 -0.3086  0.6200 -1.0145
 8912TIP3    H248228   2.170   6.735  15.526  1.1240  0.1528  1.0005
 8913TIP3   OH248229   4.073   6.528  11.185  0.2418  0.8007 -0.4172
 8913TIP3    H148230   4.001   6.559  11.130  0.4187  0.5859 -0.7740
 8913TIP3    H248231   4.089   6.438  11.156 -0.3935  0.2928  0.7344
 8914TIP3   OH248232   4.081   4.251  16.047 -0.1678  0.1468  0.1069
 8914TIP3    H148233   4.167   4.235  16.007 -0.4259  1.2686 -0.9435
 8914TIP3    H248234   4.022   4.194  15.999  0.0741 -1.1708  1.3129
 8915TIP3   OH248235   3.867   4.730  12.045  0.6432 -0.2460 -0.4059
 8915TIP3    H148236   3.940   4.682  12.084  0.0805 -0.1048  0.8709
 8915TIP3    H248237   3.907   4.810  12.012  0.9754  0.2002  0.9862
 8916TIP3   OH248238   3.781   0.519   2.929 -0.5091 -0.1055  0.3214
 8916TIP3    H148239   3.712   0.465   2.891 -0.3153  1.6865 -2.8862
 8916TIP3    H248240   3.744   0.608   2.930  0.5284  0.3430  1.8728
 8917TIP3   OH248241   4.901   0.345  15.561 -0.2696 -0.0544  0.2814
 8917TIP3    H148242   4.924   0.437  15.575  0.9241 -0.3872  0.5464
 8917TIP3    H248243   4.883   0.311  15.648 -2.5224  0.3462  0.0562
 8918TIP3   OH248244   5.437   0.934  10.759  0.2038 -0.0714  0.5654
 8918TIP3    H148245   5.516   0.884  10.779  0.2289 -0.3896 -0.2988
 8918TIP3    H248246   5.462   0.988  10.683 -0.2865  0.1303  0.5456
 8919TIP3   OH248247   5.117   6.768  13.387  0.3903 -0.7516 -0.6473
 8919TIP3    H148248   5.023   6.781  13.396  0.3772 -0.5775 -1.0324
 8919TIP3    H248249   5.131   6.675  13.406  0.3548 -0.4462  1.0722
 8920TIP3   OH248250   1.762   0.745  15.957  0.2644  0.1182 -0.5116
 8920TIP3    H148251   1.676   0.781  15.936 -0.6460 -1.3520  0.5578
 8920TIP3    H248252   1.785   0.693  15.880  0.0654  0.2798 -0.6819
 8921TIP3   OH248253   2.285   0.415   0.560 -0.3015  0.2199  0.0905
 8921TIP3    H148254   2.333   0.431   0.478  1.0841 -1.1374  0.5928
 8921TIP3    H248255   2.197   0.449   0.543 -0.5216 -1.3955 -2.5301
 8922TIP3   OH248256   2.675   1.090   0.107  0.1625  0.0281 -0.8727
 8922TIP3    H148257   2.671   1.023   0.174  0.4103 -0.6772 -1.5479
 8922TIP3    H248258   2.614   1.061   0.040  1.9092 -0.7264 -2.2205
 8923TIP3   OH248259   6.008   2.693  17.087 -0.1487 -0.2100 -0.6194
 8923TIP3    H148260   6.101   2.686  17.064 -0.5033 -0.7188 -1.9663
 8923TIP3    H248261   5.979   2.774  17.045 -0.8123 -1.1712 -2.1334
 8924TIP3   OH248262   6.108   5.378   1.615 -0.1001  0.4976  0.4915
 8924TIP3    H148263   6.153   5.460   1.594 -0.7545  0.2744 -2.1223
 8924TIP3    H248264   6.132   5.319   1.544 -0.5700 -1.2357  1.7101
 8925TIP3   OH248265   4.316   1.587   2.180 -0.2787 -0.3351 -0.1939
 8925TIP3    H148266   4.316   1.655   2.248 -0.1716 -0.0311 -0.4917
 8925TIP3    H248267   4.406   1.585   2.149 -0.5025  0.1238 -0.9073
 8926TIP3   OH248268   1.663   6.680   2.588  0.1035 -0.3349  0.1734
 8926TIP3    H148269   1.574   6.696   2.619 -0.3782 -0.5129 -1.0638
 8926TIP3    H248270   1.704   6.766   2.589 -0.6365  0.0516 -0.8682
 8927TIP3   OH248271   1.926   6.358   6.576  0.1305  0.1840 -0.1665
 8927TIP3    H148272   1.991   6.296   6.543  0.2039  0.3592 -0.3562
 8927TIP3    H248273   1.940   6.359   6.671 -2.2137 -2.7577  0.3366
 8928TIP3   OH248274   2.115   1.600  14.711 -0.4739  0.6553 -0.2465
 8928TIP3    H148275   2.187   1.552  14.751  0.3788  0.8790 -1.4555
 8928TIP3    H248276   2.052   1.613  14.782  0.6213  0.3509  0.8052
 8929TIP3   OH248277   2.156   5.922  13.956  0.4446  1.0685 -0.1154
 8929TIP3    H148278   2.242   5.955  13.982  1.1892  0.1736 -1.3104
 8929TIP3    H248279   2.154   5.832  13.988 -0.7818  1.6122  1.4309
 8930TIP3   OH248280   6.001   1.475  15.410  0.2408 -0.0913  0.4237
 8930TIP3    H148281   6.061   1.549  15.420 -1.5104  1.2139  1.9023
 8930TIP3    H248282   5.964   1.485  15.322 -1.3465  1.9610  1.2450
 8931TIP3   OH248283   3.647   1.243  12.921  0.2691 -0.4464 -0.0694
 8931TIP3    H148284   3.574   1.180  12.919  2.1104 -2.7197 -0.2757
 8931TIP3    H248285   3.662   1.264  12.829  0.1521 -0.3234 -0.0598
 8932TIP3   OH248286   4.079   2.024  12.948  0.2902 -0.7321 -0.5145
 8932TIP3    H148287   4.098   2.078  12.871  1.1341  1.1629  0.9114
 8932TIP3    H248288   3.984   2.027  12.957  0.2244 -0.5984 -1.2537
 8933TIP3   OH248289   1.677   2.714   2.751 -0.0013  0.0706  1.1254
 8933TIP3    H148290   1.654   2.692   2.661 -0.2442  0.1778  1.1612
 8933TIP3    H248291   1.773   2.720   2.750  0.0465 -0.6887  1.0536
 8934TIP3   OH248292   4.879   3.012   5.190  0.5512  0.0138  0.1664
 8934TIP3    H148293   4.962   2.976   5.222  0.9155 -0.9277 -1.7017
 8934TIP3    H248294   4.817   2.940   5.201  0.1013  0.5102  0.9776
 8935TIP3   OH248295   3.252   1.911   4.678 -0.0061  0.0517 -0.1313
 8935TIP3    H148296   3.244   1.907   4.582  1.8391  1.7430 -0.4234
 8935TIP3    H248297   3.163   1.927   4.709 -0.4762  0.5502 -1.6525
 8936TIP3   OH248298   4.857   0.657  13.297  0.0277 -1.0507  0.3369
 8936TIP3    H148299   4.853   0.652  13.393 -0.7275 -0.1848  0.3627
 8936TIP3    H248300   4.771   0.629  13.268 -0.1429 -0.1671 -0.0332
 8937TIP3   OH248301   2.371   5.653   0.254  0.2219 -0.5439 -0.7090
 8937TIP3    H148302   2.404   5.613   0.335 -2.0770 -2.1193 -0.4536
 8937TIP3    H248303   2.310   5.721   0.284 -0.7014 -1.1902 -1.0838
 8938TIP3   OH248304   2.985   2.974   0.514  0.8548 -0.0486 -0.5464
 8938TIP3    H148305   3.028   3.031   0.449  0.4531  0.0233 -0.7521
 8938TIP3    H248306   2.947   2.904   0.461 -1.6926  1.3374 -0.7097
 8939TIP3   OH248307   5.602   2.011  15.447 -0.1106  0.6325  0.1534
 8939TIP3    H148308   5.572   1.966  15.526  0.0325 -0.5981 -0.4535
 8939TIP3    H248309   5.522   2.027  15.397 -0.1294  0.7548  0.2225
 8940TIP3   OH248310   5.254   5.386  13.799 -0.4255  0.4173  0.2543
 8940TIP3    H148311   5.231   5.475  13.774  2.1057  1.0823  0.0137
 8940TIP3    H248312   5.211   5.373  13.884 -0.6482  1.9566  0.3964
 8941TIP3   OH248313   2.356   2.824  11.241 -0.4263  0.1976 -0.4156
 8941TIP3    H148314   2.403   2.785  11.167  1.5276  1.3031  0.1439
 8941TIP3    H248315   2.360   2.759  11.310 -0.5568 -0.0884 -0.6766
 8942TIP3   OH248316   3.907   0.411  13.380 -0.1923  0.2657 -0.3834
 8942TIP3    H148317   3.970   0.356  13.334 -0.6017 -0.9223  0.4335
 8942TIP3    H248318   3.929   0.400  13.472  0.4433  2.3997 -0.2116
 8943TIP3   OH248319   1.033   5.809  16.666  0.3366  0.0665 -0.1782
 8943TIP3    H148320   1.121   5.830  16.696  0.0328  0.0839  0.7080
 8943TIP3    H248321   0.987   5.893  16.665 -0.1413 -0.1749  0.9274
 8944TIP3   OH248322   0.355   3.625  15.699 -0.1477  0.0028  0.1186
 8944TIP3    H148323   0.281   3.643  15.641 -0.0254  0.6812  0.1649
 8944TIP3    H248324   0.325   3.553  15.755 -1.1347  0.9053  0.7778
 8945TIP3   OH248325   3.616   3.127  16.339 -0.6201 -0.0088  0.2524
 8945TIP3    H148326   3.544   3.107  16.399 -0.4277  1.4626  1.0325
 8945TIP3    H248327   3.614   3.223  16.331  0.5794 -0.0321 -0.5680
 8946TIP3   OH248328   5.509   5.349  12.394 -0.0947  0.5516 -0.1538
 8946TIP3    H148329   5.487   5.337  12.487  1.4537 -4.0508 -0.0959
 8946TIP3    H248330   5.454   5.286  12.348 -0.6564  2.5611 -2.4583
 8947TIP3   OH248331   0.943   3.807   5.267  0.2962  0.1460  0.2042
 8947TIP3    H148332   0.860   3.813   5.315 -0.5734 -0.7450 -1.1366
 8947TIP3    H248333   1.008   3.841   5.329 -0.9733  0.3555  1.4911
 8948TIP3   OH248334   3.567   3.035   1.167 -0.1595  0.0197  0.1714
 8948TIP3    H148335   3.627   2.988   1.225 -0.0159  0.2899  0.2443
 8948TIP3    H248336   3.576   2.992   1.082  1.3400  1.0659 -0.2323
 8949TIP3   OH248337   1.168   1.331  13.739 -0.6096 -0.4888 -0.7574
 8949TIP3    H148338   1.100   1.309  13.803 -1.2010  0.4125 -1.0562
 8949TIP3    H248339   1.133   1.407  13.692 -0.4532 -1.4740 -2.5555
 8950TIP3   OH248340   0.514   3.943  11.694 -0.0638 -0.1713 -0.1399
 8950TIP3    H148341   0.522   3.927  11.600  0.8573 -0.5236 -0.0132
 8950TIP3    H248342   0.502   3.856  11.733 -2.4054  0.1306 -0.0843
 8951TIP3   OH248343   1.887   1.164  13.310  0.1144 -0.0118  0.2576
 8951TIP3    H148344   1.976   1.171  13.344 -0.3339 -0.8272  1.6978
 8951TIP3    H248345   1.898   1.145  13.216  1.4343  0.4322  0.3088
 8952TIP3   OH248346   1.113   3.065  11.949  0.1427  0.0897 -0.5025
 8952TIP3    H148347   1.087   3.070  11.857  1.1442 -0.1882 -0.8063
 8952TIP3    H248348   1.201   3.103  11.951  0.1448  0.0455  0.3316
 8953TIP3   OH248349   0.100   6.146   5.539 -0.3232  0.5748 -0.8881
 8953TIP3    H148350   0.074   6.224   5.491 -1.3260 -0.4272 -2.0558
 8953TIP3    H248351   0.085   6.167   5.631  3.4578  3.2470 -0.6617
 8954TIP3   OH248352   3.222   3.910  12.192  0.5819  0.1604 -0.2598
 8954TIP3    H148353   3.138   3.879  12.226  1.0297 -1.1795 -0.2868
 8954TIP3    H248354   3.201   3.949  12.107  0.2041 -2.0133 -1.2343
 8955TIP3   OH248355   2.733   6.089   0.527 -0.2628 -0.1452 -0.0777
 8955TIP3    H148356   2.751   6.146   0.453 -0.7942  0.2110  0.0601
 8955TIP3    H248357   2.716   6.003   0.487 -2.1794  0.3946 -0.5318
 8956TIP3   OH248358   0.480   0.145  14.198 -0.0482  0.6949 -0.1397
 8956TIP3    H148359   0.517   0.118  14.114 -1.0542  1.2472 -0.7705
 8956TIP3    H248360   0.466   0.063  14.246 -2.4714  0.0599 -1.7764
 8957TIP3   OH248361   6.330   3.625  16.315  0.4489 -0.3745 -0.3999
 8957TIP3    H148362   6.309   3.678  16.238  0.7241  0.0462 -0.1904
 8957TIP3    H248363   6.403   3.569  16.286  1.6482  0.9164  0.0099
 8958TIP3   OH248364   2.584   4.254  13.447  0.7937 -0.1349  0.1272
 8958TIP3    H148365   2.574   4.165  13.414  1.3723 -0.3759  0.5835
 8958TIP3    H248366   2.529   4.257  13.526  1.2837 -0.2980  0.4833
 8959TIP3   OH248367   0.179   6.511  13.612 -0.6254  0.2240  0.0876
 8959TIP3    H148368   0.146   6.579  13.553 -0.5869  1.1426  1.0974
 8959TIP3    H248369   0.140   6.430  13.578  0.6639  0.4545 -2.1651
 8960TIP3   OH248370   0.563   1.437  14.907 -0.3887 -0.1002  0.4874
 8960TIP3    H148371   0.496   1.443  14.974  0.0489 -1.1608  1.0369
 8960TIP3    H248372   0.583   1.344  14.900  0.3951  0.1045 -0.2974
 8961TIP3   OH248373   1.417   3.871  15.311 -0.5067 -0.6145 -0.3192
 8961TIP3    H148374   1.328   3.858  15.277 -0.0256  0.4880 -2.1310
 8961TIP3    H248375   1.436   3.963  15.293 -0.0250 -0.0041  2.7044
 8962TIP3   OH248376   1.954   0.681   2.157  0.3270 -0.3904  0.3345
 8962TIP3    H148377   1.911   0.703   2.239  1.5759  1.4166  0.5500
 8962TIP3    H248378   2.022   0.618   2.181  0.2837 -0.3364  0.5970
 8963TIP3   OH248379   1.114   1.144  15.153 -0.3805 -0.2961 -0.0466
 8963TIP3    H148380   1.161   1.157  15.235  1.0109  0.4039 -0.9156
 8963TIP3    H248381   1.147   1.060  15.119 -1.3286 -0.8385  0.3285
 8964TIP3   OH248382   2.569   6.510   0.539  0.1447  0.1544 -0.3725
 8964TIP3    H148383   2.515   6.455   0.596  0.5660 -0.7428 -0.8211
 8964TIP3    H248384   2.591   6.586   0.593  0.1479 -0.4591  0.5128
 8965TIP3   OH248385   1.422   5.355   4.527 -0.2921 -0.0911 -0.1007
 8965TIP3    H148386   1.372   5.425   4.484  1.0487 -0.6637 -2.7956
 8965TIP3    H248387   1.398   5.276   4.478  1.5523 -0.7423 -0.0087
 8966TIP3   OH248388   1.921   5.074  13.387  0.1432  0.7906  0.6575
 8966TIP3    H148389   1.837   5.119  13.400 -0.6327 -0.3834 -0.0635
 8966TIP3    H248390   1.929   5.017  13.463 -0.7910 -0.6591 -0.2774
 8967TIP3   OH248391   0.654   5.514   4.437 -0.0431  0.4194 -0.0183
 8967TIP3    H148392   0.721   5.557   4.490  0.3764  0.0202 -0.2133
 8967TIP3    H248393   0.697   5.498   4.352 -0.5218  0.5476 -0.2900
 8968TIP3   OH248394   1.000   5.863   2.560  0.2977  0.5550 -0.4103
 8968TIP3    H148395   1.014   5.947   2.603  1.4289  1.3564 -2.2178
 8968TIP3    H248396   1.078   5.812   2.582 -0.1743  0.1239  0.3063
 8969TIP3   OH248397   3.176   5.517  15.388 -0.5523  0.0129  0.2827
 8969TIP3    H148398   3.232   5.484  15.459 -2.1305  0.9026  2.0393
 8969TIP3    H248399   3.124   5.442  15.361  1.5495 -0.8836 -1.5276
 8970TIP3   OH248400   5.079   6.499  11.027 -0.2396  0.3868 -0.3877
 8970TIP3    H148401   5.158   6.448  11.045  1.3168  3.2199  1.8682
 8970TIP3    H248402   5.085   6.522  10.935  1.0969 -0.2376 -0.4772
 8971TIP3   OH248403   2.532   4.916  12.388  0.2468 -0.3163  0.2833
 8971TIP3    H148404   2.446   4.935  12.424  0.3462 -0.0955  0.4030
 8971TIP3    H248405   2.529   4.950  12.298  0.6344  0.8453  0.6959
 8972TIP3   OH248406   1.308   1.645  14.174 -0.2475 -0.0209 -0.8266
 8972TIP3    H148407   1.286   1.630  14.266  0.1893  0.5346 -0.6263
 8972TIP3    H248408   1.352   1.564  14.147  1.4516  0.5670  0.0400
 8973TIP3   OH248409   4.696   1.077   3.757 -0.3857  0.5285  0.3523
 8973TIP3    H148410   4.773   1.020   3.763 -0.0792  0.9692  0.7675
 8973TIP3    H248411   4.642   1.052   3.832 -0.5353  0.3836  0.1976
 8974TIP3   OH248412   5.978   3.518   0.198  1.0194  0.7025  0.2456
 8974TIP3    H148413   5.942   3.599   0.162  1.8572  1.0648  0.2033
 8974TIP3    H248414   6.071   3.535   0.207  1.0791  0.0261  1.0109
 8975TIP3   OH248415   4.955   4.825  14.976 -0.7384  0.7069  0.4296
 8975TIP3    H148416   5.025   4.804  15.038 -0.1194  0.4940 -0.3407
 8975TIP3    H248417   4.879   4.776  15.009  0.3740 -1.9572 -0.6882
 8976TIP3   OH248418   1.985   6.272   1.732 -0.1017 -0.7453 -0.3679
 8976TIP3    H148419   1.972   6.323   1.652 -2.0589 -0.0071  0.3611
 8976TIP3    H248420   1.899   6.235   1.750  0.8286 -2.7201  0.2199
 8977TIP3   OH248421   3.819   1.104  12.375  0.3683 -0.1379  0.0743
 8977TIP3    H148422   3.826   1.117  12.280 -1.5411 -1.3008 -0.2876
 8977TIP3    H248423   3.890   1.044  12.396  0.0171 -0.9134 -0.8765
 8978TIP3   OH248424   4.682   2.005   1.992 -0.0020  0.0144  0.6730
 8978TIP3    H148425   4.653   1.937   1.931 -0.4037  1.8888 -1.3543
 8978TIP3    H248426   4.777   2.000   1.991  0.0249  0.4037 -0.6469
 8979TIP3   OH248427   4.115   1.380   4.085  0.3805  0.5704 -0.8651
 8979TIP3    H148428   4.055   1.446   4.049  1.2412  2.2768  0.6123
 8979TIP3    H248429   4.165   1.428   4.151  1.5222 -1.4531 -0.1797
 8980TIP3   OH248430   4.721   2.709   3.982 -0.5057  0.3187  0.4883
 8980TIP3    H148431   4.725   2.803   3.962  1.7188 -0.1676 -1.8338
 8980TIP3    H248432   4.630   2.685   3.965 -1.7575  2.3912  3.3896
 8981TIP3   OH248433   6.056   2.747  12.205  0.0081 -0.4545 -0.2571
 8981TIP3    H148434   6.099   2.750  12.290 -0.1649  2.4814 -0.1886
 8981TIP3    H248435   6.018   2.659  12.200 -1.0960 -0.2825  3.2304
 8982TIP3   OH248436   5.219   1.090   4.488  0.1023  0.1533  0.3165
 8982TIP3    H148437   5.274   1.146   4.433 -0.6060 -0.8720 -1.5071
 8982TIP3    H248438   5.232   1.002   4.455 -1.9088 -0.2460  0.4256
 8983TIP3   OH248439   3.306   0.323   1.942  0.3150  0.2794 -0.1383
 8983TIP3    H148440   3.384   0.287   1.985  0.0798  0.1570  0.1903
 8983TIP3    H248441   3.291   0.407   1.987 -0.4756 -0.2773  0.6598
 8984TIP3   OH248442   2.664   3.331   1.836  0.0107 -0.0412 -0.0465
 8984TIP3    H148443   2.715   3.251   1.849  0.5288  0.0587 -1.3968
 8984TIP3    H248444   2.720   3.401   1.870 -0.5928 -0.2439  1.4837
 8985TIP3   OH248445   0.217   2.814   1.281  0.0479  0.1203  0.0382
 8985TIP3    H148446   0.223   2.723   1.253  0.9311 -0.0328  0.6743
 8985TIP3    H248447   0.127   2.840   1.262 -0.4244 -1.1096  0.5412
 8986TIP3   OH248448   3.184   1.566   1.285 -0.1703 -0.1030 -0.4258
 8986TIP3    H148449   3.096   1.529   1.275 -0.8203  1.0039  0.7779
 8986TIP3    H248450   3.239   1.492   1.308 -0.8327 -0.7824 -0.9789
 8987TIP3   OH248451   0.979   0.798   5.508 -0.1190 -1.1759 -0.4803
 8987TIP3    H148452   0.988   0.843   5.424 -1.4629 -2.2572 -1.2411
 8987TIP3    H248453   0.885   0.784   5.518  0.2349 -3.8442 -0.3245
 8988TIP3   OH248454   1.504   5.756   0.300  0.2049  0.4334 -0.1006
 8988TIP3    H148455   1.463   5.812   0.366  2.5426 -0.5480  2.4207
 8988TIP3    H248456   1.561   5.815   0.251 -1.3736  1.1383 -1.1341
 8989TIP3   OH248457   6.416   4.105   3.995  0.1935  0.1365  0.1052
 8989TIP3    H148458   6.350   4.040   3.972 -1.3163  1.1031  1.4793
 8989TIP3    H248459   6.365   4.184   4.016  1.6789  0.5410  2.5230
 8990TIP3   OH248460   6.161   5.191  16.158  0.1873 -0.4396  0.0847
 8990TIP3    H148461   6.127   5.107  16.189 -1.4720 -0.1534 -0.8578
 8990TIP3    H248462   6.098   5.256  16.191  1.5220  0.4857  0.9282
 8991TIP3   OH248463   0.172   2.832  14.937  0.0211  0.9155  0.4138
 8991TIP3    H148464   0.134   2.827  15.025  0.9961  1.9175  0.9203
 8991TIP3    H248465   0.250   2.778  14.941 -0.2537  0.4722 -0.0329
 8992TIP3   OH248466   1.064   5.781  14.170 -0.2748  0.4070 -0.0124
 8992TIP3    H148467   1.027   5.817  14.089 -0.4175 -0.2376 -0.2393
 8992TIP3    H248468   1.045   5.687  14.165  1.6105  0.0032 -0.2591
 8993TIP3   OH248469   0.585   5.685  12.853  0.6661 -0.3157 -0.3386
 8993TIP3    H148470   0.651   5.626  12.888  2.0922  2.0085  1.2254
 8993TIP3    H248471   0.597   5.766  12.903 -1.7532  1.0267 -1.7260
 8994TIP3   OH248472   5.552   1.416   0.829  0.3923  0.2262 -0.4403
 8994TIP3    H148473   5.560   1.357   0.903 -0.7365  1.6256  0.8474
 8994TIP3    H248474   5.641   1.423   0.794  1.2023  0.5021  1.5667
 8995TIP3   OH248475   2.473   4.391   6.550  0.1946  0.1465  0.1796
 8995TIP3    H148476   2.546   4.385   6.488  2.3055  0.9844  2.4306
 8995TIP3    H248477   2.419   4.462   6.516  1.6178  1.0004 -0.3823
 8996TIP3   OH248478   5.080   2.137  15.326  0.3277  0.5108  0.1290
 8996TIP3    H148479   5.070   2.093  15.411 -0.9581  1.4010  0.4742
 8996TIP3    H248480   5.119   2.221  15.348 -0.6932  1.0425 -0.0632
 8997TIP3   OH248481   5.950   5.149   3.366 -0.2869  0.2571  0.4160
 8997TIP3    H148482   6.015   5.086   3.335 -0.5779 -0.2487  0.8096
 8997TIP3    H248483   5.992   5.234   3.356  0.2307 -0.0217  0.1714
 8998TIP3   OH248484   4.451   6.821  14.621 -0.4729  0.4853 -0.0648
 8998TIP3    H148485   4.467   6.753  14.556 -0.9531  0.0672  0.2532
 8998TIP3    H248486   4.358   6.841  14.612 -0.3424  1.0769 -0.1330
 8999TIP3   OH248487   2.681   2.193  17.079  0.2735 -0.5037 -0.7444
 8999TIP3    H148488   2.740   2.268  17.082 -1.1055  0.5942  0.3566
 8999TIP3    H248489   2.714   2.135  17.148 -0.4906  0.5796  0.5759
 9000TIP3   OH248490   4.357   0.225   0.116 -0.0008  0.1779  0.5719
 9000TIP3    H148491   4.333   0.296   0.057 -2.1452 -0.0229  1.1140
 9000TIP3    H248492   4.327   0.146   0.071 -0.7933 -0.0580  1.4799
 9001TIP3   OH248493   6.623   5.451   0.185 -0.1363 -0.1578  0.2527
 9001TIP3    H148494   6.592   5.381   0.127  1.0936 -0.4490 -0.0785
 9001TIP3    H248495   6.662   5.515   0.125  1.0066 -0.3883  0.7222
 9002TIP3   OH248496   0.839   6.070   4.074 -0.1209  0.1593  0.1310
 9002TIP3    H148497   0.855   6.148   4.021 -1.9238 -0.5777 -1.6127
 9002TIP3    H248498   0.743   6.064   4.079  0.0009 -1.0470  1.6197
 9003TIP3   OH248499   0.284   1.516   3.536 -0.2325  0.4524 -0.4349
 9003TIP3    H148500   0.221   1.562   3.481 -1.3614  0.1388  0.5673
 9003TIP3    H248501   0.322   1.584   3.592  1.9313  1.0286 -2.4350
 9004TIP3   OH248502   6.788   0.049   4.738 -1.1415 -0.1153 -0.1565
 9004TIP3    H148503   6.829   0.009   4.814  0.1033  0.4863 -0.4807
 9004TIP3    H248504   6.808  -0.011   4.666 -0.1912  0.5315 -0.4458
 9005TIP3   OH248505   6.757   2.932  13.342  0.1310  0.4850  0.0594
 9005TIP3    H148506   6.812   2.860  13.311 -0.9623 -0.3145 -0.0770
 9005TIP3    H248507   6.779   3.006  13.285  1.3873  0.3363  0.3078
 9006TIP3   OH248508   5.037   1.964  11.317  0.2538  0.5323  0.3102
 9006TIP3    H148509   5.022   2.057  11.332  1.5186  0.7248  0.4630
 9006TIP3    H248510   5.126   1.948  11.349  0.1196 -0.6913  0.1229
 9007TIP3   OH248511   2.451   5.845   5.939  0.0555 -0.5151 -0.0880
 9007TIP3    H148512   2.432   5.757   5.907 -1.9644 -1.1036  2.4329
 9007TIP3    H248513   2.432   5.842   6.033 -0.1453  2.6105  0.0915
 9008TIP3   OH248514   6.408   3.729   3.582  0.5401  0.2193 -0.2220
 9008TIP3    H148515   6.405   3.823   3.602  0.5642  0.0366  0.6939
 9008TIP3    H248516   6.325   3.712   3.537  0.2853  0.5820  0.0992
 9009TIP3   OH248517   1.801   1.594  14.086 -0.5794 -0.7255  0.0275
 9009TIP3    H148518   1.768   1.508  14.060  0.4419 -0.3781 -2.7513
 9009TIP3    H248519   1.745   1.656  14.039  0.4124  0.0294 -0.1902
 9010TIP3   OH248520   3.182   4.776   1.643 -0.4097  0.0378  0.0620
 9010TIP3    H148521   3.118   4.736   1.583  0.4862 -1.5190  0.0894
 9010TIP3    H248522   3.195   4.864   1.608 -0.5799 -0.5329 -1.5253
 9011TIP3   OH248523   0.844   5.716   5.341 -0.1721 -0.7256 -0.2090
 9011TIP3    H148524   0.925   5.680   5.305  0.1603 -0.8762  0.6559
 9011TIP3    H248525   0.842   5.806   5.310  2.0297  0.3376  2.3285
 9012TIP3   OH248526   5.141   1.041  13.561  0.1441  0.4507 -0.0288
 9012TIP3    H148527   5.173   1.071  13.646 -0.3554  0.9645 -0.0223
 9012TIP3    H248528   5.190   1.094  13.497 -2.0295  2.6617  0.0044
 9013TIP3   OH248529   0.808   0.622  16.272  0.2644  0.5910  0.1759
 9013TIP3    H148530   0.781   0.572  16.195  0.5071  0.5911  0.0911
 9013TIP3    H248531   0.760   0.581  16.345 -0.1262  0.7237 -0.0006
 9014TIP3   OH248532   2.491   3.478  15.675 -0.5716 -0.5016 -0.5171
 9014TIP3    H148533   2.465   3.565  15.705 -1.5449 -0.5320 -1.2348
 9014TIP3    H248534   2.586   3.475  15.690 -0.4144  0.9086 -1.0336
 9015TIP3   OH248535   5.555   1.401  14.601 -0.0926  0.4149  0.1198
 9015TIP3    H148536   5.598   1.477  14.562  0.1795  0.1457 -0.1082
 9015TIP3    H248537   5.533   1.429  14.690  3.0708 -0.3186  1.2671
 9016TIP3   OH248538   1.533   1.664   6.046 -0.6980 -0.3740  0.4038
 9016TIP3    H148539   1.553   1.713   6.125 -0.3770  0.6974 -0.3202
 9016TIP3    H248540   1.617   1.656   6.000 -1.3007  1.4097 -1.1333
 9017TIP3   OH248541   5.414   2.842   5.682 -0.6362 -0.1325  0.1083
 9017TIP3    H148542   5.402   2.906   5.752  1.5367 -0.0877  0.4918
 9017TIP3    H248543   5.360   2.767   5.709  0.2547 -0.1757  1.9262
 9018TIP3   OH248544   1.856   3.329   4.401 -0.0187 -0.3326 -0.2831
 9018TIP3    H148545   1.801   3.322   4.323  0.9899 -0.8598 -0.9730
 9018TIP3    H248546   1.850   3.243   4.442 -1.1813  0.1869  0.6822
 9019TIP3   OH248547   2.812   2.281  12.526 -0.3411 -0.5231 -0.0240
 9019TIP3    H148548   2.870   2.346  12.486  0.4904 -0.8899  0.5573
 9019TIP3    H248549   2.727   2.326  12.533 -0.0729  0.1078 -0.6590
 9020TIP3   OH248550   5.845   5.224   0.823  0.9607  0.1585 -0.4678
 9020TIP3    H148551   5.763   5.264   0.793  1.9083  1.6704 -1.1536
 9020TIP3    H248552   5.827   5.198   0.914 -0.3460  0.2279 -0.6937
 9021TIP3   OH248553   5.335   2.541   3.375 -0.6623 -0.1919 -0.2228
 9021TIP3    H148554   5.316   2.447   3.381  1.7081 -0.7024  0.4138
 9021TIP3    H248555   5.394   2.548   3.300  0.9901  0.3886  1.0522
 9022TIP3   OH248556   3.206   5.789  14.057  0.1540 -0.3068  0.6844
 9022TIP3    H148557   3.127   5.836  14.084 -0.3310 -1.3737  1.1759
 9022TIP3    H248558   3.177   5.731  13.987  0.2862 -1.3362  1.4522
 9023TIP3   OH248559   4.155   4.045  14.941 -0.5047 -0.6528  0.8496
 9023TIP3    H148560   4.069   4.012  14.914 -1.0373  2.3957 -1.7323
 9023TIP3    H248561   4.215   3.973  14.922 -2.3363 -2.5958  2.0276
 9024TIP3   OH248562   1.913   0.164   0.565  0.1911 -0.9047  0.2071
 9024TIP3    H148563   1.898   0.229   0.634  1.4501  2.3847 -2.3496
 9024TIP3    H248564   2.008   0.157   0.560  0.2381  0.2341 -2.1302
 9025TIP3   OH248565   4.348   3.467   1.427  0.3313  0.2889 -0.3220
 9025TIP3    H148566   4.298   3.480   1.346  1.4485  1.0558 -0.8993
 9025TIP3    H248567   4.298   3.399   1.474 -0.8150  0.4566 -1.2334
 9026TIP3   OH248568   3.781   3.529  12.032  0.1528  0.7535  0.3958
 9026TIP3    H148569   3.688   3.503  12.035  0.1212  0.8355  0.1489
 9026TIP3    H248570   3.807   3.513  11.942 -0.1315  2.4934 -0.0330
 9027TIP3   OH248571   1.687   1.972   2.668  0.2551 -0.5272  0.1910
 9027TIP3    H148572   1.752   1.921   2.717  0.2571 -0.0075  0.7434
 9027TIP3    H248573   1.635   2.015   2.736 -0.2767 -0.4502 -0.2588
 9028TIP3   OH248574   0.496   4.940   4.304  0.7553  0.8127 -0.1904
 9028TIP3    H148575   0.487   4.847   4.324  1.0212  1.1525  1.8106
 9028TIP3    H248576   0.428   4.958   4.239 -0.2570 -0.5051  0.4477
 9029TIP3   OH248577   2.479   5.896  14.002 -0.3371  0.2140  0.3934
 9029TIP3    H148578   2.448   5.828  14.062  0.9815 -0.2804  0.5517
 9029TIP3    H248579   2.517   5.847  13.928  2.2960  0.6774  1.3523
 9030TIP3   OH248580   4.791   5.899  14.470  0.2236  0.1586  0.1270
 9030TIP3    H148581   4.852   5.950  14.417 -0.3336  0.0267 -0.6543
 9030TIP3    H248582   4.779   5.818  14.421  0.5896 -0.4625  1.0361
 9031TIP3   OH248583   0.710   1.950  13.779  0.6729  0.5316  0.0176
 9031TIP3    H148584   0.760   1.991  13.849  0.5951 -0.4090  0.6365
 9031TIP3    H248585   0.663   1.878  13.821 -0.8064  1.0704 -0.6509
 9032TIP3   OH248586   4.347   5.036  14.196 -0.3735 -0.9114 -0.3967
 9032TIP3    H148587   4.387   5.102  14.252  0.0940 -1.9487  0.5272
 9032TIP3    H248588   4.384   5.052  14.110  0.3452 -0.4648 -0.0163
 9033TIP3   OH248589   0.210   3.231  11.078  0.1873  0.2470  0.0273
 9033TIP3    H148590   0.153   3.187  11.141  1.0340 -2.0954 -0.7248
 9033TIP3    H248591   0.279   3.271  11.131 -1.0252  1.3722  0.7919
 9034TIP3   OH248592   6.646   4.077  16.463 -0.5879  0.3595  0.2064
 9034TIP3    H148593   6.637   4.118  16.549 -2.5770  0.8846 -0.1891
 9034TIP3    H248594   6.672   4.149  16.406 -2.1288  0.7063 -0.1192
 9035TIP3   OH248595   4.795   3.514   5.449 -0.0745 -0.0192  0.1570
 9035TIP3    H148596   4.793   3.420   5.465 -0.5898  0.0576  0.6131
 9035TIP3    H248597   4.847   3.549   5.522  2.0514 -0.1502 -1.2313
 9036TIP3   OH248598   6.682   1.856   1.854  0.0183 -0.0826  0.5029
 9036TIP3    H148599   6.643   1.807   1.927  2.6763 -0.9273  1.4499
 9036TIP3    H248600   6.731   1.927   1.896 -0.2445  0.8191 -0.6462
 9037TIP3   OH248601   3.063   4.591  12.335 -0.8504  0.2850  0.0412
 9037TIP3    H148602   3.057   4.550  12.249 -0.1906 -0.9019  0.5324
 9037TIP3    H248603   2.974   4.587  12.370 -1.2026  1.1012 -0.6980
 9038TIP3   OH248604   5.546   1.867   2.394  0.2209 -0.4610  0.4280
 9038TIP3    H148605   5.539   1.798   2.328 -0.1193  0.8428 -0.9644
 9038TIP3    H248606   5.526   1.948   2.347  1.1228  0.6742  1.8762
 9039TIP3   OH248607   6.524   5.653   1.985 -0.0817 -0.1081 -0.2785
 9039TIP3    H148608   6.517   5.558   1.980  2.5964 -0.4216  0.1698
 9039TIP3    H248609   6.455   5.686   1.927 -0.6002 -2.3423 -1.0160
 9040TIP3   OH248610   4.038   1.364  13.990 -1.0524  0.2995  0.1166
 9040TIP3    H148611   4.084   1.431  13.940 -0.5791 -1.1372 -1.4773
 9040TIP3    H248612   4.090   1.355  14.070 -0.4525  1.0111 -0.1784
 9041TIP3   OH248613   0.784   5.809  16.014  0.0145  0.2192 -0.2560
 9041TIP3    H148614   0.868   5.840  16.048  0.0009 -0.1667  0.1337
 9041TIP3    H248615   0.718   5.845  16.074 -0.0393 -0.1198 -0.1084
 9042TIP3   OH248616   2.566   5.973   1.201 -0.7081  0.1802 -0.0234
 9042TIP3    H148617   2.573   6.052   1.254  0.9221  0.9890 -1.3462
 9042TIP3    H248618   2.516   5.999   1.123 -0.6383 -0.2332 -0.2137
 9043TIP3   OH248619   3.828   6.211  16.055 -0.4682 -0.6201  0.0125
 9043TIP3    H148620   3.831   6.140  15.991 -0.4536  0.4354 -1.1927
 9043TIP3    H248621   3.778   6.281  16.012 -0.2071  0.2413  1.0418
 9044TIP3   OH248622   1.630   6.339  12.380  0.2706  0.5440  0.2413
 9044TIP3    H148623   1.693   6.350  12.309  0.8011  0.0731  0.6344
 9044TIP3    H248624   1.605   6.428  12.404 -0.6784  0.7022 -1.1977
 9045TIP3   OH248625   2.991   2.107   0.195  0.1204  0.1032 -0.0519
 9045TIP3    H148626   2.923   2.172   0.211  1.3056  2.2016 -2.6601
 9045TIP3    H248627   3.048   2.112   0.271  0.4111  2.5541 -0.3345
 9046TIP3   OH248628   4.741   1.127   4.425  0.5521 -0.2764  0.5806
 9046TIP3    H148629   4.695   1.043   4.418 -0.8546  0.4558  0.8687
 9046TIP3    H248630   4.762   1.150   4.334  1.4084 -1.1605  0.5274
 9047TIP3   OH248631   1.117   0.424  15.284  0.5103  0.2200 -0.4621
 9047TIP3    H148632   1.034   0.451  15.245  0.0171  1.1651  1.1324
 9047TIP3    H248633   1.181   0.488  15.251  0.3495  0.2682 -0.6813
 9048TIP3   OH248634   5.440   1.700  10.878  0.2355 -0.3145  0.2598
 9048TIP3    H148635   5.500   1.651  10.934  0.4236 -0.6329 -0.2193
 9048TIP3    H248636   5.489   1.777  10.851  0.0537 -0.0230  0.7420
 9049TIP3   OH248637   5.280   4.520   5.395  0.5349  0.1579 -0.7926
 9049TIP3    H148638   5.247   4.600   5.436 -0.2785 -0.8937  0.7230
 9049TIP3    H248639   5.203   4.480   5.354  0.6323 -0.5511 -0.3055
 9050TIP3   OH248640   3.125   5.762  12.502  0.3369 -0.3534  0.0304
 9050TIP3    H148641   3.198   5.718  12.545 -0.1628  0.1639  1.4669
 9050TIP3    H248642   3.074   5.801  12.573 -0.5557  0.5150 -1.0263
 9051TIP3   OH248643   4.205   3.365  12.585 -0.3809  0.6518  0.5763
 9051TIP3    H148644   4.128   3.402  12.628 -0.1693  2.1096 -0.2270
 9051TIP3    H248645   4.189   3.379  12.491  0.4041  0.0494  0.3428
 9052TIP3   OH248646   3.205   0.591   5.483 -0.2807 -0.0573  0.4278
 9052TIP3    H148647   3.177   0.549   5.564 -0.4880  0.4599  0.6284
 9052TIP3    H248648   3.275   0.535   5.450 -1.6082 -1.4526 -0.1455
 9053TIP3   OH248649   2.411   3.707   3.616 -0.0831  0.3991 -0.0109
 9053TIP3    H148650   2.395   3.711   3.710  1.1629  3.0007  0.1941
 9053TIP3    H248651   2.435   3.797   3.592  0.2793 -0.3188 -2.6984
 9054TIP3   OH248652   3.489   4.105  10.733  0.5145 -0.0204 -0.8136
 9054TIP3    H148653   3.473   4.088  10.640 -1.7896  1.2894 -0.7250
 9054TIP3    H248654   3.443   4.034  10.779  0.5982  0.0298 -0.6501
 9055TIP3   OH248655   3.378   0.170   3.434  0.1157  0.7180  0.3014
 9055TIP3    H148656   3.412   0.195   3.348  0.7397 -1.2875 -0.0924
 9055TIP3    H248657   3.309   0.233   3.452 -0.7789  0.5551 -2.1709
 9056TIP3   OH248658   2.811   5.312  12.007 -0.1854  0.2281 -0.2267
 9056TIP3    H148659   2.826   5.385  11.948 -3.2062  0.2929 -1.1241
 9056TIP3    H248660   2.776   5.243  11.951  0.5097 -1.1154  0.9329
 9057TIP3   OH248661   0.881   4.061  14.047 -0.2478 -0.3821 -0.0603
 9057TIP3    H148662   0.798   4.088  14.006 -0.0840  1.7130  0.8522
 9057TIP3    H248663   0.948   4.107  13.996  0.2865 -1.1650 -0.0806
 9058TIP3   OH248664   4.972   0.313  13.687 -0.2791 -0.2914  0.6006
 9058TIP3    H148665   4.913   0.378  13.649  0.1435  0.8405  1.7908
 9058TIP3    H248666   4.969   0.240  13.626 -0.5397  0.9576 -0.9668
 9059TIP3   OH248667   2.890   3.976  15.073  0.6528  0.6166  0.1206
 9059TIP3    H148668   2.852   4.046  15.020  1.0411  1.5512  1.0315
 9059TIP3    H248669   2.969   3.949  15.026  0.2725  0.4985 -0.4478
 9060TIP3   OH248670   5.268   1.536   4.010 -0.0798  1.3132 -0.1893
 9060TIP3    H148671   5.220   1.527   4.092 -1.2298  1.0797 -0.8606
 9060TIP3    H248672   5.203   1.570   3.948  0.7011  1.2672 -1.0605
 9061TIP3   OH248673   4.380   3.067  14.681  0.1113  0.1664 -0.4541
 9061TIP3    H148674   4.349   3.153  14.652  0.9129  0.8428  0.6220
 9061TIP3    H248675   4.379   3.073  14.776  1.2609 -0.6268 -0.3818
 9062TIP3   OH248676   6.093   6.331   1.244  0.6445  0.1588  0.2089
 9062TIP3    H148677   6.073   6.295   1.158 -0.0029 -0.6104  0.6693
 9062TIP3    H248678   6.189   6.329   1.249  0.6730 -0.0379 -0.3825
 9063TIP3   OH248679   0.091   5.979   1.370 -0.2671 -0.5470  0.5627
 9063TIP3    H148680   0.128   5.891   1.372 -0.3433 -0.5690  1.8053
 9063TIP3    H248681   0.146   6.027   1.307  0.0252 -1.3669  0.1856
 9064TIP3   OH248682   4.298   4.516   2.546 -0.2954 -0.0314 -0.0458
 9064TIP3    H148683   4.341   4.464   2.613 -1.0289  1.7178  1.9134
 9064TIP3    H248684   4.209   4.482   2.542 -0.4737  0.3460  0.4810
 9065TIP3   OH248685   2.400   5.129   4.314 -0.3777  0.3142 -0.2139
 9065TIP3    H148686   2.417   5.062   4.380  2.2262 -1.2933 -2.3307
 9065TIP3    H248687   2.475   5.188   4.321 -0.1113  0.1722 -1.6075
 9066TIP3   OH248688   0.282   0.430  16.468 -0.5289 -1.0982 -0.4869
 9066TIP3    H148689   0.311   0.358  16.411  1.7396 -1.2637  0.7919
 9066TIP3    H248690   0.344   0.500  16.451 -0.4360 -0.7894  1.0064
 9067TIP3   OH248691   1.923   0.664   2.999 -0.6755  0.1458  0.4517
 9067TIP3    H148692   1.962   0.588   3.041  2.5250  0.5293 -1.4882
 9067TIP3    H248693   1.880   0.711   3.071 -2.1384 -2.9950  1.8222
 9068TIP3   OH248694   3.012   4.969  13.586 -0.5111 -0.0463 -0.4009
 9068TIP3    H148695   3.075   5.038  13.567 -1.8329  0.8390 -1.7453
 9068TIP3    H248696   3.041   4.894  13.533  0.2623 -0.1724  0.1761
 9069TIP3   OH248697   1.205   5.313  16.969  0.1552  0.3541 -0.2355
 9069TIP3    H148698   1.272   5.353  17.024  1.4623 -0.2221 -1.3735
 9069TIP3    H248699   1.251   5.246  16.919 -1.2352  0.0769 -1.2046
 9070TIP3   OH248700   1.612   0.192  13.464 -0.4016 -0.2912 -0.7623
 9070TIP3    H148701   1.694   0.241  13.474  0.8232 -2.3754 -0.1665
 9070TIP3    H248702   1.638   0.110  13.423 -2.2370 -0.9237 -0.7195
 9071TIP3   OH248703   3.661   5.455  12.284  0.2328 -0.0470 -0.3003
 9071TIP3    H148704   3.636   5.456  12.377 -0.3563 -1.4705 -0.4062
 9071TIP3    H248705   3.582   5.484  12.238 -0.2887 -1.5892 -0.4569
 9072TIP3   OH248706   0.027   1.343   1.437  0.4014 -0.2402  0.2611
 9072TIP3    H148707  -0.012   1.314   1.520  1.7371 -2.4857  0.1824
 9072TIP3    H248708   0.031   1.263   1.384  5.0817 -0.3065  0.3135
 9073TIP3   OH248709   5.672   0.960  13.308 -0.4511 -0.1051 -0.3341
 9073TIP3    H148710   5.609   0.972  13.236 -0.2962  0.8134 -0.3271
 9073TIP3    H248711   5.699   1.049  13.331 -0.1486 -0.4213  0.5565
 9074TIP3   OH248712   0.946   0.745  16.834 -0.3082  0.6026 -0.1457
 9074TIP3    H148713   0.882   0.777  16.898 -0.0203 -0.9330  0.9704
 9074TIP3    H248714   0.943   0.809  16.764 -2.5202  1.0114  0.2266
 9075TIP3   OH248715   0.174   2.618  14.212  0.1853  0.1571  0.2773
 9075TIP3    H148716   0.197   2.530  14.243 -1.3949 -0.1461  0.6763
 9075TIP3    H248717   0.245   2.674  14.244  2.0425 -1.1702 -1.2897
 9076TIP3   OH248718   1.556   4.496   2.679  0.2429  0.1482  0.3894
 9076TIP3    H148719   1.488   4.429   2.687 -0.4606  0.9828  2.1693
 9076TIP3    H248720   1.517   4.562   2.620 -0.2635  0.3142  0.8910
 9077TIP3   OH248721   6.484   4.630  15.810  0.3797  0.3400 -0.6432
 9077TIP3    H148722   6.394   4.636  15.843  0.2396 -0.2778 -0.9133
 9077TIP3    H248723   6.535   4.600  15.885  0.0760 -0.9643 -0.9341
 9078TIP3   OH248724   5.479   2.125  14.479 -0.0659 -0.3630  0.1039
 9078TIP3    H148725   5.403   2.116  14.422 -0.5839  0.2141  0.6858
 9078TIP3    H248726   5.443   2.152  14.563  0.8247  0.3816  0.2647
 9079TIP3   OH248727   4.853   1.921  13.297  0.0498 -0.1275 -0.4199
 9079TIP3    H148728   4.788   1.904  13.229 -0.9251 -0.2875  0.5225
 9079TIP3    H248729   4.871   2.014  13.291  1.3399 -0.4371 -2.0609
 9080TIP3   OH248730   3.999   1.229   2.356 -0.6490  0.0829  0.1775
 9080TIP3    H148731   4.021   1.153   2.303  1.6528  0.6012  0.2977
 9080TIP3    H248732   4.022   1.304   2.301 -0.4134  0.6561  1.0365
 9081TIP3   OH248733   2.304   2.661   2.615  0.0681 -0.0812  0.1902
 9081TIP3    H148734   2.235   2.611   2.571  0.5511 -0.3424 -0.2753
 9081TIP3    H248735   2.306   2.744   2.569  0.2029 -0.1522  0.0656
 9082TIP3   OH248736   4.347   3.386   4.059  0.0780 -0.0577  0.1475
 9082TIP3    H148737   4.281   3.442   4.019  1.3810  0.7656 -0.9341
 9082TIP3    H248738   4.297   3.314   4.097 -1.4655  0.7400 -0.2777
 9083TIP3   OH248739   2.247   2.748   2.096 -0.0311  0.3488  0.3081
 9083TIP3    H148740   2.332   2.789   2.079 -0.3649  1.0182  0.2039
 9083TIP3    H248741   2.185   2.800   2.045 -0.6869  0.7210  1.4520
 9084TIP3   OH248742   2.174   3.775  11.471  0.5040 -0.1156  0.1055
 9084TIP3    H148743   2.103   3.834  11.444  0.8321 -0.0077 -0.5687
 9084TIP3    H248744   2.236   3.778  11.397  1.1362 -0.3188  0.6161
 9085TIP3   OH248745   2.214   6.465   3.909  1.2108 -0.3706 -0.0498
 9085TIP3    H148746   2.223   6.417   3.991 -0.5440 -2.9776 -1.2699
 9085TIP3    H248747   2.167   6.545   3.933  1.4135 -0.6992  1.5673
 9086TIP3   OH248748   4.979   5.276   1.581 -0.5400 -0.1848  0.0062
 9086TIP3    H148749   4.996   5.278   1.675  0.6154  2.2554 -0.1731
 9086TIP3    H248750   5.062   5.301   1.541 -2.1101  3.6836 -1.3517
 9087TIP3   OH248751   0.959   2.729  15.810 -0.2173  0.5607  0.1626
 9087TIP3    H148752   1.008   2.662  15.763  1.6507  1.1188  1.2181
 9087TIP3    H248753   0.901   2.680  15.868 -2.7428 -0.1545 -2.6873
 9088TIP3   OH248754   0.108   2.021   5.218  0.4790  0.2233  0.0257
 9088TIP3    H148755   0.083   1.971   5.296 -0.4637 -0.5797 -0.7572
 9088TIP3    H248756   0.199   2.046   5.234  0.0038  0.9684  1.8206
 9089TIP3   OH248757   6.268   5.866  11.539 -0.5653  0.1889  0.2621
 9089TIP3    H148758   6.320   5.918  11.600  1.1377 -0.8991 -0.2071
 9089TIP3    H248759   6.234   5.929  11.476 -2.0416  1.2903  2.0375
 9090TIP3   OH248760   1.212   0.860  15.069  0.0783 -0.2040  0.4980
 9090TIP3    H148761   1.306   0.860  15.052 -0.0014 -0.9048  0.0273
 9090TIP3    H248762   1.176   0.797  15.007 -0.5621 -0.8087  1.4460
 9091TIP3   OH248763   1.019   6.809  12.919 -0.2636 -0.2922  0.0559
 9091TIP3    H148764   0.968   6.890  12.928  2.4791  1.5741 -0.1046
 9091TIP3    H248765   1.033   6.800  12.825 -1.5598 -1.7134 -0.0479
 9092TIP3   OH248766   2.905   2.733  15.257 -0.5064  0.1631  0.2060
 9092TIP3    H148767   2.815   2.702  15.267 -0.4964 -0.2134 -0.7143
 9092TIP3    H248768   2.957   2.652  15.252 -0.3183  0.3385 -0.8805
 9093TIP3   OH248769   3.378   4.272  12.531  0.7255 -0.0674  0.3447
 9093TIP3    H148770   3.436   4.223  12.473 -0.4375 -0.4061 -0.5760
 9093TIP3    H248771   3.430   4.346  12.561  2.0599 -1.0841  0.6316
 9094TIP3   OH248772   5.322   4.998   1.327 -0.2408 -0.2690  0.2228
 9094TIP3    H148773   5.243   5.050   1.338 -1.4576 -1.8278 -0.7911
 9094TIP3    H248774   5.291   4.909   1.314  1.7398 -1.1264  0.9051
 9095TIP3   OH248775   2.520   0.410  11.304 -0.0562  0.6418  0.4058
 9095TIP3    H148776   2.540   0.348  11.374 -1.0658  1.0760  1.1035
 9095TIP3    H248777   2.536   0.361  11.223  0.4409 -0.0918  0.9379
 9096TIP3   OH248778   2.105   5.978   4.926  0.1531  0.4212 -0.1854
 9096TIP3    H148779   2.072   5.893   4.952  1.0936 -0.5605 -2.0079
 9096TIP3    H248780   2.058   5.998   4.845  0.9641  0.9597 -0.5355
 9097TIP3   OH248781   2.450   3.378  14.136  0.3889 -0.0391  0.3559
 9097TIP3    H148782   2.458   3.345  14.226  0.8867  0.7710  0.6229
 9097TIP3    H248783   2.482   3.468  14.141 -0.9034  0.4950 -0.3473
 9098TIP3   OH248784   6.228   0.664   0.268 -0.2287 -0.3671  0.1540
 9098TIP3    H148785   6.184   0.701   0.192  0.5021 -0.0769 -0.1403
 9098TIP3    H248786   6.157   0.632   0.324 -0.8448  0.7732  0.0492
 9099TIP3   OH248787   0.352   4.285  15.638  0.1461 -0.0673  0.7932
 9099TIP3    H148788   0.356   4.228  15.714  0.3080 -0.2779  0.6297
 9099TIP3    H248789   0.406   4.361  15.662  3.3764 -1.7570 -0.4322
 9100TIP3   OH248790   2.035   2.346  16.759  0.1912  0.1218 -0.0090
 9100TIP3    H148791   2.106   2.341  16.695  0.1811  0.9396 -0.0929
 9100TIP3    H248792   2.047   2.431  16.801 -0.7205  0.2589 -0.0085
 9101TIP3   OH248793   1.540   0.611   4.660  0.0253 -0.7994  0.1149
 9101TIP3    H148794   1.609   0.642   4.602  0.9257 -0.7876  1.1596
 9101TIP3    H248795   1.531   0.681   4.726 -1.7420 -0.3064 -0.6029
 9102TIP3   OH248796   0.518   0.086  15.637 -0.1707 -0.3276  0.0994
 9102TIP3    H148797   0.594   0.125  15.681 -0.8325  0.8793  0.2112
 9102TIP3    H248798   0.442   0.125  15.681 -0.8907 -2.4321  0.8046
 9103TIP3   OH248799   2.571   6.297   3.692  0.2511  0.2715 -0.2352
 9103TIP3    H148800   2.661   6.324   3.673 -0.0214  3.3805  2.0897
 9103TIP3    H248801   2.527   6.377   3.721 -2.5433 -1.6229  1.2795
 9104TIP3   OH248802   5.526   5.756  11.776 -0.3275 -0.4342  0.1688
 9104TIP3    H148803   5.622   5.763  11.771 -0.3038 -0.7673  0.1371
 9104TIP3    H248804   5.511   5.690  11.843 -0.5434 -0.1485  0.4009
 9105TIP3   OH248805   6.024   1.689  10.240  0.1456 -0.7743  0.2838
 9105TIP3    H148806   6.005   1.627  10.169 -2.0424 -0.5430  0.5911
 9105TIP3    H248807   5.973   1.656  10.314 -1.1559  1.4031  0.4253
 9106TIP3   OH248808   1.122   0.804   3.635 -0.0779  0.7894 -0.0281
 9106TIP3    H148809   1.182   0.861   3.683 -0.8831  0.0779  1.8955
 9106TIP3    H248810   1.162   0.718   3.638 -0.0156  0.7743 -0.8999
 9107TIP3   OH248811   5.226   2.935  11.592  0.2569 -0.1194 -0.4835
 9107TIP3    H148812   5.245   3.008  11.651  0.1553  0.5797 -1.2880
 9107TIP3    H248813   5.131   2.924  11.597  0.5417 -2.6473  2.4164
 9108TIP3   OH248814   3.953   0.621   3.290 -0.4211 -0.3079  0.4693
 9108TIP3    H148815   3.897   0.558   3.335  0.2069 -0.6593  0.7736
 9108TIP3    H248816   3.892   0.684   3.251 -1.0122  1.5378  3.9249
 9109TIP3   OH248817   4.033   3.001   0.081 -0.2319  0.5015  0.4668
 9109TIP3    H148818   3.977   3.057   0.028 -0.2223  0.3488  0.2937
 9109TIP3    H248819   3.974   2.933   0.114 -0.1551  0.3587  0.3102
 9110TIP3   OH248820   5.713   5.354  11.540  0.1498 -0.0384  0.5119
 9110TIP3    H148821   5.684   5.278  11.490 -3.0194  0.6865  1.0249
 9110TIP3    H248822   5.685   5.336  11.630 -0.7487  1.6987  0.6383
 9111TIP3   OH248823   0.889   0.294   2.163  0.0346  0.6812  0.2035
 9111TIP3    H148824   0.892   0.390   2.156  2.1097  0.6805  0.5086
 9111TIP3    H248825   0.949   0.263   2.095  1.3457 -0.2843  1.7435
 9112TIP3   OH248826   4.579   0.629   3.510 -0.4070 -0.0551 -0.4919
 9112TIP3    H148827   4.497   0.596   3.473 -0.2935 -0.3949 -0.4410
 9112TIP3    H248828   4.566   0.723   3.518 -1.0604 -0.1939  0.1837
 9113TIP3   OH248829   3.686   1.014   2.884 -0.0485 -0.2501  0.3168
 9113TIP3    H148830   3.781   1.011   2.873  0.0058  1.1328  0.3381
 9113TIP3    H248831   3.670   1.091   2.938 -1.1556 -0.7658  0.7707
 9114TIP3   OH248832   3.453   5.566  14.037 -0.1106 -0.5486 -0.3225
 9114TIP3    H148833   3.468   5.636  13.974  2.2321 -1.3961 -0.8050
 9114TIP3    H248834   3.491   5.598  14.118 -0.9308 -0.4336  0.0203
 9115TIP3   OH248835   1.604   2.531   0.722  0.6577  0.0487  0.4736
 9115TIP3    H148836   1.513   2.537   0.754  0.8152 -1.2674  1.2283
 9115TIP3    H248837   1.596   2.530   0.627 -0.0229  1.1399  0.4953
 9116TIP3   OH248838   5.511   4.599  15.958 -0.6960 -0.7337 -1.2093
 9116TIP3    H148839   5.565   4.575  15.883  0.3989 -2.1087 -0.0541
 9116TIP3    H248840   5.469   4.517  15.984  1.1251 -1.0016  1.3224
 9117TIP3   OH248841   5.164   4.987  11.406 -0.0275 -0.2163 -1.6385
 9117TIP3    H148842   5.102   5.017  11.473 -0.0635 -1.5305 -1.0693
 9117TIP3    H248843   5.219   5.064  11.390 -1.0343  0.6137 -1.2899
 9118TIP3   OH248844   2.210   1.910   4.517  0.2332 -0.0880  0.4248
 9118TIP3    H148845   2.160   1.850   4.462  0.7859 -1.2965  1.1891
 9118TIP3    H248846   2.300   1.903   4.485  0.2701  0.5286  0.3681
 9119TIP3   OH248847   3.797   2.115   2.289  0.0275  0.2599  0.1058
 9119TIP3    H148848   3.791   2.189   2.348  0.7718  0.0548  0.4498
 9119TIP3    H248849   3.746   2.046   2.331  0.9557 -0.0390  0.7555
 9120TIP3   OH248850   1.094   1.335   2.079 -0.7195  0.3691 -0.3964
 9120TIP3    H148851   1.109   1.401   2.012 -0.8065  1.6576  0.8219
 9120TIP3    H248852   1.165   1.347   2.141 -0.7263 -0.7065 -0.1570
 9121TIP3   OH248853   4.571   4.592  15.925  0.4285 -0.0207  0.0146
 9121TIP3    H148854   4.630   4.610  15.998  0.9280  0.5718 -0.5240
 9121TIP3    H248855   4.624   4.540  15.865  0.0551 -0.4071  0.0176
 9122TIP3   OH248856   2.885   2.387  17.063  0.7058 -0.3738  0.5986
 9122TIP3    H148857   2.949   2.407  17.131  0.4686 -0.3085  0.8025
 9122TIP3    H248858   2.921   2.310  17.018  1.0342 -0.2052  0.5714
 9123TIP3   OH248859   1.274   4.881   0.703 -0.4739  0.3640  0.0259
 9123TIP3    H148860   1.227   4.806   0.668 -1.7916 -0.3923  3.0852
 9123TIP3    H248861   1.365   4.851   0.713 -1.4073 -1.9124  3.5113
 9124TIP3   OH248862   1.026   5.539   4.790  0.0966  0.6807 -0.0324
 9124TIP3    H148863   0.939   5.576   4.799 -0.0742  0.3778 -0.3817
 9124TIP3    H248864   1.025   5.496   4.704  0.3056 -0.0690  0.3298
 9125TIP3   OH248865   3.439   4.746  13.979 -0.1209  0.2511 -0.7689
 9125TIP3    H148866   3.474   4.681  14.041 -0.6466  0.1891 -0.5291
 9125TIP3    H248867   3.516   4.793  13.948  0.1898  0.0371 -0.3423
 9126TIP3   OH248868   3.887   3.534  12.321  0.4732 -0.3517  0.7321
 9126TIP3    H148869   3.833   3.455  12.333  1.5526 -1.1426  0.5463
 9126TIP3    H248870   3.863   3.567  12.235 -0.5804  0.0119  1.1469
 9127TIP3   OH248871   3.649   0.802  13.369 -0.6099  0.2040  0.1495
 9127TIP3    H148872   3.572   0.857  13.386 -0.9608  1.1924 -3.7719
 9127TIP3    H248873   3.613   0.716  13.349 -0.4171 -0.1277  1.1523
 9128TIP3   OH248874   1.870   1.734  11.656  0.3547 -0.1713  0.4576
 9128TIP3    H148875   1.852   1.821  11.693 -0.8976  0.3464 -1.2533
 9128TIP3    H248876   1.885   1.678  11.733 -1.0613  1.0634  1.7095
 9129TIP3   OH248877   4.002   2.921   1.248  0.2529  0.1164 -0.3042
 9129TIP3    H148878   4.082   2.870   1.233 -0.5872 -1.3611  0.0395
 9129TIP3    H248879   3.931   2.860   1.228 -0.8084  1.5880 -1.2382
 9130TIP3   OH248880   4.798   3.586   0.024  0.6359 -0.4676  0.0076
 9130TIP3    H148881   4.727   3.597   0.088 -0.4425  0.9146 -1.3351
 9130TIP3    H248882   4.768   3.514  -0.032 -1.0158  1.6229 -2.0341
 9131TIP3   OH248883   4.857   1.696   1.293 -0.0932  0.8648 -0.3474
 9131TIP3    H148884   4.858   1.644   1.373 -0.0275  0.1369 -0.8093
 9131TIP3    H248885   4.770   1.679   1.255 -0.4697  1.9151  0.0192
 9132TIP3   OH248886   4.272   2.907  13.882  0.0063 -0.7794  0.4728
 9132TIP3    H148887   4.267   2.925  13.976  0.8695 -0.1226  0.4010
 9132TIP3    H248888   4.362   2.927  13.858 -0.7231  1.0790 -0.9118
 9133TIP3   OH248889   6.033   4.189   1.745  0.2511 -0.2742 -0.2103
 9133TIP3    H148890   6.007   4.132   1.673  0.4484 -1.0242  0.3059
 9133TIP3    H248891   5.964   4.256   1.748 -1.0096 -1.5275  0.3465
 9134TIP3   OH248892   4.717   5.277  14.798 -0.0875  0.0316 -0.2159
 9134TIP3    H148893   4.755   5.189  14.804 -1.2595 -0.4352  0.7438
 9134TIP3    H248894   4.792   5.336  14.808  0.3648 -0.8523  2.5914
 9135TIP3   OH248895   2.469   0.483  15.629 -0.3963  0.1729  0.0652
 9135TIP3    H148896   2.497   0.555  15.684  0.4374  0.1031 -0.2566
 9135TIP3    H248897   2.412   0.523  15.563 -1.4545  0.2437  0.9980
 9136TIP3   OH248898   1.130   0.311   4.628 -0.2019 -0.5125 -0.2867
 9136TIP3    H148899   1.200   0.376   4.636  1.8686 -2.4923 -1.1588
 9136TIP3    H248900   1.143   0.252   4.702 -2.1461  0.0493  0.5844
 9137TIP3   OH248901   0.599   5.522  17.054 -0.2240 -0.1507 -0.2173
 9137TIP3    H148902   0.562   5.577  16.985 -2.0574 -0.3127  0.5807
 9137TIP3    H248903   0.624   5.441  17.009 -0.4804  0.1285 -0.8709
 9138TIP3   OH248904   2.038   1.457  16.430  0.2645  0.1550  0.3435
 9138TIP3    H148905   1.963   1.447  16.372  0.1672 -1.7088  0.7143
 9138TIP3    H248906   2.048   1.552  16.442 -0.6020  0.5192 -1.5182
 9139TIP3   OH248907   1.483   5.214   1.544 -0.2277 -0.2960 -0.4784
 9139TIP3    H148908   1.480   5.288   1.604 -0.2678 -1.9316  1.6454
 9139TIP3    H248909   1.418   5.235   1.477  0.3927  1.9558 -0.4623
 9140TIP3   OH248910   6.138   1.987   0.358 -0.4084  0.0192  0.3161
 9140TIP3    H148911   6.148   1.973   0.452  1.1106  1.1900  0.3675
 9140TIP3    H248912   6.171   1.907   0.318 -0.8704 -0.4036  0.7683
 9141TIP3   OH248913   2.745   4.828   4.611 -0.0075  0.6806 -0.1857
 9141TIP3    H148914   2.834   4.831   4.578 -0.5832  0.0844 -1.8791
 9141TIP3    H248915   2.754   4.805   4.704  1.5630  0.2820 -0.4158
 9142TIP3   OH248916   1.182   3.430  16.789 -0.5362  0.3712 -0.1727
 9142TIP3    H148917   1.252   3.394  16.735 -0.0794  1.3379 -0.2573
 9142TIP3    H248918   1.221   3.439  16.876 -1.3565 -1.4557  0.4291
 9143TIP3   OH248919   5.885   3.830   3.916  0.0033 -0.0110  0.4753
 9143TIP3    H148920   5.868   3.793   3.829 -0.3234 -0.4042  0.6990
 9143TIP3    H248921   5.828   3.780   3.975  1.0145 -0.5086  1.0767
 9144TIP3   OH248922   3.692   4.505   1.273  0.5480  0.1925  0.4059
 9144TIP3    H148923   3.691   4.594   1.239  1.0156  0.6336  1.5073
 9144TIP3    H248924   3.773   4.467   1.238  0.7261  0.4443  0.5425
 9145TIP3   OH248925   5.002   6.509  13.963  0.1223  0.0570 -0.2445
 9145TIP3    H148926   5.078   6.555  13.998  0.9887 -0.8373 -0.9111
 9145TIP3    H248927   4.989   6.435  14.023  0.2701 -0.2465 -0.5885
 9146TIP3   OH248928   0.882   5.187   4.145 -0.4416  0.1571 -0.4515
 9146TIP3    H148929   0.801   5.231   4.172  0.7569  0.8463  2.4661
 9146TIP3    H248930   0.892   5.210   4.053 -1.4530  3.5819  0.1457
 9147TIP3   OH248931   4.916   2.174   4.491  0.0649  0.3937 -0.0624
 9147TIP3    H148932   4.974   2.104   4.463 -0.9796 -0.3772 -0.3868
 9147TIP3    H248933   4.973   2.248   4.508  1.0387 -0.0179 -1.3736
 9148TIP3   OH248934   4.474   1.408  17.038 -0.0286 -0.1551  0.1766
 9148TIP3    H148935   4.490   1.323  17.079  2.4922  0.7239  1.2423
 9148TIP3    H248936   4.506   1.398  16.948  0.8321 -0.1812  0.4800
 9149TIP3   OH248937   4.474   1.922  12.248  0.2107 -0.6948 -0.3537
 9149TIP3    H148938   4.395   1.974  12.267  0.4815  0.3750 -1.9972
 9149TIP3    H248939   4.539   1.986  12.220  1.4746 -1.6466  0.3085
 9150TIP3   OH248940   4.787   1.454  11.910  0.6042  0.2974 -0.5555
 9150TIP3    H148941   4.725   1.514  11.953 -1.6876 -1.0122 -1.8376
 9150TIP3    H248942   4.760   1.367  11.940  1.5536 -0.3474 -1.5042
 9151TIP3   OH248943   5.810   3.101  16.712 -0.0869  0.1358 -0.2841
 9151TIP3    H148944   5.849   3.091  16.625  0.9370  0.5264  0.1163
 9151TIP3    H248945   5.807   3.196  16.725 -1.7144  0.1418 -0.5302
 9152TIP3   OH248946   3.034   4.244   6.336  0.3176  0.0673 -0.1792
 9152TIP3    H148947   3.020   4.155   6.305 -0.5817  0.3085 -0.5016
 9152TIP3    H248948   2.959   4.262   6.393  0.9054  0.3409  0.5288
 9153TIP3   OH248949   6.373   5.622   2.927  0.1582 -0.2243  0.0300
 9153TIP3    H148950   6.372   5.718   2.929  1.6137 -0.1464 -0.8622
 9153TIP3    H248951   6.445   5.601   2.867 -0.5545 -1.8766 -0.2951
 9154TIP3   OH248952   6.719   4.130  10.414  0.2203  0.1298 -0.2496
 9154TIP3    H148953   6.699   4.156  10.324  1.4133  0.3305 -0.4705
 9154TIP3    H248954   6.778   4.198  10.446  0.4552 -0.3800  0.4144
 9155TIP3   OH248955   5.028   6.740  16.251 -0.1063  0.6390 -0.4830
 9155TIP3    H148956   5.109   6.688  16.246 -0.3689  0.3220 -3.2013
 9155TIP3    H248957   5.057   6.830  16.235  0.0734  1.1083  2.0688
 9156TIP3   OH248958   6.469   6.677  13.208 -0.3720 -0.5458 -0.3473
 9156TIP3    H148959   6.520   6.646  13.134 -1.1391  0.2559 -1.2306
 9156TIP3    H248960   6.417   6.749  13.173  1.0745  1.5411  1.5094
 9157TIP3   OH248961   4.309   2.867   2.392 -0.2848 -0.2765  0.4831
 9157TIP3    H148962   4.293   2.891   2.301 -1.5258 -2.9501 -0.1071
 9157TIP3    H248963   4.336   2.948   2.434  0.8986  0.9271 -2.3691
 9158TIP3   OH248964   0.670   2.209  15.865  0.0583 -0.0667  0.0345
 9158TIP3    H148965   0.584   2.199  15.906 -0.1289  0.4522 -0.2179
 9158TIP3    H248966   0.676   2.138  15.802  0.3738 -0.9112  0.9905
 9159TIP3   OH248967   3.992   0.735   3.591  0.0787 -0.1456 -1.0688
 9159TIP3    H148968   3.988   0.786   3.509  0.2176  0.7429 -0.5430
 9159TIP3    H248969   4.013   0.800   3.658  0.4639 -0.9447 -0.3946
 9160TIP3   OH248970   1.170   4.028  11.318 -0.2055 -0.2484  0.5495
 9160TIP3    H148971   1.098   4.075  11.360  0.1072 -1.1328  2.1857
 9160TIP3    H248972   1.214   3.983  11.391  0.7842 -1.3298 -0.6707
 9161TIP3   OH248973   6.567   0.500  14.909  0.1012  0.2861 -0.7458
 9161TIP3    H148974   6.580   0.406  14.922 -1.5774  0.0177 -0.8161
 9161TIP3    H248975   6.482   0.518  14.949  2.1126  2.6209  3.2259
 9162TIP3   OH248976   6.124   4.256  12.609 -0.6390 -0.3483  0.1008
 9162TIP3    H148977   6.067   4.330  12.587  0.8089  1.3079  1.6674
 9162TIP3    H248978   6.212   4.285  12.584 -0.0999 -1.7593  0.2760
 9163TIP3   OH248979   5.644   6.148  12.852 -0.3481 -1.0085  0.4472
 9163TIP3    H148980   5.610   6.153  12.763  0.7016  2.6636  0.0726
 9163TIP3    H248981   5.579   6.098  12.900 -2.1811 -1.0262 -1.8661
 9164TIP3   OH248982   4.713   2.764   4.736  0.0269 -0.0144  0.1376
 9164TIP3    H148983   4.638   2.794   4.788 -0.9635 -2.8354  0.5227
 9164TIP3    H248984   4.688   2.784   4.645 -0.3168  0.7963  0.4043
 9165TIP3   OH248985   3.510   3.309   6.462  0.2393  0.3001  0.5716
 9165TIP3    H148986   3.431   3.265   6.493 -0.8505  2.1740  0.5628
 9165TIP3    H248987   3.536   3.259   6.384  0.1574 -1.4391  1.6178
 9166TIP3   OH248988   1.794   0.399   2.256  0.4751 -0.1460  0.3599
 9166TIP3    H148989   1.850   0.448   2.316  0.2013  2.5614 -1.3752
 9166TIP3    H248990   1.840   0.403   2.172 -0.6252 -1.0124 -0.3089
 9167TIP3   OH248991   6.447   5.210   0.658 -0.6379  0.4324 -0.0343
 9167TIP3    H148992   6.473   5.137   0.713  1.0306  1.2470  0.3255
 9167TIP3    H248993   6.463   5.288   0.712 -3.9138  1.0860  0.2248
 9168TIP3   OH248994   5.278   3.523  11.423 -0.5342 -0.2983  0.2711
 9168TIP3    H148995   5.349   3.470  11.458 -0.0053 -0.3858 -0.8925
 9168TIP3    H248996   5.210   3.459  11.400 -1.2106 -0.1821  1.7843
 9169TIP3   OH248997   4.931   3.544  13.560  0.3477 -0.0826 -0.0688
 9169TIP3    H148998   5.006   3.587  13.519  0.8818  0.7077  1.6469
 9169TIP3    H248999   4.934   3.454  13.526 -0.3768  0.9289 -3.1729
 9170TIP3   OH249000   5.507   4.332   1.371  0.0093 -0.0992  0.3765
 9170TIP3    H149001   5.449   4.343   1.296  0.4851 -0.4312 -0.0508
 9170TIP3    H249002   5.593   4.362   1.339  0.3351 -0.7651  0.6009
 9171TIP3   OH249003   0.458   1.697   0.091  0.0965 -0.4386 -0.4214
 9171TIP3    H149004   0.459   1.661   0.003  0.5348 -0.0632 -0.5785
 9171TIP3    H249005   0.383   1.757   0.092 -1.2762 -2.0914  0.1641
 9172TIP3   OH249006   2.008   2.145   2.929 -0.0024 -0.4627 -0.2779
 9172TIP3    H149007   2.097   2.119   2.905 -0.7078 -2.5160 -0.8135
 9172TIP3    H249008   2.020   2.201   3.007  1.8199  0.5853 -1.2413
 9173TIP3   OH249009   6.225   4.216   0.937 -0.4252  0.0262 -0.5928
 9173TIP3    H149010   6.216   4.142   0.997 -0.1386  0.6606  0.2715
 9173TIP3    H249011   6.311   4.252   0.958 -0.6687  0.7531 -0.8134
 9174TIP3   OH249012   6.075   4.109  15.698 -0.0301 -0.2939 -0.4527
 9174TIP3    H149013   6.107   4.146  15.780 -0.3001 -1.3046  0.1254
 9174TIP3    H249014   6.144   4.049  15.670 -0.2197 -0.4307 -0.6307
 9175TIP3   OH249015   1.065   2.539  15.648 -0.3057  0.2877  0.1014
 9175TIP3    H149016   1.126   2.466  15.655  0.1314  0.7088  0.9132
 9175TIP3    H249017   0.982   2.500  15.622 -0.0157 -0.4610  0.2938
 9176TIP3   OH249018   3.595   3.406  11.148  0.1293  0.2718 -0.5330
 9176TIP3    H149019   3.598   3.355  11.067 -1.0141 -0.5115 -0.1139
 9176TIP3    H249020   3.504   3.436  11.153 -0.1174 -0.6038  0.9834
 9177TIP3   OH249021   1.859   1.903   4.562  0.3493  0.1472 -0.3169
 9177TIP3    H149022   1.922   1.875   4.496  0.9348 -0.4830  0.4804
 9177TIP3    H249023   1.783   1.934   4.512  1.5194  1.5108 -1.2990
 9178TIP3   OH249024   2.100   5.597   1.283 -0.5291 -0.7762 -0.0299
 9178TIP3    H149025   2.157   5.620   1.356  0.2203  0.4087 -0.9322
 9178TIP3    H249026   2.103   5.502   1.278 -0.1605 -0.8353  1.1251
 9179TIP3   OH249027   3.622   2.663  13.656 -0.1002 -0.2848 -0.4137
 9179TIP3    H149028   3.606   2.707  13.572  1.2064 -1.5764 -1.4078
 9179TIP3    H249029   3.652   2.732  13.715  0.8428  0.3588 -1.5978
 9180TIP3   OH249030   6.158   3.147  16.758 -0.0615 -0.0907  0.3607
 9180TIP3    H149031   6.125   3.204  16.689 -0.5894  1.4100  1.7758
 9180TIP3    H249032   6.236   3.106  16.721 -0.7821  0.0299 -1.3807
 9181TIP3   OH249033   4.564   3.065  15.443 -0.3378 -0.2684 -0.2783
 9181TIP3    H149034   4.549   3.050  15.349 -1.8145 -1.2261  0.0839
 9181TIP3    H249035   4.620   2.992  15.470  1.0373  0.6212 -0.6125
 9182TIP3   OH249036   1.949   2.924  11.807  0.2189  0.0593  0.1814
 9182TIP3    H149037   1.978   2.881  11.726 -0.3594 -0.9914  0.5123
 9182TIP3    H249038   1.876   2.979  11.781 -0.3570 -0.7404  0.0677
 9183TIP3   OH249039   2.773   1.084   5.424 -0.4693  0.3557  0.6105
 9183TIP3    H149040   2.803   1.059   5.512 -1.6724 -2.0863  0.3963
 9183TIP3    H249041   2.853   1.102   5.376  0.2434  1.1628  2.0349
 9184TIP3   OH249042   6.537   4.415  11.273  0.0357 -0.0185 -0.4354
 9184TIP3    H149043   6.517   4.504  11.304 -1.4643 -0.8053  1.0133
 9184TIP3    H249044   6.534   4.361  11.352 -0.6220 -1.6122 -1.5019
 9185TIP3   OH249045   3.417   6.782   6.562  0.2635  0.7945 -0.0309
 9185TIP3    H149046   3.498   6.750   6.603  0.6494  2.3914  0.5232
 9185TIP3    H249047   3.422   6.751   6.472  0.3961 -1.0204  0.5541
 9186TIP3   OH249048   2.165   5.119   3.293  0.0338  0.4911 -0.3585
 9186TIP3    H149049   2.239   5.059   3.280  0.1764  0.9663 -1.8664
 9186TIP3    H249050   2.138   5.144   3.205 -1.1132  1.3391  0.2056
 9187TIP3   OH249051   3.303   1.522  13.118  0.6173  0.2797  0.0265
 9187TIP3    H149052   3.386   1.568  13.106  0.9734 -0.2697  0.3067
 9187TIP3    H249053   3.288   1.524  13.212  0.8637 -0.5421  0.0945
 9188TIP3   OH249054   0.068   1.992   4.006 -0.0781 -0.5693  0.0920
 9188TIP3    H149055   0.091   2.079   3.973  1.0894 -0.6647  0.5780
 9188TIP3    H249056   0.014   1.953   3.938 -0.3682  0.4270 -0.2605
 9189TIP3   OH249057   0.553   5.279  12.479 -0.3804  0.4485 -0.2098
 9189TIP3    H149058   0.526   5.290  12.570 -0.4318  0.3369 -0.2113
 9189TIP3    H249059   0.627   5.338  12.468  0.1891 -0.1952  0.1455
 9190TIP3   OH249060   3.840   2.639   3.134  0.0430 -0.6566 -0.3930
 9190TIP3    H149061   3.934   2.636   3.150 -0.0026  3.7097  2.2001
 9190TIP3    H249062   3.830   2.699   3.060 -0.7264 -0.1520  0.1090
 9191TIP3   OH249063   6.336   4.928   4.005  0.0904 -0.0826 -0.1611
 9191TIP3    H149064   6.304   4.845   4.040 -0.9021  0.8639  1.2323
 9191TIP3    H249065   6.262   4.963   3.955 -0.1254  0.7900  0.7430
 9192TIP3   OH249066   0.874   3.909   1.544 -0.1303 -0.0119 -0.0601
 9192TIP3    H149067   0.835   3.834   1.588  0.8353 -0.4911  0.0021
 9192TIP3    H249068   0.967   3.902   1.562  0.1043  0.5997 -0.9543
 9193TIP3   OH249069   4.639   2.483  11.670  0.0956 -0.1183 -0.5187
 9193TIP3    H149070   4.676   2.544  11.734  0.1172 -1.2072  0.5410
 9193TIP3    H249071   4.566   2.530  11.631 -0.3443  0.3261  0.8100
 9194TIP3   OH249072   4.761   2.310  12.505  0.1895 -0.8178  0.1234
 9194TIP3    H149073   4.697   2.300  12.436  1.0194 -0.9358 -0.6530
 9194TIP3    H249074   4.721   2.270  12.582  0.2026 -2.8404 -0.8751
 9195TIP3   OH249075   1.005   3.180  14.208 -0.1360 -0.4726  0.3802
 9195TIP3    H149076   1.039   3.174  14.118  0.3228 -0.3260  0.5392
 9195TIP3    H249077   0.911   3.171  14.199 -0.1470  0.1558 -0.1785
 9196TIP3   OH249078   2.759   5.308   2.898 -0.4815  0.1859  0.3293
 9196TIP3    H149079   2.836   5.288   2.952 -0.4310 -1.9892 -0.4649
 9196TIP3    H249080   2.739   5.400   2.919  3.5224  1.5552 -0.9399
 9197TIP3   OH249081   1.914   6.103  16.987 -0.2087 -0.3286 -0.2194
 9197TIP3    H149082   1.920   6.047  16.909  1.3889 -0.7898  0.1989
 9197TIP3    H249083   1.968   6.059  17.052  0.0399  1.0437  0.5404
 9198TIP3   OH249084   4.488   4.259   5.976  0.1604 -0.4186  0.8714
 9198TIP3    H149085   4.407   4.298   6.007  1.0840  0.9268  1.7096
 9198TIP3    H249086   4.463   4.211   5.897 -1.1504  1.3817  0.1297
 9199TIP3   OH249087   2.439   2.762  13.074 -0.4089 -0.2413  0.6744
 9199TIP3    H149088   2.433   2.746  13.168  0.9351  0.2994  0.8820
 9199TIP3    H249089   2.380   2.698  13.034  1.2985 -2.5877  1.6891
 9200TIP3   OH249090   0.800   2.217   3.925  0.1617 -0.4345  0.5004
 9200TIP3    H149091   0.831   2.143   3.976 -0.5554 -1.1721 -0.1175
 9200TIP3    H249092   0.801   2.186   3.834 -1.6145 -0.2368  0.3735
 9201TIP3   OH249093   2.292   5.570   0.774 -0.2258  0.5314 -0.8799
 9201TIP3    H149094   2.300   5.538   0.684  0.1032  1.0408 -1.0325
 9201TIP3    H249095   2.379   5.604   0.796 -0.8273  2.3156 -1.1100
 9202TIP3   OH249096   4.831   4.154  16.877 -0.2300  0.4428  0.0332
 9202TIP3    H149097   4.786   4.219  16.823 -0.1838  1.6253  1.3569
 9202TIP3    H249098   4.805   4.175  16.967  3.3021  1.5843  0.9659
 9203TIP3   OH249099   4.996   1.448   2.325  1.0443  1.2858 -0.1636
 9203TIP3    H149100   4.918   1.473   2.375  0.3576  0.5331 -0.8358
 9203TIP3    H249101   4.989   1.499   2.244  1.3710  1.3690 -0.1421
 9204TIP3   OH249102   4.812   4.436  12.383 -0.9782 -0.0456  0.3446
 9204TIP3    H149103   4.895   4.424  12.429 -1.5752 -1.4751  1.1029
 9204TIP3    H249104   4.766   4.502  12.434 -0.1828  1.0523 -0.3039
 9205TIP3   OH249105   4.396   3.977   3.945 -0.4748 -0.1599 -0.4054
 9205TIP3    H149106   4.348   3.903   3.908  0.6909 -1.2668  0.2267
 9205TIP3    H249107   4.330   4.030   3.989 -1.4274 -0.4352 -1.4722
 9206TIP3   OH249108   3.625   2.523   1.209 -0.2152  0.0671 -0.0466
 9206TIP3    H149109   3.676   2.538   1.289  0.0041 -1.9065  0.2428
 9206TIP3    H249110   3.537   2.502   1.240 -0.3154  0.0152 -0.3601
 9207TIP3   OH249111   5.885   6.775  15.275 -0.5301 -0.0382 -0.2169
 9207TIP3    H149112   5.959   6.749  15.220 -0.6102 -1.0911  0.1467
 9207TIP3    H249113   5.834   6.834  15.221 -0.3209 -0.6408 -1.0858
 9208TIP3   OH249114   1.151   5.571  16.044 -0.4599  0.7438 -0.4153
 9208TIP3    H149115   1.071   5.544  16.089 -0.4129 -0.9649 -1.2702
 9208TIP3    H249116   1.216   5.504  16.068  0.0402  0.7728 -1.5925
 9209TIP3   OH249117   1.603   6.598  10.738  0.6165 -0.1301 -0.0406
 9209TIP3    H149118   1.670   6.621  10.803 -0.8586  1.1131  1.1366
 9209TIP3    H249119   1.588   6.505  10.751 -0.2901  0.2518  2.1302
 9210TIP3   OH249120   2.821   3.175   4.289  0.2282 -0.6301 -0.7167
 9210TIP3    H149121   2.728   3.195   4.297  0.7894  2.0256  0.5683
 9210TIP3    H249122   2.835   3.101   4.349 -1.1085 -1.4723 -1.4012
 9211TIP3   OH249123   3.736   0.909  16.686 -0.2090  0.2351  0.9640
 9211TIP3    H149124   3.721   0.818  16.712  0.2869 -0.3585 -0.6807
 9211TIP3    H249125   3.675   0.960  16.739 -1.1176 -1.1397  1.2948
 9212TIP3   OH249126   4.148   2.852   4.572  0.0707 -0.4929 -0.3777
 9212TIP3    H149127   4.236   2.822   4.547  0.1522 -0.0208 -0.6593
 9212TIP3    H249128   4.156   2.876   4.664  0.3928  0.1386 -0.5670
 9213TIP3   OH249129   1.447   3.191   4.360  0.1908 -0.3717 -0.0179
 9213TIP3    H149130   1.420   3.279   4.387  0.2287 -0.3545 -0.0361
 9213TIP3    H249131   1.373   3.135   4.383 -0.2530 -0.1792 -0.9487
 9214TIP3   OH249132   3.932   4.707  10.595 -0.1623 -0.8017 -0.0251
 9214TIP3    H149133   3.918   4.625  10.549 -3.7372 -0.9052  0.9980
 9214TIP3    H249134   3.866   4.708  10.664  1.6875  1.6320  1.9106
 9215TIP3   OH249135   6.150   4.590  11.997 -0.1694  0.1992 -0.0953
 9215TIP3    H149136   6.157   4.550  11.911 -1.5322 -2.7486  1.0105
 9215TIP3    H249137   6.210   4.664  11.995  1.5878 -1.1576 -2.7885
 9216TIP3   OH249138   2.940   2.262   5.360  0.2407 -0.5386 -0.0961
 9216TIP3    H149139   2.859   2.237   5.316  0.4410 -0.2755 -0.6245
 9216TIP3    H249140   2.912   2.294   5.446 -0.2072 -0.5189 -0.2480
 9217TIP3   OH249141   6.006   2.173  15.894  0.8717  0.6258  0.1110
 9217TIP3    H149142   5.996   2.245  15.956  1.7930 -0.0735  1.1193
 9217TIP3    H249143   5.956   2.101  15.933  1.4401  0.1860  0.0363
 9218TIP3   OH249144   0.921   2.292  13.490 -0.2535 -0.1264  0.2673
 9218TIP3    H149145   0.868   2.219  13.524  1.2913 -1.5997 -0.3419
 9218TIP3    H249146   0.932   2.349  13.566 -2.7930  0.3467  0.3819
 9219TIP3   OH249147   4.680   3.449  14.696  0.3298  0.4226 -0.1337
 9219TIP3    H149148   4.753   3.391  14.674  1.4884  2.5748 -2.4205
 9219TIP3    H249149   4.621   3.442  14.622 -0.4488  0.7635  0.4449
 9220TIP3   OH249150   1.960   1.966   1.867 -0.3418 -0.7271  0.2213
 9220TIP3    H149151   2.054   1.946   1.872 -0.4101 -1.8540 -1.8789
 9220TIP3    H249152   1.917   1.887   1.900 -0.5946  0.2033  2.2402
 9221TIP3   OH249153   5.132   3.964  13.564  0.3840  0.3049 -0.1163
 9221TIP3    H149154   5.161   3.895  13.504  0.6336 -0.0076  0.3590
 9221TIP3    H249155   5.209   3.982  13.618 -0.5174 -1.2259  1.8371
 9222TIP3   OH249156   4.231   3.228   0.028  0.6984 -0.7718  0.6612
 9222TIP3    H149157   4.179   3.152   0.053 -2.3346  1.0731  0.4402
 9222TIP3    H249158   4.306   3.227   0.087 -1.7465 -1.3347  3.9886
 9223TIP3   OH249159   4.176   6.261   4.605 -0.0461  0.2599  0.3759
 9223TIP3    H149160   4.102   6.228   4.657  0.1305  0.8065  0.9843
 9223TIP3    H249161   4.135   6.302   4.529 -0.3539  0.3256  0.5732
 9224TIP3   OH249162   2.739   1.220  12.598 -0.3391  0.1778  0.1359
 9224TIP3    H149163   2.791   1.275  12.539 -0.8457  0.5000 -0.0206
 9224TIP3    H249164   2.730   1.137  12.552 -0.3123  0.2609 -0.0213
 9225TIP3   OH249165   5.741   1.670   2.089 -0.4930  0.0901 -0.0377
 9225TIP3    H149166   5.671   1.682   2.024 -0.5266  1.6435  0.2489
 9225TIP3    H249167   5.698   1.686   2.173 -0.4056 -1.7177  0.3888
 9226TIP3   OH249168   5.551   0.778  11.809 -0.0280  0.2343  0.1878
 9226TIP3    H149169   5.645   0.773  11.826 -0.2868 -0.8275  1.4457
 9226TIP3    H249170   5.537   0.718  11.735  0.4020  1.1363 -0.6459
 9227TIP3   OH249171   0.521   1.614  13.755  0.4346 -0.2298 -0.2410
 9227TIP3    H149172   0.475   1.672  13.695 -0.0789 -0.2324  0.1505
 9227TIP3    H249173   0.454   1.585  13.817  0.6547 -1.3106 -0.4834
 9228TIP3   OH249174   2.348   3.527   0.075  0.4791 -0.5649  0.0888
 9228TIP3    H149175   2.343   3.487   0.162  0.6094 -3.4266 -1.0888
 9228TIP3    H249176   2.394   3.462   0.022 -0.2399  0.7684 -2.3102
 9229TIP3   OH249177   4.285   6.265   0.742  0.9829  0.2174  0.5590
 9229TIP3    H149178   4.241   6.340   0.703 -0.5746  0.3423  2.4195
 9229TIP3    H249179   4.307   6.209   0.667 -0.7758  0.9813 -0.5950
 9230TIP3   OH249180   5.923   0.568  17.103 -0.5988  0.3690 -0.0562
 9230TIP3    H149181   5.959   0.485  17.134  0.6023  0.7981 -0.2416
 9230TIP3    H249182   5.970   0.586  17.022  0.1733  1.8934  0.6819
 9231TIP3   OH249183   3.696   3.251  11.702  0.0060 -0.2791  0.4620
 9231TIP3    H149184   3.740   3.166  11.695  0.3631 -0.1068  0.5952
 9231TIP3    H249185   3.637   3.254  11.626 -0.0544 -0.6719  0.4928
 9232TIP3   OH249186   2.183   5.564   1.551 -0.2263 -0.1445 -0.0234
 9232TIP3    H149187   2.130   5.566   1.631 -0.4653  2.3765 -0.1684
 9232TIP3    H249188   2.263   5.612   1.574 -0.1936  0.4142 -1.2406
 9233TIP3   OH249189   0.254   3.875   5.518  0.7624  0.4327 -0.1621
 9233TIP3    H149190   0.275   3.797   5.571 -0.9135  0.4649  0.6323
 9233TIP3    H249191   0.313   3.943   5.552 -0.3532  0.4942  1.8445
 9234TIP3   OH249192   3.240   5.001   2.369  0.1042 -0.2896  0.3541
 9234TIP3    H149193   3.324   5.009   2.325  0.0962 -0.6449  0.2795
 9234TIP3    H249194   3.246   4.921   2.420  0.1853  0.2144  1.1536
 9235TIP3   OH249195   6.091   3.747  11.583 -0.2788  0.6225  0.4825
 9235TIP3    H149196   6.156   3.698  11.533 -1.4809 -1.2004  0.6202
 9235TIP3    H249197   6.143   3.809  11.634  1.3457 -0.5545  0.3580
 9236TIP3   OH249198   4.416   2.928  14.295 -0.1739  0.2955 -0.2635
 9236TIP3    H149199   4.473   2.884  14.358 -1.1451  0.0434  0.4560
 9236TIP3    H249200   4.329   2.925  14.334 -0.5869  1.2276 -1.0541
 9237TIP3   OH249201   6.556   4.927  10.549  0.1119 -0.2435 -0.0218
 9237TIP3    H149202   6.542   5.014  10.511  1.2868 -0.5513 -1.2298
 9237TIP3    H249203   6.503   4.868  10.496  1.2292 -0.5806 -0.8069
 9238TIP3   OH249204   2.549   6.776  17.158  0.1995 -0.2361 -0.1212
 9238TIP3    H149205   2.550   6.726  17.240  1.3299  1.1087  0.7359
 9238TIP3    H249206   2.605   6.725  17.099 -1.1202 -1.5355 -0.2873
 9239TIP3   OH249207   1.743   6.322   4.049 -0.0221  0.0217 -0.7392
 9239TIP3    H149208   1.687   6.375   4.107  1.5550 -0.9264  1.7962
 9239TIP3    H249209   1.816   6.380   4.028 -0.3759  0.2147 -1.4747
 9240TIP3   OH249210   3.677   0.018  17.262 -0.2795 -0.0867 -0.2590
 9240TIP3    H149211   3.695  -0.073  17.287 -1.5340  0.2102  2.0702
 9240TIP3    H249212   3.763   0.058  17.253  0.2781 -1.2445 -0.2486
 9241TIP3   OH249213   2.588   1.689  14.370  0.6318  0.1215 -0.0523
 9241TIP3    H149214   2.626   1.777  14.369 -0.2893  0.5317 -0.9990
 9241TIP3    H249215   2.493   1.704  14.378  0.5623 -0.8452  1.2556
 9242TIP3   OH249216   3.273   3.455   4.794 -0.4876  0.0626  0.3130
 9242TIP3    H149217   3.336   3.445   4.722  1.7753 -3.0508  2.4544
 9242TIP3    H249218   3.198   3.401   4.767 -0.0227 -0.3926 -0.1055
 9243TIP3   OH249219   0.408   5.785  15.406  0.1990  0.1477  0.4486
 9243TIP3    H149220   0.476   5.773  15.472  1.1370  2.3457 -0.0282
 9243TIP3    H249221   0.332   5.817  15.455 -0.2775 -1.5026  0.8633
 9244TIP3   OH249222   1.468   2.279  16.147  0.1324 -0.3324  0.1360
 9244TIP3    H149223   1.461   2.200  16.200  1.3690 -0.4682  0.1307
 9244TIP3    H249224   1.553   2.316  16.171  1.0295 -0.7313 -2.1706
 9245TIP3   OH249225   1.330   0.747   3.780 -0.0629  0.6369 -0.5312
 9245TIP3    H149226   1.391   0.820   3.774  2.0133 -0.9404 -0.2185
 9245TIP3    H249227   1.329   0.724   3.873 -0.6757  0.2922 -0.6184
 9246TIP3   OH249228   1.252   6.120   3.180 -0.0308  0.1932  0.1686
 9246TIP3    H149229   1.269   6.111   3.273  0.0774 -0.6926  0.0721
 9246TIP3    H249230   1.248   6.215   3.165  1.7375  0.4036  0.7524
 9247TIP3   OH249231   1.839   5.049   5.450  0.4852 -0.0902  0.5083
 9247TIP3    H149232   1.831   5.095   5.366  0.2783 -1.4222 -0.2351
 9247TIP3    H249233   1.813   4.958   5.430  0.8559 -0.5314  1.9189
 9248TIP3   OH249234   2.345   6.174   3.034  0.0653  0.2236  0.4180
 9248TIP3    H149235   2.369   6.183   2.942 -0.2427  1.4348  0.4383
 9248TIP3    H249236   2.274   6.109   3.034 -0.1123  0.4100 -0.2399
 9249TIP3   OH249237   5.235   2.774  13.604  0.6186  0.3650  0.5419
 9249TIP3    H149238   5.296   2.740  13.670 -0.3548 -0.3677  1.0870
 9249TIP3    H249239   5.155   2.723  13.617  0.2991  0.4289 -1.0042
 9250TIP3   OH249240   3.164   1.539   2.641 -0.0982 -0.3492  0.4934
 9250TIP3    H149241   3.189   1.554   2.550  1.4525 -1.0178  0.7765
 9250TIP3    H249242   3.245   1.547   2.690 -0.5413 -1.9151  1.5778
 9251TIP3   OH249243   3.917   0.610  13.778 -0.6574  0.1219  0.0924
 9251TIP3    H149244   3.881   0.661  13.706 -0.6808 -0.5856 -0.4052
 9251TIP3    H249245   3.961   0.536  13.736  1.3047  0.8815  0.6669
 9252TIP3   OH249246   6.666   1.944   3.841 -0.1703 -0.0669  1.4668
 9252TIP3    H149247   6.645   1.893   3.763  1.5867 -1.1994  1.6765
 9252TIP3    H249248   6.585   1.989   3.863 -0.1590  2.3986 -2.5034
 9253TIP3   OH249249   1.451   3.463  14.940 -0.5308  0.0974  0.4308
 9253TIP3    H149250   1.454   3.385  14.885  0.3541  0.1551  0.3759
 9253TIP3    H249251   1.523   3.450  15.003 -1.3611  0.1454  1.4211
 9254TIP3   OH249252   1.596   5.677  11.866 -0.2739 -0.4090  0.7585
 9254TIP3    H149253   1.601   5.646  11.956 -1.0023 -1.6965  0.3794
 9254TIP3    H249254   1.590   5.597  11.813 -0.9344  0.3457 -0.3504
 9255TIP3   OH249255   3.712   3.896   2.719 -0.2078 -0.3907  0.4283
 9255TIP3    H149256   3.745   3.984   2.733  0.1705 -0.3399 -0.7441
 9255TIP3    H249257   3.761   3.862   2.645 -1.3033 -1.0921 -0.0101
 9256TIP3   OH249258   1.698   0.033   1.351  0.0032 -0.1759  0.6216
 9256TIP3    H149259   1.704   0.035   1.255  0.8677 -0.4095  0.6629
 9256TIP3    H249260   1.604   0.041   1.369 -0.0420  1.8118 -0.1856
 9257TIP3   OH249261   2.683   2.416  15.034  0.0563 -0.8544  0.7557
 9257TIP3    H149262   2.617   2.347  15.026  0.2880 -1.1319  1.1654
 9257TIP3    H249263   2.636   2.492  15.068 -0.0849 -0.9977  0.8796
 9258TIP3   OH249264   2.554   2.426  16.398  0.5626 -0.4101  0.0597
 9258TIP3    H149265   2.486   2.388  16.453 -1.1542  1.4241 -0.6685
 9258TIP3    H249266   2.597   2.351  16.357 -1.8839 -1.6528 -0.4350
 9259TIP3   OH249267   0.291   3.789   0.878  0.3234  0.0962 -0.4800
 9259TIP3    H149268   0.203   3.778   0.915  0.2083  0.3714 -0.6646
 9259TIP3    H249269   0.307   3.709   0.830 -0.6690  0.8611 -2.1548
 9260TIP3   OH249270   0.943   0.512   2.924 -0.2399  0.3241 -0.5968
 9260TIP3    H149271   1.030   0.545   2.949 -0.4453  0.2688  0.2140
 9260TIP3    H249272   0.909   0.472   3.004 -1.3448  1.0490 -0.7020
 9261TIP3   OH249273   0.268   4.358  14.680 -0.4842 -0.6357 -0.3978
 9261TIP3    H149274   0.185   4.314  14.665 -0.4351  0.1182 -3.7719
 9261TIP3    H249275   0.286   4.404  14.598  0.5252  3.8933  2.0088
 9262TIP3   OH249276   5.753   3.826   1.700 -0.1652  0.7291  0.3356
 9262TIP3    H149277   5.806   3.869   1.768  1.3315 -0.1197 -0.2390
 9262TIP3    H249278   5.675   3.796   1.746  0.1303  1.4780  1.3581
 9263TIP3   OH249279   1.730   2.717  12.404 -0.3686  0.3414  0.1569
 9263TIP3    H149280   1.803   2.769  12.437 -0.3400  0.8987 -0.7634
 9263TIP3    H249281   1.668   2.714  12.478  0.1471  0.6949  0.6115
 9264TIP3   OH249282   3.666   0.270  16.662  0.0242 -0.2175  0.9874
 9264TIP3    H149283   3.707   0.350  16.695 -0.2644 -0.0207  0.8791
 9264TIP3    H249284   3.695   0.264  16.571 -0.0596 -0.1652  0.9582
 9265TIP3   OH249285   6.413   2.734   0.622 -0.0256 -0.2953  0.3735
 9265TIP3    H149286   6.366   2.800   0.571  0.8803 -0.1852 -0.3387
 9265TIP3    H249287   6.455   2.783   0.693 -2.1704 -0.5818  1.9559
 9266TIP3   OH249288   0.648   5.669   0.826  0.3791  0.3415 -0.6107
 9266TIP3    H149289   0.688   5.688   0.911  2.0458 -2.1767 -0.7154
 9266TIP3    H249290   0.596   5.591   0.841 -2.3049  1.9084 -1.1778
 9267TIP3   OH249291   4.947   3.791  11.820  0.0950  0.8348  0.0592
 9267TIP3    H149292   4.878   3.857  11.827 -1.4824 -0.5948 -1.1703
 9267TIP3    H249293   4.935   3.736  11.898  0.8319  1.4555  0.6204
 9268TIP3   OH249294   1.265   4.195  15.012  0.1127 -0.5425  0.3409
 9268TIP3    H149295   1.191   4.209  15.071  0.1590  3.1423 -0.2182
 9268TIP3    H249296   1.337   4.171  15.069 -0.3158  1.0286  1.6360
 9269TIP3   OH249297   1.850   3.031   1.390  0.0225  0.4458  0.3540
 9269TIP3    H149298   1.802   2.964   1.440  0.2709 -0.2535 -0.3255
 9269TIP3    H249299   1.790   3.055   1.320  1.2437 -1.7303 -1.5866
 9270TIP3   OH249300   5.571   0.344  10.902 -0.6584  0.0176  0.4246
 9270TIP3    H149301   5.541   0.435  10.897 -0.3966  0.0526 -3.8300
 9270TIP3    H249302   5.492   0.293  10.918 -0.8214  0.8863  2.7708
 9271TIP3   OH249303   1.587   4.157   2.434 -0.5322 -0.4397 -0.6968
 9271TIP3    H149304   1.682   4.168   2.424 -0.2891 -2.7975 -1.4046
 9271TIP3    H249305   1.576   4.133   2.526 -0.5512  0.5137 -0.4348
 9272TIP3   OH249306   0.351   5.677   4.712 -0.3634  0.2122  0.4376
 9272TIP3    H149307   0.265   5.664   4.673 -0.8669  0.6165  1.3898
 9272TIP3    H249308   0.384   5.757   4.672 -0.1828 -0.2205 -0.3206
 9273TIP3   OH249309   5.208   1.679   1.251  0.0833 -0.1726  0.3060
 9273TIP3    H149310   5.184   1.723   1.332 -0.8135  0.0321 -0.0672
 9273TIP3    H249311   5.241   1.593   1.279 -1.3974 -0.5907  0.8134
 9274TIP3   OH249312   1.528   4.593  12.954 -0.0287  0.5938  0.6362
 9274TIP3    H149313   1.559   4.683  12.967  1.6630  0.3089 -1.0315
 9274TIP3    H249314   1.530   4.555  13.042  1.2890  1.5890  1.0706
 9275TIP3   OH249315   2.276   3.697   1.617  0.1969 -0.3062  1.0477
 9275TIP3    H149316   2.182   3.676   1.618 -0.1749  1.0234 -0.8921
 9275TIP3    H249317   2.316   3.630   1.563 -0.1258  0.7203 -0.5227
 9276TIP3   OH249318   4.991   2.953   1.094 -0.3898  0.3187  0.4285
 9276TIP3    H149319   4.995   3.038   1.137  0.3423  1.0715 -1.0874
 9276TIP3    H249320   4.898   2.931   1.094 -0.6929  1.5221  0.0843
 9277TIP3   OH249321   0.509   4.596   2.518 -0.1492 -0.4426  0.4463
 9277TIP3    H149322   0.545   4.635   2.438  0.9649  0.4458  1.3524
 9277TIP3    H249323   0.517   4.665   2.584 -1.2884 -1.0734  1.2806
 9278TIP3   OH249324   0.330   5.615   2.546  0.3027  0.3639 -0.3104
 9278TIP3    H149325   0.263   5.613   2.615 -0.5516 -1.8150 -1.0982
 9278TIP3    H249326   0.282   5.594   2.466  1.5582  1.2109 -1.3195
 9279TIP3   OH249327   3.892   5.622   2.467 -0.4246  0.2095 -0.1642
 9279TIP3    H149328   3.958   5.690   2.483 -1.4006  1.4933 -1.2768
 9279TIP3    H249329   3.929   5.543   2.505  1.0271  1.2352  0.6735
 9280TIP3   OH249330   2.574   6.713   5.479  0.2220 -0.6431  0.1920
 9280TIP3    H149331   2.539   6.762   5.405  1.0838  0.4849  0.5116
 9280TIP3    H249332   2.535   6.754   5.556  1.2374 -0.2102  0.4831
 9281TIP3   OH249333   6.037   1.185  14.188 -0.2430 -0.0347 -0.8213
 9281TIP3    H149334   5.986   1.261  14.218  1.6366  1.7306 -1.8316
 9281TIP3    H249335   6.114   1.185  14.244 -0.5039 -1.6372 -0.4247
 9282TIP3   OH249336   6.487   0.193   0.584 -0.8116 -0.6433  0.4294
 9282TIP3    H149337   6.494   0.110   0.536 -1.5335 -1.2212  1.2851
 9282TIP3    H249338   6.450   0.254   0.521 -0.5432 -1.0415 -0.1290
 9283TIP3   OH249339   1.457   5.223  16.744  0.2241  0.1224 -0.2238
 9283TIP3    H149340   1.511   5.300  16.763 -0.0826  0.1853  0.4355
 9283TIP3    H249341   1.419   5.241  16.658  1.5691 -0.1156 -0.9056
 9284TIP3   OH249342   5.018   6.420   5.107  0.5194  0.4796  0.1839
 9284TIP3    H149343   5.015   6.504   5.151  1.7836  0.7420 -0.1898
 9284TIP3    H249344   5.006   6.440   5.014 -1.5253 -0.0087  0.2956
 9285TIP3   OH249345   4.433   4.437  11.208  0.5264  0.1342  0.7861
 9285TIP3    H149346   4.425   4.407  11.118 -0.9083 -0.3092  1.0383
 9285TIP3    H249347   4.471   4.525  11.201  1.2666 -0.2356 -0.1760
 9286TIP3   OH249348   4.789   5.610   0.914  0.0482 -0.1626  0.3590
 9286TIP3    H149349   4.810   5.517   0.901  0.7766  0.0037  0.3280
 9286TIP3    H249350   4.762   5.640   0.827  1.0486 -0.0368  0.0805
 9287TIP3   OH249351   6.525   4.166   3.049 -0.2301 -0.3507  0.0996
 9287TIP3    H149352   6.573   4.089   3.078 -1.6889 -1.1063  0.5875
 9287TIP3    H249353   6.502   4.213   3.129 -2.1977 -1.1820  0.0737
 9288TIP3   OH249354   1.453   4.927   2.322 -0.0384  0.1357 -0.3253
 9288TIP3    H149355   1.396   4.988   2.275 -2.6695 -2.3868 -0.6671
 9288TIP3    H249356   1.422   4.931   2.413  1.8578  1.4676  0.3304
 9289TIP3   OH249357   3.416   3.448  14.102  0.3084  0.0054 -0.1946
 9289TIP3    H149358   3.347   3.431  14.039  0.1770 -4.1650  0.7850
 9289TIP3    H249359   3.494   3.463  14.049 -0.7046  2.0582 -1.2580
 9290TIP3   OH249360   2.318   2.681   5.095 -0.0074 -0.0331 -0.2160
 9290TIP3    H149361   2.290   2.734   5.021 -0.4044  0.2197  0.1099
 9290TIP3    H249362   2.376   2.738   5.145 -0.7894  0.2467  0.3737
 9291TIP3   OH249363   2.919   0.597  16.413 -0.1777 -0.5147 -0.5387
 9291TIP3    H149364   2.826   0.574  16.414 -0.1215 -1.1587 -3.0148
 9291TIP3    H249365   2.962   0.522  16.370  1.4325 -0.0515  0.1763
 9292TIP3   OH249366   1.051   3.502  14.670  0.2878  0.0392  0.6802
 9292TIP3    H149367   1.143   3.519  14.692  0.8484  0.0456 -1.4196
 9292TIP3    H249368   1.015   3.589  14.651 -0.1010  0.0102  1.2650
 9293TIP3   OH249369   1.190   1.316   5.508 -0.2724  0.5153 -0.1176
 9293TIP3    H149370   1.201   1.254   5.436 -0.3841 -1.3053  1.3390
 9293TIP3    H249371   1.103   1.297   5.543 -0.7189  2.2095 -0.2118
 9294TIP3   OH249372   1.986   1.317  15.565  0.3424 -0.4279 -0.1785
 9294TIP3    H149373   2.080   1.328  15.548  0.5906 -0.1870  1.2507
 9294TIP3    H249374   1.945   1.334  15.480  1.4683  1.3688 -0.4331
 9295TIP3   OH249375   0.309   6.803  15.507 -0.8160 -0.3808 -0.0574
 9295TIP3    H149376   0.259   6.793  15.588 -0.7461 -3.3091 -0.2611
 9295TIP3    H249377   0.388   6.849  15.533 -1.5666  0.2770  1.1730
 9296TIP3   OH249378   0.995   2.445   4.707  0.3408  0.3226  0.0086
 9296TIP3    H149379   0.988   2.495   4.626  1.8504 -0.2084 -0.4811
 9296TIP3    H249380   0.987   2.354   4.680 -3.0703  0.1921  0.9740
 9297TIP3   OH249381   0.840   6.065   0.620 -0.2515  0.3423 -0.1858
 9297TIP3    H149382   0.767   6.118   0.587  0.0519 -0.3226 -2.0556
 9297TIP3    H249383   0.917   6.119   0.609 -0.3089  0.6570  0.8370
 9298TIP3   OH249384   5.062   4.987   5.741 -0.2113 -0.9680  0.3134
 9298TIP3    H149385   5.149   4.985   5.702 -0.6716  1.1042 -0.9600
 9298TIP3    H249386   5.061   5.065   5.795 -2.1188  0.7912 -2.0250
 9299TIP3   OH249387   5.236   2.903   2.420  0.4429 -0.4197 -0.0272
 9299TIP3    H149388   5.239   2.954   2.339  0.1296 -0.0390  0.1989
 9299TIP3    H249389   5.143   2.897   2.442  0.5994  0.6657  1.0485
 9300TIP3   OH249390   0.473   6.681  13.505 -0.1523  1.0083 -0.8206
 9300TIP3    H149391   0.437   6.627  13.435  1.0111  0.3095 -0.8956
 9300TIP3    H249392   0.405   6.747  13.521 -1.6478 -0.4998 -0.6651
 9301TIP3   OH249393   2.810   4.701  14.467  0.9046  0.8002  0.0364
 9301TIP3    H149394   2.813   4.638  14.539  0.8730  1.4091  0.5854
 9301TIP3    H249395   2.812   4.648  14.388  1.0793  0.1237  0.4872
 9302TIP3   OH249396   0.010   4.394  11.156 -0.3502  0.6293 -0.0697
 9302TIP3    H149397  -0.071   4.418  11.111 -1.2309 -1.0604  0.5397
 9302TIP3    H249398  -0.001   4.301  11.177  1.4663  0.5420  0.6347
 9303TIP3   OH249399   5.252   5.676  15.732  0.1789  0.1901  0.0767
 9303TIP3    H149400   5.247   5.598  15.676  2.9416 -1.2112  1.5755
 9303TIP3    H249401   5.197   5.655  15.807  1.9874 -1.0103  1.1346
 9304TIP3   OH249402   1.544   3.386   3.350  0.0969 -0.0489  0.2924
 9304TIP3    H149403   1.469   3.372   3.409  0.3099 -0.7416  0.4075
 9304TIP3    H249404   1.616   3.410   3.408  0.3673 -0.9672  0.3422
 9305TIP3   OH249405   6.581   2.893   2.332  0.0555 -0.0540 -0.3675
 9305TIP3    H149406   6.648   2.866   2.395  1.1871  0.2146 -1.4197
 9305TIP3    H249407   6.514   2.937   2.385  1.4518  1.0391  0.5417
 9306TIP3   OH249408   4.000   2.891   0.856  0.0892  0.3665  0.0565
 9306TIP3    H149409   3.945   2.820   0.890 -1.4582  0.3650 -2.2416
 9306TIP3    H249410   4.066   2.846   0.802  0.9289  0.5428  0.8928
 9307TIP3   OH249411   4.504   6.796  12.348  0.0018 -0.3678 -0.7424
 9307TIP3    H149412   4.495   6.799  12.443 -1.1165 -3.0623 -0.6911
 9307TIP3    H249413   4.578   6.739  12.332 -0.6764 -1.0652 -1.4899
 9308TIP3   OH249414   4.907   5.679  15.150 -0.9465  0.1761 -0.1189
 9308TIP3    H149415   4.988   5.681  15.099 -1.4758  0.5841 -0.9795
 9308TIP3    H249416   4.920   5.608  15.213  0.4128  0.8080  0.3511
 9309TIP3   OH249417   5.146   2.083   3.956  0.3527 -0.3237  0.2803
 9309TIP3    H149418   5.108   1.997   3.943  1.0160 -0.7676  1.1555
 9309TIP3    H249419   5.237   2.073   3.930  0.6290 -0.1081  1.1402
 9310TIP3   OH249420   0.207   0.926  17.222 -0.3700 -0.6077  0.5566
 9310TIP3    H149421   0.177   0.988  17.155  1.9072 -0.9841 -0.9219
 9310TIP3    H249422   0.249   0.981  17.288 -0.7804 -0.3759  0.6259
 9311TIP3   OH249423   0.721   2.419  15.121 -0.1176 -0.0258  0.2580
 9311TIP3    H149424   0.686   2.333  15.098 -0.5112  0.7410 -2.3228
 9311TIP3    H249425   0.644   2.468  15.151 -0.3378  0.1084 -0.5034
 9312TIP3   OH249426   5.152   1.228   3.244 -0.1282  0.4526  0.6739
 9312TIP3    H149427   5.147   1.214   3.150  0.2994  2.1403  0.3722
 9312TIP3    H249428   5.199   1.151   3.277  0.5342  0.2823 -0.6073
 9313TIP3   OH249429   2.453   4.890   5.190  0.5211  0.3556  0.8150
 9313TIP3    H149430   2.379   4.932   5.234  1.4157 -0.1650  2.9766
 9313TIP3    H249431   2.426   4.798   5.181 -0.1234  0.6745 -0.8952
 9314TIP3   OH249432   4.560   4.589  17.090  0.1828  0.6002  0.0401
 9314TIP3    H149433   4.479   4.589  17.142  0.3853  1.2934  0.3801
 9314TIP3    H249434   4.556   4.509  17.038  0.1816 -0.3733  1.4651
 9315TIP3   OH249435   6.448   1.500  14.272  0.4148 -0.6849  0.1519
 9315TIP3    H149436   6.484   1.570  14.217 -3.4180  1.0079 -0.5459
 9315TIP3    H249437   6.478   1.522  14.360 -0.4905  1.8574 -0.0780
 9316TIP3   OH249438   1.226   4.855  13.223  0.1458 -0.2933 -0.3224
 9316TIP3    H149439   1.307   4.865  13.173  0.2826  0.4467  0.0204
 9316TIP3    H249440   1.243   4.782  13.283 -0.2595 -1.6338 -1.7846
 9317TIP3   OH249441   6.633   2.483   3.828 -0.5079 -0.6557  0.1166
 9317TIP3    H149442   6.583   2.416   3.782  1.0518 -0.4096 -2.0849
 9317TIP3    H249443   6.721   2.447   3.836 -0.5663 -0.4597  2.5464
 9318TIP3   OH249444   4.277   1.764  10.859  0.3246 -0.0680  0.2338
 9318TIP3    H149445   4.372   1.768  10.854  0.3992 -0.5468  1.0742
 9318TIP3    H249446   4.247   1.801  10.776  1.2758 -1.9265 -1.0078
 9319TIP3   OH249447   5.135   2.998   3.250 -0.6002 -0.0127 -0.1689
 9319TIP3    H149448   5.207   2.979   3.310  0.3253  0.7889 -0.9776
 9319TIP3    H249449   5.059   2.955   3.289  0.0348  0.1954  1.3796
 9320TIP3   OH249450   1.597   2.563  14.139 -0.0390 -0.0390  0.1927
 9320TIP3    H149451   1.673   2.610  14.104  0.0371  0.3142  0.8325
 9320TIP3    H249452   1.527   2.582  14.077 -0.0028  0.8865  0.4264
 9321TIP3   OH249453   4.318   3.367  16.895  0.2283  0.4265 -1.0874
 9321TIP3    H149454   4.352   3.278  16.885  0.0398  0.4399 -1.9879
 9321TIP3    H249455   4.302   3.377  16.988  2.2964  0.2828 -0.6743
 9322TIP3   OH249456   5.035   6.269   0.132 -0.6033  0.5454  0.4035
 9322TIP3    H149457   5.018   6.342   0.192 -1.8266 -0.3896  1.2352
 9322TIP3    H249458   5.096   6.213   0.180 -1.9399 -0.4376  1.0044
 9323TIP3   OH249459   4.424   0.756  11.590  0.1140 -0.2045 -0.2046
 9323TIP3    H149460   4.468   0.671  11.591 -1.0325 -0.9618 -3.1126
 9323TIP3    H249461   4.489   0.817  11.622  1.7446 -1.8903 -0.1449
 9324TIP3   OH249462   2.552   5.202   4.007  0.1256  0.6598 -0.3400
 9324TIP3    H149463   2.618   5.189   4.075  1.2408 -0.1944 -1.5240
 9324TIP3    H249464   2.504   5.119   4.004 -0.9468  1.2368  0.4329
 9325TIP3   OH249465   5.206   2.131   0.108  0.2662  0.8982  0.1169
 9325TIP3    H149466   5.232   2.105   0.020 -1.2899  0.9385 -0.3831
 9325TIP3    H249467   5.288   2.152   0.152  1.0713  0.9011 -1.3252
 9326TIP3   OH249468   2.249   2.590  15.412 -0.4423 -0.4466 -0.6063
 9326TIP3    H149469   2.266   2.508  15.365  0.9243 -0.1067 -0.7703
 9326TIP3    H249470   2.156   2.607  15.399 -0.3789 -1.0707 -2.0513
 9327TIP3   OH249471   6.216   3.159  11.424  0.3487  0.0954 -0.4615
 9327TIP3    H149472   6.288   3.112  11.466 -0.2236  0.0769  0.5324
 9327TIP3    H249473   6.161   3.188  11.497 -1.4110 -1.1078 -1.2433
 9328TIP3   OH249474   2.266   6.483  12.719  0.6344  0.4256 -0.1425
 9328TIP3    H149475   2.245   6.493  12.812  1.9697  2.2021  0.0192
 9328TIP3    H249476   2.288   6.390  12.709 -0.2151  0.0605  1.1427
 9329TIP3   OH249477   6.451   4.966  10.976  0.2532  0.3674 -0.1054
 9329TIP3    H149478   6.369   5.005  10.945  0.5392  0.6278 -0.5453
 9329TIP3    H249479   6.471   4.899  10.912 -1.0536 -1.6434  1.4572
 9330TIP3   OH249480   4.667   6.261   5.743  0.6534  0.4550  0.3433
 9330TIP3    H149481   4.649   6.355   5.747  0.6406  0.6179 -1.8745
 9330TIP3    H249482   4.606   6.228   5.677  2.4158 -0.5684 -0.8818
 9331TIP3   OH249483   2.051   6.751   4.656  0.2537  0.0616  0.0670
 9331TIP3    H149484   2.043   6.807   4.579 -0.7647  0.4843  0.4652
 9331TIP3    H249485   1.961   6.740   4.687  0.2769 -2.5628 -0.5392
 9332TIP3   OH249486   2.498   4.182   6.239 -0.3340 -0.2605  0.3430
 9332TIP3    H149487   2.546   4.155   6.160  2.1458  2.0181  0.8883
 9332TIP3    H249488   2.556   4.158   6.311 -1.3807 -0.0032  1.2923
 9333TIP3   OH249489   0.692   1.945  16.438 -0.7678 -0.2199  0.2344
 9333TIP3    H149490   0.771   1.893  16.425 -0.1335  0.6038  0.7501
 9333TIP3    H249491   0.658   1.960  16.349  0.8540  1.2572 -0.1820
 9334TIP3   OH249492   6.012   5.110  14.678  0.1017  0.1644 -0.1227
 9334TIP3    H149493   5.956   5.047  14.723 -0.6342  0.1920 -0.9637
 9334TIP3    H249494   6.101   5.089  14.707 -0.2330 -0.6014  0.3723
 9335TIP3   OH249495   1.202   0.865   3.112  0.4076  0.0025  0.2300
 9335TIP3    H149496   1.284   0.914   3.120  0.2390  0.3935 -0.4205
 9335TIP3    H249497   1.191   0.824   3.198  1.5237 -0.4273  0.1901
 9336TIP3   OH249498   3.626   6.029   1.364  0.0956  0.2705 -0.3948
 9336TIP3    H149499   3.601   5.938   1.379  0.9149  0.0974 -0.0205
 9336TIP3    H249500   3.656   6.060   1.449  0.4808  0.6761 -0.6719
 9337TIP3   OH249501   1.546   2.653   5.055 -0.2800 -0.3594  0.2665
 9337TIP3    H149502   1.479   2.695   5.109 -1.7897 -0.0791 -1.7031
 9337TIP3    H249503   1.613   2.626   5.117 -1.5138  0.6826  2.1616
 9338TIP3   OH249504   1.864   5.541  12.450 -0.0395 -0.2848  0.3412
 9338TIP3    H149505   1.931   5.513  12.512  0.4019  1.6848  0.7990
 9338TIP3    H249506   1.797   5.583  12.503  0.9302  2.5761 -0.5098
 9339TIP3   OH249507   6.407   4.720   6.424  0.1381  0.1219  0.1923
 9339TIP3    H149508   6.440   4.655   6.361  0.5098  0.0054  0.5020
 9339TIP3    H249509   6.356   4.781   6.371  0.2421 -0.1171 -0.1857
 9340TIP3   OH249510   6.212   2.755  10.899  0.0156 -0.0392 -0.7068
 9340TIP3    H149511   6.175   2.832  10.941  2.8281  0.6628  0.7186
 9340TIP3    H249512   6.244   2.786  10.815  0.1533  0.0694 -0.6130
 9341TIP3   OH249513   4.645   2.000   0.009 -0.4090 -0.4713 -0.0244
 9341TIP3    H149514   4.715   2.064   0.023 -0.9859 -0.0692  1.1194
 9341TIP3    H249515   4.645   1.986  -0.086 -0.8514  1.8837 -0.4354
 9342TIP3   OH249516   0.716   0.659   3.479 -0.2334  0.3253 -0.1581
 9342TIP3    H149517   0.767   0.658   3.398  0.5653 -1.4251  0.3096
 9342TIP3    H249518   0.627   0.636   3.450  0.2630 -1.3773 -0.4635
 9343TIP3   OH249519   3.959   5.578   6.631 -0.4284  0.3959 -0.6346
 9343TIP3    H149520   3.975   5.654   6.575 -1.2949  0.5305 -0.7009
 9343TIP3    H249521   3.979   5.503   6.576 -1.2505  0.5292 -1.1267
 9344TIP3   OH249522   5.826   2.436   5.449  0.2800 -0.0798 -0.1349
 9344TIP3    H149523   5.842   2.434   5.355 -2.6034 -0.7938 -0.6924
 9344TIP3    H249524   5.760   2.504   5.461 -0.7370 -1.2160  1.0841
 9345TIP3   OH249525   5.703   4.511   0.589 -0.1621  0.0310  0.2155
 9345TIP3    H149526   5.739   4.434   0.632  2.3093  0.6557 -0.5387
 9345TIP3    H249527   5.740   4.509   0.500 -1.4362  1.1658 -0.3818
 9346TIP3   OH249528   6.523   1.751  15.441 -0.1749 -0.1202  0.7945
 9346TIP3    H149529   6.436   1.739  15.403  0.5497 -0.8506 -0.7257
 9346TIP3    H249530   6.537   1.672  15.493 -0.4853  0.0971  1.2208
 9347TIP3   OH249531   3.173   2.632   4.293 -0.2157 -0.2239  0.4255
 9347TIP3    H149532   3.212   2.578   4.224 -1.4183 -0.2025 -0.3063
 9347TIP3    H249533   3.241   2.696   4.315  0.6093 -0.9645  0.1043
 9348TIP3   OH249534   1.233   4.384   4.239 -0.2291 -0.1369 -0.1833
 9348TIP3    H149535   1.181   4.463   4.224 -0.3955 -0.0899  0.6297
 9348TIP3    H249536   1.174   4.312   4.215 -0.4284 -0.0561  0.0639
 9349TIP3   OH249537   1.704   5.683  12.683  0.6747  0.1758 -0.5436
 9349TIP3    H149538   1.678   5.715  12.769  0.5161  1.7560 -1.1533
 9349TIP3    H249539   1.622   5.657  12.641  0.7552 -0.6221 -0.2190
 9350TIP3   OH249540   2.385   1.905   3.724 -0.0101 -0.2072 -0.3240
 9350TIP3    H149541   2.458   1.965   3.742 -0.6987  0.9374 -1.2008
 9350TIP3    H249542   2.327   1.954   3.666 -1.0912 -1.3881 -0.2968
 9351TIP3   OH249543   0.051   1.346  13.985 -0.1832  0.0778 -0.2073
 9351TIP3    H149544   0.006   1.276  14.031 -0.0426  1.1922  1.7087
 9351TIP3    H249545  -0.006   1.367  13.911 -0.5846 -1.5246 -0.3831
 9352TIP3   OH249546   4.716   5.542  15.873 -0.7688  0.4252  0.0179
 9352TIP3    H149547   4.712   5.454  15.836  1.0577 -0.5889  1.9554
 9352TIP3    H249548   4.629   5.579  15.859 -1.3245 -1.3582 -1.6062
 9353TIP3   OH249549   3.485   2.863  12.696 -0.0701 -0.0752  0.7986
 9353TIP3    H149550   3.441   2.895  12.617  1.0437 -0.0589  0.1668
 9353TIP3    H249551   3.416   2.823  12.748 -1.3319  2.2850  1.0735
 9354TIP3   OH249552   0.826   4.787  14.074 -0.3572 -0.4152 -0.4307
 9354TIP3    H149553   0.757   4.750  14.129 -0.4553  0.1647 -0.1595
 9354TIP3    H249554   0.890   4.822  14.135  0.9410 -2.2529 -0.6496
 9355TIP3   OH249555   1.458   0.322   2.024  0.0324  0.3975 -0.2298
 9355TIP3    H149556   1.524   0.278   2.078  1.2466  0.8320 -1.3151
 9355TIP3    H249557   1.374   0.299   2.066  0.7222 -1.5988  0.1927
 9356TIP3   OH249558   2.053   0.965  12.039  0.1042  0.3454 -0.2664
 9356TIP3    H149559   2.022   0.883  12.078 -1.3110  0.6250 -0.7171
 9356TIP3    H249560   2.062   1.025  12.113  0.5223 -0.0323 -0.0076
 9357TIP3   OH249561   4.911   5.327   4.334 -0.1452  0.0290 -0.1299
 9357TIP3    H149562   4.829   5.333   4.383  0.2217  0.7580  0.4070
 9357TIP3    H249563   4.937   5.418   4.320  0.9469 -0.2003  0.3358
 9358TIP3   OH249564   0.863   2.316  13.955 -0.4237  0.2068 -0.7876
 9358TIP3    H149565   0.835   2.228  13.980  0.4925  0.6659  2.2598
 9358TIP3    H249566   0.958   2.307  13.943  0.3241  1.2623  2.9473
 9359TIP3   OH249567   2.157   1.029   1.117  0.6470  0.3130 -0.1033
 9359TIP3    H149568   2.135   1.036   1.210  0.5374 -0.4278 -0.0692
 9359TIP3    H249569   2.201   1.111   1.097 -0.3196  0.9546  0.3318
 9360TIP3   OH249570   3.419   4.137  14.548  0.3574  0.1695 -0.1127
 9360TIP3    H149571   3.468   4.134  14.629  0.0538 -1.0643  0.0561
 9360TIP3    H249572   3.391   4.228  14.539  2.3328  0.8211 -0.0358
 9361TIP3   OH249573   5.721   0.636   3.293  1.0312  0.8071 -0.0734
 9361TIP3    H149574   5.642   0.614   3.344  1.5749 -0.6223  0.1887
 9361TIP3    H249575   5.697   0.716   3.247  0.1725  1.6325  1.6725
 9362TIP3   OH249576   5.116   2.668  14.190 -0.0129 -0.2792 -0.7001
 9362TIP3    H149577   5.158   2.599  14.240 -0.3632  0.5433  0.8181
 9362TIP3    H249578   5.040   2.693  14.243  0.1547  1.3152 -1.1428
 9363TIP3   OH249579   6.089   1.055   3.669  0.2876 -0.1522  0.5357
 9363TIP3    H149580   6.152   1.015   3.729  1.8521  3.0115  1.2291
 9363TIP3    H249581   6.050   1.127   3.719 -0.4185  0.8632 -1.3515
 9364TIP3   OH249582   2.557   3.636  14.192 -0.1853  0.0702  0.1292
 9364TIP3    H149583   2.517   3.722  14.200 -0.5923 -0.2502  2.0551
 9364TIP3    H249584   2.643   3.645  14.233 -1.2115 -0.9885  2.7462
 9365TIP3   OH249585   2.921   6.537   2.872  0.0793  0.0665 -0.4757
 9365TIP3    H149586   3.006   6.576   2.891  0.7931 -1.8069  0.5179
 9365TIP3    H249587   2.885   6.515   2.958  0.0764 -2.0405 -0.9534
 9366TIP3   OH249588   4.723   3.464   3.873 -0.1245  0.0211  0.4876
 9366TIP3    H149589   4.761   3.422   3.796 -0.1234  0.8324  0.0291
 9366TIP3    H249590   4.799   3.493   3.925 -0.0405  1.9265 -0.5844
 9367TIP3   OH249591   6.062   0.864   3.944  0.6219  0.6791 -0.1617
 9367TIP3    H149592   6.031   0.855   4.035 -1.8260  1.6504 -0.8183
 9367TIP3    H249593   5.989   0.830   3.891  1.6477  0.9496 -1.8051
 9368TIP3   OH249594   4.696   0.478  16.792 -0.2578 -0.5926 -0.0009
 9368TIP3    H149595   4.722   0.433  16.872 -1.5875  0.9007  1.3418
 9368TIP3    H249596   4.649   0.412  16.741 -1.2467 -1.0264  1.4309
 9369TIP3   OH249597   0.182   0.483  12.689 -0.0469  0.0437  0.0803
 9369TIP3    H149598   0.139   0.561  12.724  0.2603  0.3855 -0.2990
 9369TIP3    H249599   0.110   0.430  12.655 -0.4778 -0.7727  2.0962
 9370TIP3   OH249600   3.526   2.928   3.720 -0.0563  0.0174  0.6739
 9370TIP3    H149601   3.484   2.861   3.666  1.2152  0.4199 -0.8924
 9370TIP3    H249602   3.525   3.006   3.665 -0.0460  0.8734  1.8421
 9371TIP3   OH249603   3.378   2.785  16.353 -0.2724  0.7456  0.2736
 9371TIP3    H149604   3.391   2.869  16.398  0.9332 -0.5545  2.4589
 9371TIP3    H249605   3.307   2.743  16.401 -0.2264  0.1047 -0.2111
 9372TIP3   OH249606   0.151   0.137  15.321 -0.2963  0.0610 -0.2192
 9372TIP3    H149607   0.094   0.061  15.334 -0.2170  0.2007  1.0001
 9372TIP3    H249608   0.229   0.118  15.373 -0.1903  0.8938 -0.0691
 9373TIP3   OH249609   5.188   5.097  17.199  0.1711 -0.0965  0.0171
 9373TIP3    H149610   5.281   5.077  17.209  0.4989  1.9151  1.7025
 9373TIP3    H249611   5.160   5.122  17.287 -1.8591 -0.1949 -0.5657
 9374TIP3   OH249612   0.229   1.080   3.216 -0.7568  0.6978 -0.0691
 9374TIP3    H149613   0.324   1.079   3.227 -0.7095 -0.3615 -0.4135
 9374TIP3    H249614   0.201   1.167   3.246  0.1925  0.6448  1.0153
 9375TIP3   OH249615   2.850   4.038  13.354  0.0864  0.2826  0.4660
 9375TIP3    H149616   2.754   4.038  13.355 -0.0249 -1.3368 -2.2111
 9375TIP3    H249617   2.873   4.078  13.270  1.7730  0.2443  0.8786
 9376TIP3   OH249618   0.507   4.351   0.007  0.0578 -0.3344 -0.2331
 9376TIP3    H149619   0.503   4.401   0.088  0.0587 -1.2869  0.3640
 9376TIP3    H249620   0.550   4.410  -0.055  1.1286 -0.0164  0.7739
 9377TIP3   OH249621   3.587   0.321   1.628  0.0189  0.7209 -0.0239
 9377TIP3    H149622   3.493   0.308   1.642  0.3752 -0.3818  1.5161
 9377TIP3    H249623   3.612   0.251   1.568  0.4986 -1.3779  2.4423
 9378TIP3   OH249624   5.491   1.302  13.226 -0.4702  0.5631 -0.1928
 9378TIP3    H149625   5.579   1.301  13.264 -0.8759  0.6777  0.7684
 9378TIP3    H249626   5.506   1.306  13.132  0.6085 -2.0033 -0.2117
 9379TIP3   OH249627   6.482   3.731  16.520 -0.1370  0.3140  0.6722
 9379TIP3    H149628   6.411   3.689  16.471 -0.1261 -1.2321  1.9153
 9379TIP3    H249629   6.553   3.739  16.457 -0.6954 -0.0802 -0.0238
 9380TIP3   OH249630   3.928   3.657   2.850 -0.1156  0.0369 -0.5929
 9380TIP3    H149631   3.964   3.743   2.828 -1.5532  0.2547 -2.3344
 9380TIP3    H249632   3.879   3.671   2.931  0.5515  0.5785 -0.2692
 9381TIP3   OH249633   1.766   5.666  14.723  0.1256  0.4898 -0.6280
 9381TIP3    H149634   1.691   5.719  14.751 -0.7079 -1.8225  1.9775
 9381TIP3    H249635   1.742   5.635  14.636 -0.0350  3.0094 -1.5797
 9382TIP3   OH249636   5.314   0.618  13.134  0.3727  0.3043  0.6142
 9382TIP3    H149637   5.328   0.697  13.187  0.8711 -0.7837  2.1910
 9382TIP3    H249638   5.223   0.624  13.105 -0.6723 -0.0893  3.4858
 9383TIP3   OH249639   0.095   6.175   2.677  0.4134  0.7795  0.2851
 9383TIP3    H149640   0.187   6.194   2.663  0.8337  0.2643  2.0252
 9383TIP3    H249641   0.051   6.207   2.599  2.1022  0.6893 -0.7462
 9384TIP3   OH249642   4.190   6.247  13.429  0.1913 -0.2568  0.0937
 9384TIP3    H149643   4.216   6.197  13.507  1.2498  1.2859  0.7893
 9384TIP3    H249644   4.209   6.188  13.356 -3.5329 -2.9069  1.0020
 9385TIP3   OH249645   6.397   6.521  16.770 -0.1777 -0.4526 -0.2031
 9385TIP3    H149646   6.327   6.542  16.709 -0.7460 -0.5549  0.3920
 9385TIP3    H249647   6.475   6.561  16.733  0.0373 -2.5470 -2.2683
 9386TIP3   OH249648   3.510   2.115  11.535 -0.0148 -0.1168  0.2260
 9386TIP3    H149649   3.569   2.105  11.609  0.7121  1.6039 -0.0735
 9386TIP3    H249650   3.446   2.045  11.546  0.7542 -0.6192  1.8198
 9387TIP3   OH249651   6.784   5.475  11.303  0.4324 -0.1005  0.0238
 9387TIP3    H149652   6.824   5.482  11.216 -0.5999 -0.6035 -0.5083
 9387TIP3    H249653   6.775   5.381  11.317  4.0972 -0.2995  2.3602
 9388TIP3   OH249654   6.670   3.861   6.168 -0.0329 -0.3214 -0.2673
 9388TIP3    H149655   6.758   3.823   6.179 -1.1117 -3.1435 -0.6564
 9388TIP3    H249656   6.658   3.916   6.245  1.9477 -0.1006 -0.0526
 9389TIP3   OH249657   3.722   5.487  14.631  0.1176 -0.2575  0.1829
 9389TIP3    H149658   3.699   5.431  14.704 -0.3198 -0.6718 -0.2712
 9389TIP3    H249659   3.667   5.565  14.642  0.2591 -0.1954  0.4520
 9390TIP3   OH249660   1.961   0.092   0.222  0.2365 -0.3333  0.0437
 9390TIP3    H149661   1.885   0.147   0.240 -0.1625 -0.5207 -0.9883
 9390TIP3    H249662   2.024   0.116   0.289 -1.1721 -1.0640  1.7058
 9391TIP3   OH249663   3.303   2.966   5.532  0.3434  0.0215  0.3043
 9391TIP3    H149664   3.318   2.982   5.625 -1.7029  0.9271  0.5366
 9391TIP3    H249665   3.354   2.887   5.513 -0.6890 -1.3345  2.6897
 9392TIP3   OH249666   0.103   3.387  15.695  0.0158  0.1868 -0.0487
 9392TIP3    H149667   0.013   3.395  15.663  0.1726 -0.3477 -0.6395
 9392TIP3    H249668   0.155   3.431  15.628  0.1185  1.4206  0.7982
 9393TIP3   OH249669   3.983   3.363   0.313 -0.9657  0.1386  0.4497
 9393TIP3    H149670   3.898   3.342   0.353 -1.1216 -2.9985 -1.1445
 9393TIP3    H249671   4.047   3.319   0.369 -0.7760 -0.4902 -0.2401
 9394TIP3   OH249672   5.735   0.414  15.477 -0.1910 -0.2426 -0.0263
 9394TIP3    H149673   5.656   0.390  15.526 -0.8560 -0.4994 -1.2100
 9394TIP3    H249674   5.715   0.501  15.442  0.3591  0.0224  0.3106
 9395TIP3   OH249675   0.631   5.886  11.819 -0.4900 -0.5151 -0.0438
 9395TIP3    H149676   0.638   5.833  11.899 -1.5602 -0.2380  0.2526
 9395TIP3    H249677   0.588   5.967  11.847  0.9076  0.4402 -0.5378
 9396TIP3   OH249678   1.381   4.940  16.474  0.0189  0.3107 -0.1077
 9396TIP3    H149679   1.407   4.900  16.556  0.3654  2.1370  0.7329
 9396TIP3    H249680   1.457   4.991  16.446 -0.6456  1.0302 -0.6896
 9397TIP3   OH249681   5.486   5.643   0.457 -0.3033  0.6690 -0.7171
 9397TIP3    H149682   5.558   5.580   0.452  0.5868  1.6202 -0.4110
 9397TIP3    H249683   5.413   5.593   0.492  0.1379 -0.3807 -1.2360
 9398TIP3   OH249684   3.625   6.211  12.075 -0.9141  0.2309  0.2103
 9398TIP3    H149685   3.562   6.178  12.139 -0.7729 -3.7265 -1.4198
 9398TIP3    H249686   3.699   6.151  12.081 -0.7459 -0.0909 -3.3093
 9399TIP3   OH249687   0.808   0.547  13.717 -0.5211  0.3528 -0.3644
 9399TIP3    H149688   0.801   0.580  13.627  1.0957  1.2609 -0.1971
 9399TIP3    H249689   0.750   0.603  13.768 -0.3042  0.8190 -0.6230
 9400TIP3   OH249690   5.675   4.689  10.900 -0.1125  0.3469  0.2766
 9400TIP3    H149691   5.625   4.653  10.827 -1.5296  1.4963  0.6277
 9400TIP3    H249692   5.608   4.723  10.960  1.0888  2.7519  0.3622
 9401TIP3   OH249693   5.312   6.327  12.764  0.3902 -0.4028  0.1039
 9401TIP3    H149694   5.265   6.400  12.722 -0.4429 -0.7241  0.4510
 9401TIP3    H249695   5.383   6.369  12.813 -0.4035  0.2294  0.7359
 9402TIP3   OH249696   6.364   5.166  13.905  0.0921 -0.0801 -0.6105
 9402TIP3    H149697   6.279   5.134  13.935 -0.1282  2.4342  1.8796
 9402TIP3    H249698   6.427   5.100  13.933 -0.7363 -0.4554  0.4115
 9403TIP3   OH249699   2.209   1.414  15.188 -0.2415 -0.2066  0.0994
 9403TIP3    H149700   2.227   1.499  15.227 -1.6099 -0.0961  0.5619
 9403TIP3    H249701   2.264   1.352  15.236  0.7996  0.4216 -0.2772
 9404TIP3   OH249702   1.823   2.506   3.133 -0.0403  0.7039  0.2728
 9404TIP3    H149703   1.826   2.507   3.229  0.6399 -1.0043  0.3187
 9404TIP3    H249704   1.835   2.597   3.107  0.5487  1.0888  1.8018
 9405TIP3   OH249705   0.754   1.080   3.980  0.1300  0.3372 -0.1064
 9405TIP3    H149706   0.782   0.990   3.964  2.1052  0.8059  0.3407
 9405TIP3    H249707   0.795   1.130   3.910 -0.5938  0.9419 -0.1031
 9406TIP3   OH249708   1.252   6.716   2.327  0.6305 -0.0979 -0.3945
 9406TIP3    H149709   1.330   6.663   2.316  1.2178  1.0400 -2.0024
 9406TIP3    H249710   1.220   6.732   2.238  0.6590  2.4789 -0.0097
 9407TIP3   OH249711   4.190   0.164  12.767 -0.5475  0.5272  0.0570
 9407TIP3    H149712   4.270   0.206  12.797  0.1270 -0.7335  0.1023
 9407TIP3    H249713   4.207   0.144  12.675 -0.7875  0.2161  0.0772
 9408TIP3   OH249714   1.337   2.670  10.656  0.3883 -0.4763 -0.2224
 9408TIP3    H149715   1.401   2.637  10.592 -2.7011 -1.9320 -2.8516
 9408TIP3    H249716   1.316   2.758  10.625  0.4473 -0.3565  0.0768
 9409TIP3   OH249717   3.656   1.090   3.956  0.2406 -0.8669 -0.2286
 9409TIP3    H149718   3.720   1.158   3.936  0.4657  0.0514  3.0570
 9409TIP3    H249719   3.572   1.135   3.952 -0.0141 -1.4105 -1.8190
 9410TIP3   OH249720   4.391   0.783   0.542 -0.2148 -0.1552  0.9946
 9410TIP3    H149721   4.361   0.857   0.489  3.1958  1.6535  1.2905
 9410TIP3    H249722   4.382   0.707   0.484 -0.7628  1.0262 -0.5534
 9411TIP3   OH249723   3.051   2.926   2.812  0.4033 -0.5234  0.1495
 9411TIP3    H149724   2.985   2.893   2.871  0.2391 -1.0685 -0.3307
 9411TIP3    H249725   3.083   3.006   2.854 -2.0232  0.9294 -0.5827
 9412TIP3   OH249726   6.651   4.777   1.319 -0.2304  0.5266  0.1071
 9412TIP3    H149727   6.735   4.818   1.337  0.2842  0.0816 -1.1747
 9412TIP3    H249728   6.593   4.850   1.296  0.6145  0.6134 -1.9339
 9413TIP3   OH249729   2.558   0.613  12.551 -0.3023  0.0618 -0.2259
 9413TIP3    H149730   2.643   0.595  12.510  0.6722 -1.1205  2.1328
 9413TIP3    H249731   2.515   0.528  12.557  0.1596 -0.0836  2.2505
 9414TIP3   OH249732   6.719   2.306  12.401  0.0621 -0.1103  0.1624
 9414TIP3    H149733   6.672   2.389  12.402  1.5360  0.7772 -0.6543
 9414TIP3    H249734   6.791   2.320  12.340  0.9883 -1.6297  0.8437
 9415TIP3   OH249735   0.909   1.325   5.052  0.1472  0.1136  0.1466
 9415TIP3    H149736   0.959   1.379   5.113  0.5042 -0.1809  0.1145
 9415TIP3    H249737   0.826   1.372   5.041  1.1876  1.7045 -1.4078
 9416TIP3   OH249738   2.506   1.615   4.411  0.0004 -1.0464 -0.1285
 9416TIP3    H149739   2.502   1.710   4.400  1.5974 -0.9245  0.0771
 9416TIP3    H249740   2.503   1.602   4.506 -1.2288 -1.2846 -0.1863
 9417TIP3   OH249741   3.935   3.791   1.820  0.1953 -0.2114  0.3636
 9417TIP3    H149742   3.959   3.817   1.731  2.0309  2.1898  1.4579
 9417TIP3    H249743   3.923   3.696   1.815 -0.9684 -0.0062 -2.6575
 9418TIP3   OH249744   5.726   5.433  12.183  0.0448  0.2106 -0.2585
 9418TIP3    H149745   5.703   5.526  12.181 -2.1187 -0.2647  0.2656
 9418TIP3    H249746   5.668   5.396  12.249  0.9034 -1.5242 -0.4391
 9419TIP3   OH249747   6.013   6.454   1.725  0.0431 -0.2225  0.2289
 9419TIP3    H149748   6.090   6.490   1.770  0.5201 -1.3189  0.3072
 9419TIP3    H249749   5.964   6.532   1.698 -0.1967  0.5069  2.4865
 9420TIP3   OH249750   3.011   1.079  12.682 -0.2668 -0.7536 -0.1140
 9420TIP3    H149751   3.026   1.172  12.664 -3.5756 -0.4520 -2.1111
 9420TIP3    H249752   3.072   1.033  12.625  1.6822  0.1143  1.1835
 9421TIP3   OH249753   1.064   3.522  15.741  0.3988 -0.4054 -0.2166
 9421TIP3    H149754   1.000   3.464  15.700 -0.4938 -0.6913  1.5030
 9421TIP3    H249755   1.111   3.466  15.802  0.6859  0.3184  0.2341
 9422TIP3   OH249756   6.217   3.014   5.228  0.0658 -0.2230 -0.0092
 9422TIP3    H149757   6.122   3.018   5.235  0.1805  0.6525  1.5502
 9422TIP3    H249758   6.238   3.073   5.154 -0.4778  1.7686  1.3410
 9423TIP3   OH249759   0.258   4.480  14.426 -0.4072  0.2720 -0.0687
 9423TIP3    H149760   0.261   4.542  14.353  1.6737 -1.2474 -1.3666
 9423TIP3    H249761   0.275   4.395  14.387  2.8499 -0.3976  2.3345
 9424TIP3   OH249762   4.407   2.865  11.797  0.2448  0.5569 -0.1466
 9424TIP3    H149763   4.453   2.835  11.875 -0.9651 -2.5420 -0.4528
 9424TIP3    H249764   4.475   2.899  11.740  1.8755 -1.6718  0.3466
 9425TIP3   OH249765   6.115   5.831   1.445 -0.3195 -0.4551 -0.2412
 9425TIP3    H149766   6.114   5.920   1.409  2.0584 -0.0294  0.5553
 9425TIP3    H249767   6.086   5.841   1.535 -1.6390 -0.7885 -0.6016
 9426TIP3   OH249768   5.724   4.109  16.470 -0.6854  0.4173  0.0949
 9426TIP3    H149769   5.703   4.151  16.387 -1.6275 -0.2083  0.0033
 9426TIP3    H249770   5.706   4.016  16.456  0.2552  0.1306  0.6469
 9427TIP3   OH249771   3.739   3.932   4.421 -0.1728 -0.1455  0.2974
 9427TIP3    H149772   3.683   3.953   4.346  1.2516 -0.5176 -0.9177
 9427TIP3    H249773   3.690   3.865   4.469 -0.6073 -0.7341 -0.9370
 9428TIP3   OH249774   0.981   5.065  16.671 -0.2092 -0.2911 -0.0234
 9428TIP3    H149775   0.976   5.112  16.754 -2.2737 -0.0647 -0.2029
 9428TIP3    H249776   1.050   5.110  16.622  0.5920 -0.0128  1.3071
 9429TIP3   OH249777   5.367   1.258   0.555  0.6438 -0.1136 -0.2877
 9429TIP3    H149778   5.437   1.221   0.610  0.3852  1.0600  0.8942
 9429TIP3    H249779   5.354   1.193   0.486  3.2307 -0.1525 -0.8397
 9430TIP3   OH249780   6.815   3.239   0.842  0.5415  0.1134  0.3170
 9430TIP3    H149781   6.849   3.195   0.765  1.8205 -1.1745  1.5502
 9430TIP3    H249782   6.892   3.274   0.886 -0.0171 -0.2709  1.6584
 9431TIP3   OH249783   1.112   5.720  15.762  0.0985  0.3002  0.6659
 9431TIP3    H149784   1.059   5.682  15.692  0.7340  2.4702 -1.1125
 9431TIP3    H249785   1.059   5.709  15.841 -1.7489 -0.0633 -0.5649
 9432TIP3   OH249786   0.352   6.324  12.317 -0.2900  0.1448 -0.2949
 9432TIP3    H149787   0.373   6.405  12.271  0.0739 -0.5195 -1.3448
 9432TIP3    H249788   0.300   6.351  12.392 -1.1538  1.2483 -1.2624
 9433TIP3   OH249789   2.179   1.448   3.777  0.1014  0.2391  0.3444
 9433TIP3    H149790   2.155   1.369   3.826 -1.6379  0.3896 -0.1841
 9433TIP3    H249791   2.201   1.416   3.690 -0.2042  0.2800  0.2486
 9434TIP3   OH249792   0.735   0.511   3.705  0.7595  0.1531  0.0094
 9434TIP3    H149793   0.733   0.551   3.618 -0.4739 -0.0629 -0.0790
 9434TIP3    H249794   0.643   0.509   3.733  1.1530  0.4449  1.4261
 9435TIP3   OH249795   4.440   6.500   4.063  0.0966  0.4023  0.2172
 9435TIP3    H149796   4.490   6.566   4.112 -0.3777  1.3165 -0.4967
 9435TIP3    H249797   4.503   6.464   4.000  0.5580 -0.3799  1.0976
 9436TIP3   OH249798   2.111   0.704   4.360 -0.1039 -0.3181 -0.3229
 9436TIP3    H149799   2.064   0.784   4.382 -0.9576 -0.8809 -0.0575
 9436TIP3    H249800   2.202   0.722   4.384  0.0877  1.2316 -2.0168
 9437TIP3   OH249801   1.099   6.225  12.659  0.4505  0.4608  1.0054
 9437TIP3    H149802   1.149   6.303  12.637  1.1839  0.2843  1.9519
 9437TIP3    H249803   1.028   6.256  12.715 -1.0128  0.8178 -0.9733
 9438TIP3   OH249804   5.131   2.079   5.670  0.3151  0.2808  0.0738
 9438TIP3    H149805   5.090   2.152   5.717 -0.0576  0.7564 -0.9716
 9438TIP3    H249806   5.060   2.036   5.623  0.6584 -0.2792  0.0518
 9439TIP3   OH249807   0.182   5.422  12.692  0.4145  0.2982  0.4309
 9439TIP3    H149808   0.248   5.491  12.698  0.3829  0.4688 -0.8586
 9439TIP3    H249809   0.099   5.467  12.705  0.2719  0.8258 -1.8831
 9440TIP3   OH249810   5.915   2.766   6.348 -0.0956 -0.2510  0.0108
 9440TIP3    H149811   5.894   2.707   6.421 -0.1010 -0.9176 -0.5145
 9440TIP3    H249812   6.003   2.740   6.321 -0.2059 -0.1997 -0.4033
 9441TIP3   OH249813   0.574   0.699  17.114 -0.1433  0.3036 -0.2943
 9441TIP3    H149814   0.499   0.678  17.058  0.9969 -0.7324 -1.5123
 9441TIP3    H249815   0.648   0.654  17.073  0.9337  0.2719  1.5456
 9442TIP3   OH249816   2.187   6.449   3.521 -0.0940 -0.0890  0.0845
 9442TIP3    H149817   2.236   6.491   3.592  0.0109  0.3258 -0.2357
 9442TIP3    H249818   2.218   6.359   3.521 -0.4011 -0.2072  0.8455
 9443TIP3   OH249819   3.331   0.588   1.599  0.3280 -0.1478 -0.4412
 9443TIP3    H149820   3.372   0.625   1.520 -0.2865 -0.2875 -0.8295
 9443TIP3    H249821   3.309   0.665   1.652  0.4734 -0.0362 -0.5397
 9444TIP3   OH249822   1.660   3.037   0.058  0.0889 -0.6514  0.5177
 9444TIP3    H149823   1.730   3.096   0.087 -1.6914  1.3011  1.0530
 9444TIP3    H249824   1.618   3.008   0.139 -0.6560 -0.6126  0.1516
 9445TIP3   OH249825   5.386   0.493  16.667  0.6773 -0.0031  0.0105
 9445TIP3    H149826   5.455   0.460  16.610  0.6397 -0.1502  0.0480
 9445TIP3    H249827   5.400   0.587  16.672  0.8443 -0.0273 -0.0228
 9446TIP3   OH249828   4.440   5.962  13.546  1.0979  0.2523  0.3431
 9446TIP3    H149829   4.368   6.013  13.583  1.1141 -0.0278  0.7699
 9446TIP3    H249830   4.478   5.916  13.621  2.6033  1.4473  0.3469
 9447TIP3   OH249831   2.969   1.023   4.571  0.7094  0.5381 -0.7657
 9447TIP3    H149832   2.895   1.018   4.511  0.1548  0.0044 -0.0557
 9447TIP3    H249833   3.012   0.938   4.564 -0.2891 -0.1437  0.7242
 9448TIP3   OH249834   0.834   0.023   1.424  0.1361  0.0920  0.0301
 9448TIP3    H149835   0.841   0.002   1.330 -0.4507 -0.1467  0.0345
 9448TIP3    H249836   0.918  -0.002   1.460  0.9237  1.5725 -0.6890
 9449TIP3   OH249837   5.288   2.559  12.350  0.6035 -0.4087 -0.3720
 9449TIP3    H149838   5.202   2.540  12.386  1.0738 -2.2186 -0.0680
 9449TIP3    H249839   5.300   2.653  12.361 -1.4161 -0.0916 -0.6512
 9450TIP3   OH249840   2.220   5.147   1.626  0.5774  0.5469 -0.8070
 9450TIP3    H149841   2.274   5.177   1.553 -0.9492 -0.0493 -2.2377
 9450TIP3    H249842   2.140   5.199   1.619 -0.2769 -0.7152 -0.5958
 9451TIP3   OH249843   2.892   1.777   3.298  0.3796 -0.0075 -0.2603
 9451TIP3    H149844   2.810   1.738   3.330 -0.2181  1.0769 -0.4416
 9451TIP3    H249845   2.960   1.729   3.345 -0.3667 -0.7274  0.1193
 9452TIP3   OH249846   1.444   3.701  14.042 -0.2038  0.5624 -0.3664
 9452TIP3    H149847   1.442   3.756  14.120  1.1795  1.7079 -1.0875
 9452TIP3    H249848   1.352   3.682  14.024 -0.5365 -0.6669  2.1329
 9453TIP3   OH249849   1.716   1.488   1.625  0.4887  0.1359  0.3616
 9453TIP3    H149850   1.695   1.439   1.704 -0.7961  1.0321  0.6236
 9453TIP3    H249851   1.724   1.579   1.655 -0.9066  0.6204 -0.6386
 9454TIP3   OH249852   0.596   3.019   5.187 -1.0383  0.5825 -0.2717
 9454TIP3    H149853   0.674   3.050   5.233 -0.6740  1.3334 -1.3442
 9454TIP3    H249854   0.615   2.928   5.167 -0.5819  0.6639 -0.2295
 9455TIP3   OH249855   1.638   3.327  11.333 -0.0213 -0.3580  0.0598
 9455TIP3    H149856   1.722   3.302  11.296  0.8445  0.5437  1.3412
 9455TIP3    H249857   1.641   3.294  11.423 -0.8202  0.1556  0.2839
 9456TIP3   OH249858   2.633   1.230  15.528 -0.3513 -0.4932 -0.0922
 9456TIP3    H149859   2.614   1.176  15.605 -0.8449 -0.7421 -0.3818
 9456TIP3    H249860   2.687   1.302  15.562  0.9186 -1.5376  0.1842
 9457TIP3   OH249861   1.050   3.578   5.533  0.3223 -0.2275  0.6288
 9457TIP3    H149862   1.025   3.628   5.611 -0.7756 -0.5492  0.4912
 9457TIP3    H249863   1.134   3.539   5.556 -0.4604 -1.1595  2.0551
 9458TIP3   OH249864   2.816   0.958   2.351  0.0941 -0.5446  0.2243
 9458TIP3    H149865   2.736   0.994   2.313 -0.0479 -1.6058 -0.5299
 9458TIP3    H249866   2.870   0.935   2.275  0.7637 -0.6055  0.7106
 9459TIP3   OH249867   3.279   1.520  15.263  0.0362 -0.5925 -0.4231
 9459TIP3    H149868   3.362   1.525  15.311  0.0919 -0.5017 -0.5289
 9459TIP3    H249869   3.302   1.545  15.174 -0.0971 -0.6145 -0.4631
 9460TIP3   OH249870   1.159   0.762   0.859 -0.3637  0.6829 -0.5557
 9460TIP3    H149871   1.197   0.708   0.929 -1.1907  0.6724 -0.1001
 9460TIP3    H249872   1.073   0.723   0.843 -0.4084  1.0347 -1.1898
 9461TIP3   OH249873   2.669   2.996  14.254 -0.3473  0.1325 -0.3662
 9461TIP3    H149874   2.663   3.050  14.333 -0.2587  0.1936 -0.4008
 9461TIP3    H249875   2.729   3.044  14.197 -0.0073 -0.1760 -0.2619
 9462TIP3   OH249876   6.507   1.402  11.257  0.3143  0.2472 -0.2300
 9462TIP3    H149877   6.459   1.377  11.179 -0.2939  0.0443  0.2020
 9462TIP3    H249878   6.463   1.356  11.328  0.9552  0.3051  0.2132
 9463TIP3   OH249879   0.858   0.780  12.612  0.3321  0.3664 -0.4648
 9463TIP3    H149880   0.954   0.785  12.615  0.2741  1.3568  0.8929
 9463TIP3    H249881   0.829   0.871  12.614 -0.6398  0.0709  1.0042
 9464TIP3   OH249882   1.432   4.678  14.189  0.0494  0.1461 -0.1932
 9464TIP3    H149883   1.469   4.757  14.149 -0.1733 -0.8117 -2.4066
 9464TIP3    H249884   1.425   4.701  14.282  1.2866  2.2189 -0.5207
 9465TIP3   OH249885   0.637   1.436   0.914 -0.2870  0.1254  0.6644
 9465TIP3    H149886   0.702   1.471   0.853  0.9789 -2.5997  0.2952
 9465TIP3    H249887   0.554   1.476   0.886  0.1526 -1.1855 -3.1850
 9466TIP3   OH249888   0.831   3.141  17.140 -0.1130  0.1941 -0.7499
 9466TIP3    H149889   0.907   3.127  17.083 -0.7178  1.9893 -2.0611
 9466TIP3    H249890   0.850   3.222  17.186 -1.2068  0.6309 -1.0503
 9467TIP3   OH249891   1.136   5.658   5.628  0.1608 -0.2744 -0.1952
 9467TIP3    H149892   1.089   5.736   5.658  0.2297  0.4174 -1.7948
 9467TIP3    H249893   1.157   5.611   5.709 -1.9646  0.1303  0.6777
 9468TIP3   OH249894   1.973   6.239   0.272 -0.2265 -0.2407  0.6453
 9468TIP3    H149895   2.004   6.324   0.303  1.3789 -0.6984  0.3351
 9468TIP3    H249896   1.945   6.194   0.352  0.0539  0.1176  0.9509
 9469TIP3   OH249897   2.796   6.301  13.013 -0.2950  0.1599 -0.3335
 9469TIP3    H149898   2.743   6.229  13.046 -2.2673  1.9643  0.6823
 9469TIP3    H249899   2.882   6.263  12.998 -1.1921 -2.3242  0.3915
 9470TIP3   OH249900   6.320   4.677  10.998  0.1545  0.0999  0.8764
 9470TIP3    H149901   6.254   4.737  11.032 -0.7614 -1.3293  1.7783
 9470TIP3    H249902   6.364   4.725  10.928  1.6330  2.9407  3.5426
 9471TIP3   OH249903   6.416   5.767  13.696 -0.2351  0.2760  0.5705
 9471TIP3    H149904   6.493   5.763  13.754 -0.2014  1.3717  0.6146
 9471TIP3    H249905   6.438   5.833  13.631 -0.1685 -1.1230 -0.8926
 9472TIP3   OH249906   1.358   2.952   2.489  0.8299  0.3310  0.3831
 9472TIP3    H149907   1.322   2.866   2.513  1.2002  0.0005 -0.2227
 9472TIP3    H249908   1.369   2.947   2.394  0.3881  1.2330  0.2765
 9473TIP3   OH249909   2.282   0.225   4.365 -0.0037  0.0867  0.0995
 9473TIP3    H149910   2.296   0.184   4.279  1.2836  1.0035 -0.1607
 9473TIP3    H249911   2.245   0.311   4.345 -1.7665 -0.5216  0.5945
 9474TIP3   OH249912   4.153   3.684   0.994  0.0013  0.6052  0.1250
 9474TIP3    H149913   4.200   3.634   0.927 -1.1793 -0.8637  0.3388
 9474TIP3    H249914   4.066   3.698   0.956 -0.7918 -0.5297  1.4317
 9475TIP3   OH249915   6.005   5.199  15.589 -0.3687  0.2525 -0.1233
 9475TIP3    H149916   6.013   5.223  15.682  0.3903  1.4345 -0.4661
 9475TIP3    H249917   6.013   5.104  15.588 -1.3997  0.1255  1.1174
 9476TIP3   OH249918   0.708   6.773   2.786 -0.5342  0.3700 -0.1884
 9476TIP3    H149919   0.636   6.776   2.722 -0.4435  2.8749 -0.2838
 9476TIP3    H249920   0.787   6.790   2.734 -0.2177  0.4434  0.3148
 9477TIP3   OH249921   3.450   4.846  12.905 -0.1197 -0.1101  0.2309
 9477TIP3    H149922   3.427   4.826  12.996  2.1630 -1.1240  0.6680
 9477TIP3    H249923   3.530   4.899  12.912  0.6990 -1.0839 -1.1668
 9478TIP3   OH249924   5.274   3.113  12.653  0.3889 -0.1264  0.0684
 9478TIP3    H149925   5.315   3.128  12.568  0.5989  0.2962  0.2371
 9478TIP3    H249926   5.190   3.071  12.633  1.6016 -2.6046 -0.2108
 9479TIP3   OH249927   3.237   1.099  15.476  0.4228 -0.1806 -0.3105
 9479TIP3    H149928   3.169   1.144  15.525  0.5766 -1.8073  1.5158
 9479TIP3    H249929   3.310   1.091  15.538  0.8011 -1.9083 -0.9172
 9480TIP3   OH249930   2.845   1.811  10.950  0.7224 -0.5350  0.0040
 9480TIP3    H149931   2.869   1.833  11.040  2.2930 -0.4586 -0.4023
 9480TIP3    H249932   2.925   1.827  10.900  0.2296 -1.7433 -1.2079
 9481TIP3   OH249933   3.930   0.402   2.146 -0.4414  0.0789 -0.1626
 9481TIP3    H149934   3.854   0.431   2.198 -0.0714  1.3861 -0.2966
 9481TIP3    H249935   3.896   0.390   2.058 -1.1278 -2.3956  0.3787
 9482TIP3   OH249936   4.517   4.481   4.771 -0.5503 -0.1438 -0.1916
 9482TIP3    H149937   4.472   4.539   4.710 -0.6303  0.1654  0.1508
 9482TIP3    H249938   4.563   4.418   4.716 -0.0115  0.5815 -0.5982
 9483TIP3   OH249939   1.619   5.791  12.176 -0.2353  0.4525  0.4868
 9483TIP3    H149940   1.707   5.811  12.208  0.8188  2.1847 -3.0583
 9483TIP3    H249941   1.563   5.857  12.217  0.5033  0.8164  0.9291
 9484TIP3   OH249942   5.115   4.575   5.117 -0.5038 -0.5435 -0.1268
 9484TIP3    H149943   5.095   4.586   5.024  1.7736 -2.0164 -0.8813
 9484TIP3    H249944   5.112   4.480   5.131  0.4323 -0.4406  0.9642
 9485TIP3   OH249945   5.354   4.814   5.678 -0.0491  0.5294  0.0581
 9485TIP3    H149946   5.278   4.786   5.627 -0.2067  2.3135 -0.7845
 9485TIP3    H249947   5.423   4.828   5.613  1.2595 -1.6773  0.8759
 9486TIP3   OH249948   1.074   1.638  11.805  0.0716 -0.4844  0.4696
 9486TIP3    H149949   0.988   1.638  11.763  0.9673 -2.2097 -1.5444
 9486TIP3    H249950   1.106   1.549  11.793  2.6957  0.4437 -0.0196
 9487TIP3   OH249951   0.583   6.213  10.912 -0.7499  0.0178  1.2205
 9487TIP3    H149952   0.608   6.122  10.895  0.0626  0.0037  2.3645
 9487TIP3    H249953   0.510   6.229  10.853  2.6824  0.4721 -3.5437
 9488TIP3   OH249954   4.122   6.280  16.256  0.4467  0.9317 -0.4340
 9488TIP3    H149955   4.216   6.300  16.249  0.3034  1.6171 -0.4711
 9488TIP3    H249956   4.079   6.354  16.214 -0.1174  0.6563 -0.3429
 9489TIP3   OH249957   5.249   2.219  14.671 -0.1795 -0.1422 -0.0587
 9489TIP3    H149958   5.184   2.199  14.603 -0.7255 -2.3783  1.0226
 9489TIP3    H249959   5.196   2.242  14.748  0.4277  1.7713 -0.1446
 9490TIP3   OH249960   6.718   1.575   1.362 -0.3133  0.1197  0.0090
 9490TIP3    H149961   6.630   1.572   1.400  0.5848  1.1406  2.3266
 9490TIP3    H249962   6.763   1.499   1.400  0.2086  0.3845 -0.0732
 9491TIP3   OH249963   0.344   6.334  14.724  0.1311 -0.4519  0.0123
 9491TIP3    H149964   0.412   6.302  14.784 -0.7898  0.1346  1.4079
 9491TIP3    H249965   0.294   6.256  14.701  0.6944 -0.7352 -0.2795
 9492TIP3   OH249966   0.519   6.520  16.523  0.2930 -0.2265  0.5817
 9492TIP3    H149967   0.484   6.550  16.439  3.6238  1.1032 -0.5428
 9492TIP3    H249968   0.509   6.425  16.520 -0.6497 -0.1200 -0.8482
 9493TIP3   OH249969   2.255   6.317  11.477  0.5045  0.0708  0.6906
 9493TIP3    H149970   2.270   6.224  11.492  0.9172  0.3981  2.5180
 9493TIP3    H249971   2.163   6.330  11.499  0.8898  0.3960  2.1721
 9494TIP3   OH249972   2.352   6.806  16.453  0.8487 -0.2360  0.8563
 9494TIP3    H149973   2.311   6.748  16.517 -0.7978 -0.1624 -0.0703
 9494TIP3    H249974   2.377   6.748  16.381  1.2127 -0.0972  0.8704
 9495TIP3   OH249975   5.462   6.287   5.648 -0.0700 -0.6281  0.2060
 9495TIP3    H149976   5.529   6.302   5.581  0.1031 -3.9310 -0.5493
 9495TIP3    H249977   5.467   6.364   5.705  1.0384  1.4753 -2.4820
 9496TIP3   OH249978   6.403   5.321  13.637 -0.0720  0.5840  0.0102
 9496TIP3    H149979   6.365   5.329  13.725  2.4600 -0.6627  1.3174
 9496TIP3    H249980   6.463   5.395  13.630 -0.0834  0.5390 -0.6001
 9497TIP3   OH249981   3.844   0.783  12.442 -0.7237  0.0878 -0.0794
 9497TIP3    H149982   3.794   0.828  12.510  0.6396  0.8727  0.4288
 9497TIP3    H249983   3.820   0.691  12.451  0.4364 -0.0411  2.3798
 9498TIP3   OH249984   3.077   1.875  12.419  0.2596  0.5851  0.5288
 9498TIP3    H149985   3.089   1.969  12.408 -1.3069  0.5398 -3.2368
 9498TIP3    H249986   2.987   1.865  12.449  0.3412  0.2962  0.6792
 9499TIP3   OH249987   6.561   6.082  16.210  0.2058 -0.2210 -0.0002
 9499TIP3    H149988   6.539   6.155  16.152  0.9632  1.8822  2.1560
 9499TIP3    H249989   6.490   6.081  16.275  1.0960 -0.2142  1.0046
 9500TIP3   OH249990   0.803   3.992  14.682  0.2492  0.2375 -0.2105
 9500TIP3    H149991   0.787   3.989  14.777 -1.4866 -0.2268 -0.4944
 9500TIP3    H249992   0.843   4.078  14.668 -0.7681  0.8957  0.7721
 9501TIP3   OH249993   1.413   6.664  14.303 -0.2380  0.2522 -0.5661
 9501TIP3    H149994   1.465   6.741  14.280  0.5953  0.0539  0.5673
 9501TIP3    H249995   1.467   6.617  14.366  0.0059 -2.1477 -2.4493
 9502TIP3   OH249996   2.435   6.706  15.302 -0.3365  0.1467 -0.1060
 9502TIP3    H149997   2.364   6.768  15.290  0.2351  0.8003 -0.1453
 9502TIP3    H249998   2.493   6.748  15.366 -1.5464 -1.7064  2.4240
 9503TIP3   OH249999   5.079   0.629  13.957 -0.0034  0.8539  0.1505
 9503TIP3    H150000   5.014   0.654  13.892  0.5564  0.6910 -0.4784
 9503TIP3    H250001   5.163   0.653  13.919  0.4145 -0.2298  0.3325
 9504TIP3   OH250002   2.566   3.404   0.256  0.3493 -0.0555  0.5298
 9504TIP3    H150003   2.476   3.397   0.286  0.0874  1.1717  0.0806
 9504TIP3    H250004   2.610   3.328   0.293 -0.8340 -0.5874  0.8736
 9505TIP3   OH250005   1.154   5.705   2.720  0.1778  0.8003  0.6342
 9505TIP3    H150006   1.189   5.617   2.706  1.2020  1.5891 -2.6559
 9505TIP3    H250007   1.228   5.756   2.754  0.2370  0.8982  0.3597
 9506TIP3   OH250008   5.746   1.535  13.721 -0.3195  0.4477 -0.1952
 9506TIP3    H150009   5.797   1.473  13.669 -0.6596  1.4821 -1.8059
 9506TIP3    H250010   5.693   1.479  13.779  0.8534 -0.6980 -0.1831
 9507TIP3   OH250011   5.665   3.582   3.040  0.0186  0.6556 -0.0788
 9507TIP3    H150012   5.606   3.622   2.976 -1.0894  0.0319  0.5280
 9507TIP3    H250013   5.729   3.535   2.987 -1.3444 -0.5190 -0.7524
 9508TIP3   OH250014   3.928   0.149  17.297  0.7411 -0.5141  0.0574
 9508TIP3    H150015   3.965   0.082  17.239  1.5848 -0.9311  1.0430
 9508TIP3    H250016   3.987   0.150  17.372  0.2657  0.7627  0.4349
 9509TIP3   OH250017   4.649   4.891  16.446  0.1796 -0.2116 -0.0621
 9509TIP3    H150018   4.644   4.981  16.480  2.1551 -0.2984  0.5986
 9509TIP3    H250019   4.631   4.900  16.353 -0.4754  0.7438  0.1379
 9510TIP3   OH250020   1.728   0.398  11.625 -0.0424  0.0460 -0.0433
 9510TIP3    H150021   1.747   0.394  11.719  0.2510 -0.7090 -0.1199
 9510TIP3    H250022   1.634   0.381  11.619  0.4331 -3.4338 -0.0408
 9511TIP3   OH250023   3.831   4.543   2.246 -0.4911 -0.3764 -0.2150
 9511TIP3    H150024   3.807   4.563   2.156 -1.4920  1.4252  0.4108
 9511TIP3    H250025   3.776   4.600   2.299  2.0961  0.7705  1.4467
 9512TIP3   OH250026   5.667   6.271  16.122 -0.0881  0.4204 -0.3639
 9512TIP3    H150027   5.705   6.183  16.114  1.8581  1.4041 -4.3454
 9512TIP3    H250028   5.722   6.314  16.188  0.2215 -0.7166  0.1557
 9513TIP3   OH250029   3.748   4.860   1.689  0.1604  0.5556  0.0816
 9513TIP3    H150030   3.733   4.919   1.615  4.1918  0.7299 -0.8157
 9513TIP3    H250031   3.690   4.892   1.758 -1.3764  2.4184 -1.9316
 9514TIP3   OH250032   3.730   6.300   0.617 -0.6357  0.7371 -0.4084
 9514TIP3    H150033   3.722   6.374   0.557  1.6169  0.8934 -0.5984
 9514TIP3    H250034   3.800   6.246   0.580 -1.0950 -0.6231  0.6218
 9515TIP3   OH250035   2.581   1.054   2.236 -0.0056  0.0194  0.1881
 9515TIP3    H150036   2.503   1.095   2.273 -0.3630 -1.6456  1.4082
 9515TIP3    H250037   2.548   1.000   2.164  0.2575  0.5884 -0.3732
 9516TIP3   OH250038   6.187   5.275   0.023 -0.5625 -0.8606 -0.1571
 9516TIP3    H150039   6.261   5.261   0.083 -0.9815  1.7502  1.1427
 9516TIP3    H250040   6.112   5.239   0.070 -0.7857  0.5982  0.6632
 9517TIP3   OH250041   1.602   3.116  15.091 -0.5255 -0.2369  0.3224
 9517TIP3    H150042   1.517   3.102  15.049 -0.2993  0.6528 -0.4772
 9517TIP3    H250043   1.623   3.208  15.072  0.6840 -0.4861  0.3647
 9518TIP3   OH250044   4.425   6.211  14.660  0.3982  0.0880  0.2975
 9518TIP3    H150045   4.434   6.192  14.566 -0.3691  1.6261 -0.1162
 9518TIP3    H250046   4.396   6.128  14.698 -2.7164  0.2768 -1.3852
 9519TIP3   OH250047   4.176   4.749   0.537  0.4216 -0.1250 -0.4692
 9519TIP3    H150048   4.133   4.833   0.519 -1.6032 -1.2342 -1.0956
 9519TIP3    H250049   4.235   4.735   0.463 -0.4394 -0.0090 -1.1793
 9520TIP3   OH250050   5.690   2.261   0.326  0.1260  0.7176 -0.1875
 9520TIP3    H150051   5.778   2.235   0.297 -0.0615 -0.9421  0.6308
 9520TIP3    H250052   5.671   2.340   0.275  1.1441 -0.1900 -2.0839
 9521TIP3   OH250053   4.589   4.250  11.942 -0.1103 -0.0096 -0.3236
 9521TIP3    H150054   4.494   4.247  11.940 -0.1007 -2.9479 -2.1841
 9521TIP3    H250055   4.613   4.212  12.027 -0.5801  0.8330  0.1908
 9522TIP3   OH250056   0.043   6.043  16.574  0.1877 -0.7370 -0.1861
 9522TIP3    H150057  -0.016   6.109  16.609 -0.0944 -0.4175 -1.2222
 9522TIP3    H250058   0.100   6.091  16.514  0.5547 -1.2943 -0.2962
 9523TIP3   OH250059   1.575   0.042  14.149  0.6658  0.5586  0.2215
 9523TIP3    H150060   1.585   0.120  14.095  1.6627 -0.7376 -1.5741
 9523TIP3    H250061   1.564  -0.029  14.087  2.1448 -1.0583  1.6915
 9524TIP3   OH250062   5.097   1.826   3.974  0.2561 -0.3937  0.6815
 9524TIP3    H150063   5.024   1.804   4.032  0.0570 -0.7937  0.2831
 9524TIP3    H250064   5.062   1.815   3.885  0.4128  0.6645  0.4658
 9525TIP3   OH250065   6.158   3.719  14.848 -0.5782 -0.3991 -1.0920
 9525TIP3    H150066   6.209   3.682  14.920  1.5926  1.3633 -1.6030
 9525TIP3    H250067   6.145   3.646  14.788 -0.3190 -1.3469 -0.0359
 9526TIP3   OH250068   1.908   1.391  14.630  0.2560 -0.0931 -0.4337
 9526TIP3    H150069   1.882   1.448  14.703 -1.3227 -1.1741 -0.1061
 9526TIP3    H250070   2.003   1.396  14.629  0.2532  0.9234  0.9078
 9527TIP3   OH250071   1.494   0.191  16.552 -0.2807 -0.2160 -0.3319
 9527TIP3    H150072   1.583   0.208  16.521 -0.0546 -1.1674 -0.2377
 9527TIP3    H250073   1.463   0.276  16.584  0.3428  0.2679 -0.9870
 9528TIP3   OH250074   0.839   3.581   4.259  0.0294 -0.1518 -0.3106
 9528TIP3    H150075   0.794   3.588   4.343  0.5382  0.1608 -0.0603
 9528TIP3    H250076   0.824   3.491   4.231 -0.6454 -0.0909 -0.1736
 9529TIP3   OH250077   2.618   1.273   5.632  0.1279 -0.3921 -0.0636
 9529TIP3    H150078   2.623   1.335   5.559 -1.3929 -0.6816 -0.4413
 9529TIP3    H250079   2.682   1.205   5.610  0.4838  0.0954 -0.5672
 9530TIP3   OH250080   1.503   4.308  15.404  0.0364 -0.3204 -0.4679
 9530TIP3    H150081   1.416   4.347  15.413  0.8835  1.2680  2.0363
 9530TIP3    H250082   1.515   4.257  15.484  3.0796  3.4043  1.8104
 9531TIP3   OH250083   5.454   6.810   3.285  0.0696  0.0473  0.7984
 9531TIP3    H150084   5.426   6.724   3.318  1.0873 -0.8777 -0.5938
 9531TIP3    H250085   5.408   6.820   3.202  0.2412  0.6834  0.7783
 9532TIP3   OH250086   1.702   3.514  13.916 -0.1267 -0.1576 -0.4348
 9532TIP3    H150087   1.770   3.557  13.863 -1.0878 -0.3990 -1.9250
 9532TIP3    H250088   1.651   3.586  13.953  0.2827  0.0098 -0.1916
 9533TIP3   OH250089   1.442   4.854   5.413  0.3834  0.6628 -0.2883
 9533TIP3    H150090   1.465   4.936   5.368 -4.6383  1.6261 -1.7289
 9533TIP3    H250091   1.400   4.883   5.494 -0.6531 -0.5063 -0.3897
 9534TIP3   OH250092   6.307   2.719   3.000 -0.1410  0.1932 -0.2252
 9534TIP3    H150093   6.277   2.760   3.081 -0.6840  2.6518 -1.5675
 9534TIP3    H250094   6.244   2.649   2.983  0.1133 -0.4973  1.5490
 9535TIP3   OH250095   3.084   6.823   1.724  0.1157  0.6025 -0.7917
 9535TIP3    H150096   3.140   6.775   1.785 -0.5668 -0.2572 -0.8225
 9535TIP3    H250097   3.103   6.915   1.742  1.4605  0.3479 -0.7284
 9536TIP3   OH250098   4.788   2.242   1.469  0.9033 -0.4762 -0.3514
 9536TIP3    H150099   4.797   2.188   1.548 -0.3467 -1.1753 -0.6519
 9536TIP3    H250100   4.767   2.179   1.400  1.1116  0.2237 -1.0579
 9537TIP3   OH250101   6.543   0.050   5.751  0.2679  0.2079 -0.2359
 9537TIP3    H150102   6.589  -0.029   5.781  1.6944  1.4919  1.1510
 9537TIP3    H250103   6.450   0.028   5.759  0.6220 -1.5401 -0.5257
 9538TIP3   OH250104   4.228   1.293   3.519 -0.1836 -1.0039  0.7528
 9538TIP3    H150105   4.243   1.282   3.425 -0.0841 -0.5351  0.7087
 9538TIP3    H250106   4.138   1.264   3.532 -1.8088  2.9019 -0.2792
 9539TIP3   OH250107   5.669   5.818   3.868 -0.1787  0.1152 -0.0152
 9539TIP3    H150108   5.724   5.784   3.797 -0.2091  0.8566 -0.3978
 9539TIP3    H250109   5.721   5.803   3.947  0.0911 -0.2144 -0.2483
 9540TIP3   OH250110   1.417   1.886   0.836 -0.0416  0.2397  0.1152
 9540TIP3    H150111   1.482   1.934   0.786  0.3807 -1.2562 -0.8483
 9540TIP3    H250112   1.333   1.924   0.809  0.3639  2.6089  1.8348
 9541TIP3   OH250113   5.000   2.454   0.478 -0.3443  0.4664  0.2828
 9541TIP3    H150114   4.953   2.381   0.518 -0.2822 -0.5835 -1.4640
 9541TIP3    H250115   5.091   2.423   0.472 -0.0506  1.2151  0.7052
 9542TIP3   OH250116   1.635   1.224   5.153  0.0508  0.0430 -0.1360
 9542TIP3    H150117   1.698   1.277   5.105  0.6700  0.9769  1.6119
 9542TIP3    H250118   1.687   1.178   5.219 -0.8050 -0.8683 -0.0626
 9543TIP3   OH250119   0.104   1.777  12.700 -0.3085  0.0935  0.3262
 9543TIP3    H150120   0.106   1.711  12.630 -0.3342  0.3075  0.1237
 9543TIP3    H250121   0.138   1.856  12.659 -3.3613  1.1571 -0.4496
 9544TIP3   OH250122   3.544   3.598   1.265 -0.1192 -0.2590  0.0183
 9544TIP3    H150123   3.469   3.637   1.310 -0.6925  0.5464 -1.5582
 9544TIP3    H250124   3.506   3.527   1.213  0.1077  0.4591 -1.1610
 9545TIP3   OH250125   0.480   4.693   1.742  0.4626 -0.4491  0.2989
 9545TIP3    H150126   0.492   4.666   1.651  2.1404 -0.2823  0.4268
 9545TIP3    H250127   0.514   4.620   1.794  2.6014  0.7502  0.6921
 9546TIP3   OH250128   1.066   6.180   4.594  0.3295  0.6984 -0.5031
 9546TIP3    H150129   0.998   6.156   4.658  0.8678  1.8310  0.5361
 9546TIP3    H250130   1.028   6.156   4.510 -0.4473 -0.7661  0.2070
 9547TIP3   OH250131   5.493   4.853  10.195  0.0086 -0.0971  0.8262
 9547TIP3    H150132   5.572   4.898  10.163 -1.0875  0.5242 -1.2062
 9547TIP3    H250133   5.514   4.760  10.187  1.2524  0.0173  2.2900
 9548TIP3   OH250134   2.791   2.184   4.211  0.0312 -0.2950  0.5221
 9548TIP3    H150135   2.818   2.272   4.238  1.1910 -0.8820  1.3728
 9548TIP3    H250136   2.721   2.199   4.148  1.1766  1.2730 -0.4402
 9549TIP3   OH250137   5.703   4.689  16.721  0.1683 -0.0435  0.4031
 9549TIP3    H150138   5.709   4.594  16.716 -1.0300 -0.0643 -1.9450
 9549TIP3    H250139   5.627   4.712  16.667  0.6189  2.2684  0.6145
 9550TIP3   OH250140   4.528   1.285   1.145  0.4851  0.4766 -0.0201
 9550TIP3    H150141   4.496   1.234   1.220  0.9598 -0.4699 -0.4377
 9550TIP3    H250142   4.513   1.228   1.070  2.4234  0.2899 -0.3192
 9551TIP3   OH250143   0.621   4.214  12.757  0.0103  0.0467 -0.1248
 9551TIP3    H150144   0.698   4.203  12.812 -0.4062  0.5315  0.5593
 9551TIP3    H250145   0.651   4.189  12.669  0.4870 -1.4445  0.4316
 9552TIP3   OH250146   3.378   0.641   3.072 -0.1355  0.2065  0.2897
 9552TIP3    H150147   3.355   0.591   2.993 -0.3972  1.4613 -0.4528
 9552TIP3    H250148   3.297   0.684   3.098 -0.1223 -0.4498  1.4460
 9553TIP3   OH250149   4.750   2.799   1.831 -0.2354  0.0612  0.1459
 9553TIP3    H150150   4.757   2.802   1.736 -1.6845  1.1762  0.0459
 9553TIP3    H250151   4.830   2.840   1.862 -0.3576  0.9187 -0.6326
 9554TIP3   OH250152   0.520   0.561   5.561 -0.1269 -0.2844 -0.5559
 9554TIP3    H150153   0.564   0.646   5.556  0.0404 -0.0110  2.7643
 9554TIP3    H250154   0.462   0.559   5.485  1.5396  1.7596 -2.0078
 9555TIP3   OH250155   0.989   5.628  16.996 -0.8407 -0.2793 -0.9074
 9555TIP3    H150156   1.066   5.587  16.957 -1.0976 -0.1949 -1.5218
 9555TIP3    H250157   0.998   5.721  16.975 -0.2911 -0.0172  0.4313
 9556TIP3   OH250158   4.863   1.443  16.759  0.3895 -0.6335  0.0716
 9556TIP3    H150159   4.917   1.492  16.697  0.0884  0.5743  0.7336
 9556TIP3    H250160   4.916   1.436  16.838  0.1856 -0.8442  0.1925
 9557TIP3   OH250161   5.432   5.949   2.807 -0.1281 -0.5855 -0.0436
 9557TIP3    H150162   5.493   5.995   2.865  2.2738 -1.7692 -1.4584
 9557TIP3    H250163   5.350   5.946   2.856  0.8719  1.2228  1.9221
 9558TIP3   OH250164   5.370   5.180   2.152  0.3203  0.1066  0.1148
 9558TIP3    H150165   5.349   5.244   2.085  0.4957  0.1455  0.0971
 9558TIP3    H250166   5.444   5.218   2.200  0.0290  0.2024  0.4989
 9559TIP3   OH250167   3.045   5.987   5.463 -0.2870 -0.5190 -0.0494
 9559TIP3    H150168   3.042   6.055   5.395 -1.7153  0.3080  0.7876
 9559TIP3    H250169   2.954   5.961   5.476  0.0325 -1.1764  1.0448
 9560TIP3   OH250170   3.575   5.681   2.082  0.0366  0.4697  0.5489
 9560TIP3    H150171   3.512   5.619   2.119 -0.2878  1.0221  0.9456
 9560TIP3    H250172   3.543   5.767   2.111 -0.4578  0.9788 -1.3328
 9561TIP3   OH250173   0.436   6.003  14.894 -0.0509 -0.1440 -0.4408
 9561TIP3    H150174   0.445   5.950  14.972 -0.0287 -0.9081 -0.9498
 9561TIP3    H250175   0.517   5.989  14.846 -0.2303 -0.0045 -0.7912
 9562TIP3   OH250176   3.762   6.142  13.134 -0.2934  0.1522  0.5267
 9562TIP3    H150177   3.732   6.130  13.044  0.6918 -0.0232  0.2115
 9562TIP3    H250178   3.728   6.228  13.159 -0.1249  0.4333 -0.1948
 9563TIP3   OH250179   0.159   1.213  13.090  0.1764  0.1628  0.1125
 9563TIP3    H150180   0.072   1.245  13.113  0.5795  1.8172 -0.5398
 9563TIP3    H250181   0.190   1.168  13.169 -0.4595  1.3381  1.0559
 9564TIP3   OH250182   0.664   4.717  16.272  0.3195  0.6439  0.4007
 9564TIP3    H150183   0.720   4.746  16.344  2.7671  1.2201 -1.5951
 9564TIP3    H250184   0.593   4.782  16.270 -1.2248 -0.7153  3.6702
 9565TIP3   OH250185   4.353   0.642   2.911 -0.2018  0.1707 -0.0420
 9565TIP3    H150186   4.261   0.623   2.892 -0.4486 -0.2101  1.3653
 9565TIP3    H250187   4.350   0.691   2.993  0.9043 -1.2463  0.9010
 9566TIP3   OH250188   1.831   4.229   2.701  0.5910  0.3278 -0.4748
 9566TIP3    H150189   1.870   4.148   2.669  3.1317  1.4263 -0.3941
 9566TIP3    H250190   1.745   4.231   2.661  0.9842 -1.7284 -1.5824
 9567TIP3   OH250191   3.410   3.256   2.047  0.5835  0.4535 -0.0002
 9567TIP3    H150192   3.414   3.305   2.130 -0.2606  1.6679 -0.6418
 9567TIP3    H250193   3.389   3.167   2.074  2.3398  0.3552  1.2214
 9568TIP3   OH250194   4.695   0.459  10.653 -0.7706  0.1438 -0.0263
 9568TIP3    H150195   4.616   0.411  10.677 -0.7911  0.0836 -0.2116
 9568TIP3    H250196   4.757   0.392  10.623 -0.1592  0.0377  1.3893
 9569TIP3   OH250197   5.555   2.952   0.553 -0.4813  0.8992  0.1087
 9569TIP3    H150198   5.567   2.931   0.460 -1.0314  2.1287 -0.2596
 9569TIP3    H250199   5.462   2.969   0.562 -1.0562 -2.3061  1.6020
 9570TIP3   OH250200   6.468   3.936  11.513 -0.4222  0.7455 -0.5347
 9570TIP3    H150201   6.422   3.905  11.435  0.9938  1.2654 -1.6263
 9570TIP3    H250202   6.420   3.897  11.586 -0.6860 -1.2838 -1.7095
 9571TIP3   OH250203   6.421   2.496   1.977  0.2512 -0.4210  0.1684
 9571TIP3    H150204   6.448   2.555   2.046 -1.2717 -0.5744  0.9377
 9571TIP3    H250205   6.440   2.408   2.011  1.2930 -0.4404 -0.4283
 9572TIP3   OH250206   2.916   6.601  13.970 -0.4038  0.5330  0.0051
 9572TIP3    H150207   2.856   6.597  13.896 -1.3578  0.8652  0.7333
 9572TIP3    H250208   3.003   6.600  13.931 -0.8233  3.9044 -1.4015
 9573TIP3   OH250209   0.551   0.705  12.110 -0.2973  0.1270 -0.5181
 9573TIP3    H150210   0.606   0.669  12.180 -0.2476 -0.4449 -0.8438
 9573TIP3    H250211   0.512   0.628  12.069  1.1635  0.3156 -2.3634
 9574TIP3   OH250212   2.272   1.099  13.817  0.3916  0.4915 -0.1698
 9574TIP3    H150213   2.323   1.099  13.736  0.6623  1.0158 -0.0026
 9574TIP3    H250214   2.338   1.101  13.886  0.1482  1.7638  0.0456
 9575TIP3   OH250215   0.845   1.161  15.097 -0.2116 -0.0370  0.2761
 9575TIP3    H150216   0.802   1.115  15.169  0.2686 -0.2566  0.4260
 9575TIP3    H250217   0.936   1.132  15.101 -0.4185 -0.9573 -1.1573
 9576TIP3   OH250218   2.775   1.594   3.922  0.4149  0.6058 -0.3693
 9576TIP3    H150219   2.842   1.561   3.981 -0.7325  0.1752  0.7355
 9576TIP3    H250220   2.754   1.520   3.865  0.8372  0.7308 -0.6928
 9577TIP3   OH250221   6.379   2.499   2.403 -0.3078 -0.2387  0.1948
 9577TIP3    H150222   6.303   2.543   2.441  1.0336  1.5076  1.0175
 9577TIP3    H250223   6.345   2.416   2.370 -2.9253  1.1993 -1.0529
 9578TIP3   OH250224   0.656   6.284  13.940  0.0742 -0.2740 -0.3173
 9578TIP3    H150225   0.573   6.238  13.926  0.2809 -1.4574  1.8694
 9578TIP3    H250226   0.631   6.365  13.984 -0.0732  0.4520 -1.7048
 9579TIP3   OH250227   0.284   2.571   1.191  0.5327  0.7845  0.3528
 9579TIP3    H150228   0.212   2.511   1.206 -0.0940  1.3295 -0.4087
 9579TIP3    H250229   0.358   2.515   1.166  0.8488  0.0914  2.6364
 9580TIP3   OH250230   0.860   1.782  15.204 -0.3943  0.2024  0.5102
 9580TIP3    H150231   0.945   1.811  15.170  1.0986 -1.8370  2.2145
 9580TIP3    H250232   0.829   1.719  15.139 -0.4013  0.6205  0.0995
 9581TIP3   OH250233   1.705   6.814   2.021  0.1473 -0.3723 -0.4686
 9581TIP3    H150234   1.617   6.814   1.983 -0.2425 -2.3552  0.3344
 9581TIP3    H250235   1.748   6.890   1.980 -1.7316  0.3211 -1.2890
 9582TIP3   OH250236   3.581   1.915  15.025  0.3652  0.6607 -0.2821
 9582TIP3    H150237   3.529   1.936  15.102 -2.7712 -4.3161 -0.5509
 9582TIP3    H250238   3.663   1.880  15.060  0.6707  2.0817  0.5045
 9583TIP3   OH250239   1.954   4.790   4.324 -0.2388  0.3972  0.3472
 9583TIP3    H150240   1.936   4.884   4.325 -0.5596  0.3291  0.9417
 9583TIP3    H250241   1.882   4.750   4.372  0.0273 -0.1342  0.3182
 9584TIP3   OH250242   3.248   5.916  12.184 -0.2429 -0.4338  0.0084
 9584TIP3    H150243   3.206   5.831  12.169  0.3480 -0.3665 -2.4680
 9584TIP3    H250244   3.341   5.898  12.177 -0.1161  0.4121 -0.7186
 9585TIP3   OH250245   2.806   0.547   4.287 -0.2092  0.6534  0.2324
 9585TIP3    H150246   2.800   0.459   4.250  0.3977  0.8814 -0.4334
 9585TIP3    H250247   2.820   0.533   4.380 -3.4138  0.0785  0.7220
 9586TIP3   OH250248   0.348   5.851  16.483 -1.0537 -0.3895  0.1666
 9586TIP3    H150249   0.407   5.864  16.557 -0.8728 -2.6077  0.4834
 9586TIP3    H250250   0.316   5.761  16.493 -2.1888 -0.2403 -1.6301
 9587TIP3   OH250251   5.935   1.568   2.663 -0.3459 -0.3642 -0.0481
 9587TIP3    H150252   5.916   1.620   2.741 -1.8881 -0.7210 -0.1477
 9587TIP3    H250253   5.866   1.592   2.601  0.9881  0.0805 -1.4062
 9588TIP3   OH250254   1.008   3.249  15.248  0.1175 -0.3163 -0.6418
 9588TIP3    H150255   1.026   3.204  15.331 -1.8452 -0.4109 -0.2247
 9588TIP3    H250256   1.056   3.332  15.256  1.5513 -1.1295 -0.2726
 9589TIP3   OH250257   6.465   2.669   2.181  0.1041  0.3894  0.4125
 9589TIP3    H150258   6.523   2.745   2.183 -0.8906  1.3420 -2.1162
 9589TIP3    H250259   6.450   2.648   2.273  1.3319  2.5345  1.1814
 9590TIP3   OH250260   4.506   6.548   0.037 -0.1146  0.3607  0.4179
 9590TIP3    H150261   4.419   6.547   0.077 -1.0381 -0.2963 -1.4583
 9590TIP3    H250262   4.540   6.459   0.051 -0.5151  0.0746 -0.3683
 9591TIP3   OH250263   0.588   4.006   1.302 -0.5577 -0.3070  0.6092
 9591TIP3    H150264   0.611   3.915   1.284 -0.1199  0.0361 -0.7061
 9591TIP3    H250265   0.672   4.049   1.320 -0.5954  0.1169 -0.1823
 9592TIP3   OH250266   1.588   1.244   1.291  0.1883 -0.0183  0.2233
 9592TIP3    H150267   1.676   1.207   1.296  0.5791  0.7929 -0.3831
 9592TIP3    H250268   1.599   1.325   1.242 -1.1280 -0.6401 -1.1919
 9593TIP3   OH250269   3.475   2.211  13.024  0.6284  0.5414  0.6835
 9593TIP3    H150270   3.481   2.274  13.095  1.1554 -1.2836  2.3656
 9593TIP3    H250271   3.386   2.178  13.028 -0.2063  2.3089 -1.3138
 9594TIP3   OH250272   1.864   2.637   1.672 -0.3715 -0.1050 -0.0370
 9594TIP3    H150273   1.881   2.631   1.578  0.6591 -0.9259  0.1887
 9594TIP3    H250274   1.791   2.577   1.687 -2.7421  2.3909 -0.7822
 9595TIP3   OH250275   5.960   6.812   2.534 -0.3194 -0.0701 -0.6919
 9595TIP3    H150276   5.933   6.811   2.442 -0.5741 -1.8040 -0.6485
 9595TIP3    H250277   5.986   6.902   2.551 -1.3940  0.5554 -2.1341
 9596TIP3   OH250278   4.548   6.576  15.063  0.0746 -0.0690 -0.1203
 9596TIP3    H150279   4.477   6.592  15.002  0.2249 -2.3029 -0.9699
 9596TIP3    H250280   4.552   6.480  15.072  1.0699  0.1078  2.1880
 9597TIP3   OH250281   1.668   5.933  13.410 -0.4440 -0.0371 -0.3735
 9597TIP3    H150282   1.649   6.022  13.438 -1.5153 -0.1802 -0.6155
 9597TIP3    H250283   1.709   5.892  13.486  1.9236  1.2225 -0.8953
 9598TIP3   OH250284   6.142   1.562  14.277  0.1719 -0.1800 -0.1760
 9598TIP3    H150285   6.143   1.653  14.247 -0.0101  0.0857  0.5980
 9598TIP3    H250286   6.219   1.523  14.235  0.1577  0.2823 -0.6506
 9599TIP3   OH250287   0.261   2.854  14.498  0.1258  0.1892 -0.0608
 9599TIP3    H150288   0.204   2.854  14.576 -1.0063 -0.0412 -0.8629
 9599TIP3    H250289   0.228   2.927  14.445  0.3454 -0.1850 -0.7134
 9600TIP3   OH250290   0.965   6.662  11.722 -0.2940 -0.3462  0.2324
 9600TIP3    H150291   0.969   6.658  11.818  0.3170 -1.1475  0.1815
 9600TIP3    H250292   0.932   6.750  11.703 -1.7355 -0.6244  1.2147
 9601TIP3   OH250293   5.084   0.448   5.448 -0.1943  0.4036  0.4435
 9601TIP3    H150294   5.179   0.448   5.448 -0.1869  0.4725 -0.3209
 9601TIP3    H250295   5.059   0.536   5.476 -0.0407  0.2234  1.1523
 9602TIP3   OH250296   2.928   0.077  13.562 -0.0621  0.3024  0.1369
 9602TIP3    H150297   2.935  -0.019  13.567  0.6962  0.2398 -1.5361
 9602TIP3    H250298   2.908   0.104  13.651  1.7489 -1.2576  1.0854
 9603TIP3   OH250299   3.351   2.845   3.072  0.5828  0.1731  0.5199
 9603TIP3    H150300   3.285   2.839   3.142  1.5624 -4.8859  1.3420
 9603TIP3    H250301   3.306   2.811   2.995  1.2449 -0.1035  0.2540
 9604TIP3   OH250302   6.769   2.876  17.180 -0.1932  0.0597  0.0895
 9604TIP3    H150303   6.778   2.818  17.256 -1.2472  2.3520  2.1141
 9604TIP3    H250304   6.675   2.893  17.174 -0.0469  0.5114 -1.2824
 9605TIP3   OH250305   6.124   3.186  11.173  0.0233  0.2378 -0.2834
 9605TIP3    H150306   6.149   3.173  11.264 -0.8833  1.5578  0.1823
 9605TIP3    H250307   6.207   3.206  11.128  0.3921  0.1966  0.3686
 9606TIP3   OH250308   3.404   3.858   1.407 -0.1226 -0.0247 -0.0926
 9606TIP3    H150309   3.410   3.912   1.486  0.6011 -1.8713  1.1635
 9606TIP3    H250310   3.323   3.888   1.364 -0.6155  0.9202  1.4143
 9607TIP3   OH250311   1.148   4.607  15.784  0.1412 -0.3807 -0.0866
 9607TIP3    H150312   1.149   4.618  15.879  1.9901 -1.6726  0.1126
 9607TIP3    H250313   1.197   4.526  15.770 -0.5271 -0.4744 -2.1275
 9608TIP3   OH250314   0.741   4.369   5.468  0.1231 -0.0342  0.4432
 9608TIP3    H150315   0.675   4.386   5.535  0.0354  0.0899  0.3262
 9608TIP3    H250316   0.740   4.448   5.413  1.4284  0.6319  1.3217
 9609TIP3   OH250317   0.245   6.008  17.140  0.3672  0.4271  0.1980
 9609TIP3    H150318   0.297   6.083  17.111  1.1008  0.0749  0.5815
 9609TIP3    H250319   0.249   5.946  17.068  2.3101 -0.5099  1.0527
 9610TIP3   OH250320   2.505   2.583   4.868  0.1134 -0.2853 -0.2022
 9610TIP3    H150321   2.571   2.551   4.930  0.8428 -1.2033 -1.4026
 9610TIP3    H250322   2.423   2.544   4.897  0.6533 -1.6977 -0.4686
 9611TIP3   OH250323   4.342   4.625   3.858  0.3934 -0.3930  0.0842
 9611TIP3    H150324   4.409   4.669   3.911 -0.8392  1.7007  0.0404
 9611TIP3    H250325   4.259   4.651   3.898 -0.5814  0.9305 -2.5118
 9612TIP3   OH250326   0.744   1.461  12.406 -0.4164  0.7910 -0.1739
 9612TIP3    H150327   0.711   1.376  12.377  1.0836 -1.1989  3.3560
 9612TIP3    H250328   0.834   1.464  12.375 -0.3115  0.8582  0.1323
 9613TIP3   OH250329   4.880   2.445  14.538 -0.1598 -0.0684 -0.1818
 9613TIP3    H150330   4.837   2.518  14.493 -0.7441 -0.8755 -0.9630
 9613TIP3    H250331   4.831   2.368  14.511 -0.7246 -0.5730  2.0883
 9614TIP3   OH250332   2.339   3.177   2.924 -0.6648 -0.4784 -0.4666
 9614TIP3    H150333   2.299   3.102   2.969  0.2923 -0.8460 -0.1992
 9614TIP3    H250334   2.410   3.205   2.983 -0.3494 -0.0273 -1.0568
 9615TIP3   OH250335   3.051   1.060  15.241  0.2463 -0.1092 -0.5882
 9615TIP3    H150336   3.010   1.129  15.188  0.2108 -0.0914 -0.5374
 9615TIP3    H250337   3.135   1.097  15.267 -0.0735  0.1924  0.0310
 9616TIP3   OH250338   6.190   6.766  13.997  0.3302  0.2813  0.3436
 9616TIP3    H150339   6.230   6.743  13.913  1.1649  1.4662  0.4050
 9616TIP3    H250340   6.260   6.754  14.061  0.3178  1.4611  0.5851
 9617TIP3   OH250341   6.799   0.758  15.175  0.1967 -0.3513 -0.2777
 9617TIP3    H150342   6.752   0.701  15.235  1.1834 -2.5089 -1.4202
 9617TIP3    H250343   6.891   0.732  15.185  1.0887  2.7870  0.9165
 9618TIP3   OH250344   4.270   4.133  17.315  0.4239  0.7512  0.5328
 9618TIP3    H150345   4.292   4.133  17.408  1.0368  0.3132  0.3932
 9618TIP3    H250346   4.355   4.137  17.270  0.1886 -0.2292 -0.0156
 9619TIP3   OH250347   3.136   6.764  12.432 -0.0475 -0.1324 -0.5690
 9619TIP3    H150348   3.152   6.744  12.524 -0.2217  0.3076 -0.4398
 9619TIP3    H250349   3.108   6.681  12.394 -1.0757 -0.0788  0.0336
 9620TIP3   OH250350   0.020   1.896  13.510 -0.2512  0.1528 -0.3510
 9620TIP3    H150351  -0.059   1.948  13.522 -0.4232  0.3628 -2.1316
 9620TIP3    H250352   0.008   1.852  13.426  1.9638  1.0769 -1.2460
 9621TIP3   OH250353   4.105   4.430   5.161 -0.0698  0.4577  0.1180
 9621TIP3    H150354   4.040   4.392   5.221 -0.0858  0.8030  0.3246
 9621TIP3    H250355   4.155   4.491   5.216 -0.2287  0.9390 -0.2688
 9622TIP3   OH250356   1.921   3.074   2.351  0.0082 -0.0995 -0.6814
 9622TIP3    H150357   1.860   3.148   2.346  1.2597  0.9437 -1.0181
 9622TIP3    H250358   1.918   3.046   2.442 -1.2981 -0.3617 -0.7863
 9623TIP3   OH250359   3.349   4.108   5.950 -0.0841  0.3329 -0.3795
 9623TIP3    H150360   3.409   4.055   5.898  1.3843  1.3021  0.2861
 9623TIP3    H250361   3.316   4.174   5.888  0.0811  0.2446 -0.5634
 9624TIP3   OH250362   5.566   0.965  15.428 -0.5884 -0.0794 -0.0669
 9624TIP3    H150363   5.602   1.037  15.480  0.4203 -1.0812  0.6472
 9624TIP3    H250364   5.540   1.006  15.346  0.5269  0.9968  0.0919
 9625TIP3   OH250365   2.845   5.974  10.796 -0.2535 -0.3279 -0.8197
 9625TIP3    H150366   2.894   5.914  10.852  0.2445  0.6526 -0.1743
 9625TIP3    H250367   2.753   5.946  10.805 -0.2929  0.3061  1.1458
 9626TIP3   OH250368   4.818   3.293   5.247  0.8162  0.1373 -0.1226
 9626TIP3    H150369   4.896   3.346   5.261  1.2952  0.3496 -3.0160
 9626TIP3    H250370   4.851   3.203   5.241  0.4773 -0.0873  1.1151
 9627TIP3   OH250371   3.158   5.428  14.048  0.3778 -0.0309 -0.2993
 9627TIP3    H150372   3.161   5.399  13.957 -0.9173 -0.9461 -0.0926
 9627TIP3    H250373   3.246   5.413  14.082  0.1375 -2.5413 -0.5984
 9628TIP3   OH250374   4.884   4.074  16.110  0.1484  1.0567  0.1252
 9628TIP3    H150375   4.904   4.121  16.030 -0.4382 -0.9151 -1.2499
 9628TIP3    H250376   4.794   4.099  16.131 -1.2421 -1.4129 -2.2095
 9629TIP3   OH250377   4.192   0.829  12.748 -0.2355  0.4757  0.3187
 9629TIP3    H150378   4.267   0.873  12.787  0.5788  2.4092 -3.0021
 9629TIP3    H250379   4.154   0.895  12.689 -2.9536 -1.3022 -0.0857
 9630TIP3   OH250380   6.561   0.809   3.844  0.7517  0.1637  0.1755
 9630TIP3    H150381   6.603   0.830   3.761 -0.8785 -1.2199 -1.0748
 9630TIP3    H250382   6.629   0.763   3.894  2.8576  3.8587  1.1046
 9631TIP3   OH250383   3.642   0.863   4.896 -0.3013 -0.2780 -0.0628
 9631TIP3    H150384   3.615   0.937   4.950 -1.0982  1.1179 -2.2254
 9631TIP3    H250385   3.561   0.835   4.853  0.4316 -0.7943 -1.1423
 9632TIP3   OH250386   5.317   5.620   2.908 -0.2840 -0.1285 -0.4153
 9632TIP3    H150387   5.264   5.645   2.833  0.8541 -1.2930 -1.6681
 9632TIP3    H250388   5.257   5.573   2.965 -1.0896  0.4767 -0.7361
 9633TIP3   OH250389   6.100   3.983   3.123  0.5290 -0.0896  0.0227
 9633TIP3    H150390   6.082   4.068   3.082  2.8059  0.4829  0.0421
 9633TIP3    H250391   6.172   3.947   3.071 -0.1666 -1.8884  0.2326
 9634TIP3   OH250392   1.721   4.446  11.379 -0.4277 -0.2539  0.5460
 9634TIP3    H150393   1.653   4.513  11.377 -0.6596 -0.5018 -1.7175
 9634TIP3    H250394   1.717   4.405  11.293  1.7044 -1.1773  0.8313
 9635TIP3   OH250395   6.454   1.891  11.117 -0.1437 -0.0468 -0.0571
 9635TIP3    H150396   6.490   1.970  11.078 -0.9168  1.3647  1.9232
 9635TIP3    H250397   6.361   1.912  11.131  0.2389 -0.0678  3.2461
 9636TIP3   OH250398   1.937   0.303  12.441  0.1370 -0.0639  0.1941
 9636TIP3    H150399   1.903   0.271  12.524 -0.7488 -0.1476 -0.1951
 9636TIP3    H250400   1.922   0.232  12.379 -0.6450  0.5899 -0.3805
 9637TIP3   OH250401   2.075   5.087   0.542 -0.3136  0.0622 -0.3051
 9637TIP3    H150402   2.029   5.003   0.540  1.2477 -0.8471 -0.1576
 9637TIP3    H250403   2.028   5.139   0.607 -2.2063 -0.1180 -1.4586
 9638TIP3   OH250404   0.780   5.646   3.593  0.2567  0.4798  0.0786
 9638TIP3    H150405   0.759   5.654   3.500 -1.2551 -1.4455  0.1841
 9638TIP3    H250406   0.806   5.734   3.619  0.7027  1.0875 -2.1462
 9639TIP3   OH250407   5.391   1.527   5.497 -0.2197 -0.1683 -0.1724
 9639TIP3    H150408   5.459   1.477   5.451  1.0089 -0.2245  1.6111
 9639TIP3    H250409   5.330   1.460   5.529 -0.6118 -0.1943 -0.9434
 9640TIP3   OH250410   1.363   5.870  10.501 -0.4190 -0.2561  0.1005
 9640TIP3    H150411   1.285   5.822  10.472  0.1364 -0.6885 -0.7015
 9640TIP3    H250412   1.436   5.828  10.456  0.5590 -1.2212  2.4148
 9641TIP3   OH250413   0.018   2.127  11.135 -0.0296  0.2334  0.8178
 9641TIP3    H150414  -0.020   2.211  11.160  0.3711  0.5458  0.4011
 9641TIP3    H250415   0.112   2.139  11.146  0.3191  0.8922 -2.2280
 9642TIP3   OH250416   0.621   1.173  13.989  0.0657 -0.3618  0.5936
 9642TIP3    H150417   0.560   1.112  13.949  0.0558 -0.4046  0.6736
 9642TIP3    H250418   0.638   1.238  13.921  0.8488 -0.9961  0.1512
 9643TIP3   OH250419   3.966   5.828  15.056 -0.7167 -0.0059 -0.1806
 9643TIP3    H150420   3.947   5.817  14.962  1.3587 -1.2671 -0.5288
 9643TIP3    H250421   3.930   5.750  15.097 -1.7958  0.6383  0.1414
 9644TIP3   OH250422   0.904   6.208  13.811  0.3235  0.6071 -0.1132
 9644TIP3    H150423   0.869   6.262  13.882  2.1970  2.4138 -0.4600
 9644TIP3    H250424   0.996   6.196  13.834  0.1922 -1.6444 -0.5878
 9645TIP3   OH250425   4.906   0.755  11.651 -0.1530  0.0604  0.6788
 9645TIP3    H150426   4.893   0.788  11.740 -3.0357  1.8691 -0.2891
 9645TIP3    H250427   4.933   0.831  11.601 -1.1642 -0.3120 -0.4823
 9646TIP3   OH250428   3.176   2.038   0.876 -0.2278  0.6054 -0.1314
 9646TIP3    H150429   3.096   2.069   0.920 -0.3706 -0.2165  0.2112
 9646TIP3    H250430   3.239   2.027   0.947 -0.2981 -0.2384 -0.1915
 9647TIP3   OH250431   4.599   4.465  15.110 -0.3430 -0.2805  0.3707
 9647TIP3    H150432   4.553   4.501  15.034  0.1627  2.1258  1.1293
 9647TIP3    H250433   4.530   4.428  15.165 -1.3960  2.4211  1.0348
 9648TIP3   OH250434   0.646   6.223  11.671  0.0228 -0.2202 -0.1236
 9648TIP3    H150435   0.669   6.141  11.714  0.8892 -0.9810 -1.9332
 9648TIP3    H250436   0.680   6.214  11.582 -0.0771  2.0128 -0.4452
 9649TIP3   OH250437   5.503   6.120  14.991  0.2813  0.1120  0.2474
 9649TIP3    H150438   5.567   6.071  14.939 -0.6635 -0.5976 -0.2898
 9649TIP3    H250439   5.541   6.206  15.002  2.2001 -0.8331  1.5624
 9650TIP3   OH250440   6.814   3.939  12.965 -0.0186  1.1550 -0.3312
 9650TIP3    H150441   6.834   3.897  12.881 -0.1172 -0.3616  0.3793
 9650TIP3    H250442   6.826   4.032  12.948 -0.5378  0.9231 -2.1684
 9651TIP3   OH250443   2.701   5.836   5.042 -0.1909 -0.1152 -0.5217
 9651TIP3    H150444   2.718   5.859   4.951  0.3484  0.7251 -0.2229
 9651TIP3    H250445   2.609   5.859   5.056  0.0348  0.8461 -0.5466
 9652TIP3   OH250446   2.989   6.029  17.304  0.1815  0.3324 -0.0943
 9652TIP3    H150447   2.896   6.049  17.298  0.1966  0.3087 -0.3944
 9652TIP3    H250448   2.994   5.960  17.371 -0.0508  0.1108 -0.3000
 9653TIP3   OH250449   6.381   1.878  13.460  0.5420 -0.3206 -0.6005
 9653TIP3    H150450   6.398   1.784  13.456  0.6951 -0.4522  1.7422
 9653TIP3    H250451   6.286   1.885  13.468  0.6049 -0.3620  0.3008
 9654TIP3   OH250452   0.297   2.719   6.142  0.1281 -0.5682  0.6622
 9654TIP3    H150453   0.346   2.763   6.212  0.6728 -1.2163  0.6952
 9654TIP3    H250454   0.218   2.687   6.185 -0.2504  0.3239  0.6489
 9655TIP3   OH250455   4.341   4.202  15.749  0.1439  0.0851  0.0099
 9655TIP3    H150456   4.385   4.150  15.816  0.3514 -0.6174 -0.6710
 9655TIP3    H250457   4.276   4.143  15.711  0.8181  0.1140 -1.2118
 9656TIP3   OH250458   2.344   1.612   2.758 -0.2538  1.0007  0.1852
 9656TIP3    H150459   2.305   1.565   2.832 -2.3857  2.5993  0.1486
 9656TIP3    H250460   2.428   1.567   2.743 -0.8978 -0.9464  1.9354
 9657TIP3   OH250461   6.815   5.118  15.237  0.4221 -0.4327 -0.0888
 9657TIP3    H150462   6.842   5.209  15.232  1.7766 -0.8181 -0.1538
 9657TIP3    H250463   6.814   5.098  15.330  2.4094 -0.9684 -0.1390
 9658TIP3   OH250464   0.595   1.226   0.073  0.6376 -0.3043 -0.1695
 9658TIP3    H150465   0.525   1.162   0.082  1.2123 -0.8047  0.8935
 9658TIP3    H250466   0.661   1.199   0.137  0.1059  2.3923  1.6919
 9659TIP3   OH250467   4.295   4.471  12.087 -0.2860  0.0568  0.4312
 9659TIP3    H150468   4.227   4.526  12.128  0.6029  0.9970  0.6803
 9659TIP3    H250469   4.329   4.417  12.159 -1.6858 -1.4277  0.0395
 9660TIP3   OH250470   0.796   6.267  14.736  0.4249  0.1366  0.1696
 9660TIP3    H150471   0.733   6.198  14.755  0.1720  0.4065  0.3269
 9660TIP3    H250472   0.755   6.347  14.771  0.4631  0.4568 -0.4977
 9661TIP3   OH250473   5.143   2.813   0.599  0.1080  0.3925 -0.8265
 9661TIP3    H150474   5.066   2.772   0.640  0.9491  0.1113  0.5502
 9661TIP3    H250475   5.190   2.740   0.559  0.8211  0.1924  0.3211
 9662TIP3   OH250476   2.058   4.379  13.702 -0.7040  0.5502 -0.1918
 9662TIP3    H150477   2.021   4.308  13.754  0.9196  0.7571  1.3509
 9662TIP3    H250478   2.105   4.334  13.631 -0.2940  0.1010  0.3552
 9663TIP3   OH250479   5.047   5.942  12.442  0.4090  0.2670 -0.0285
 9663TIP3    H150480   5.062   6.035  12.423 -1.1375  0.3751 -0.9087
 9663TIP3    H250481   5.082   5.896  12.366  1.0589  0.1259  0.3494
 9664TIP3   OH250482   3.074   5.050  16.977 -0.6890  0.1800  0.0530
 9664TIP3    H150483   3.082   4.955  16.963  3.2732  0.5150 -1.2252
 9664TIP3    H250484   3.080   5.087  16.890  0.6245  1.6720  0.7401
 9665TIP3   OH250485   3.815   4.120  14.761 -0.1955 -0.1867  0.5193
 9665TIP3    H150486   3.806   4.103  14.855 -0.4882  1.9101  0.9242
 9665TIP3    H250487   3.725   4.138  14.732  0.1948  1.7309  0.4201
 9666TIP3   OH250488   3.798   2.760   1.130  0.0102  0.2927  0.3893
 9666TIP3    H150489   3.765   2.820   1.062 -0.1747  1.3911  1.4188
 9666TIP3    H250490   3.752   2.678   1.112  0.4714  0.3442 -1.2217
 9667TIP3   OH250491   6.566   1.374   1.890  0.0297  0.6852  0.3652
 9667TIP3    H150492   6.476   1.343   1.880 -0.6359  0.9569  3.9454
 9667TIP3    H250493   6.610   1.347   1.810 -2.1827 -3.3432  0.2483
 9668TIP3   OH250494   3.829   3.497   5.202 -0.2383  0.2402 -0.3230
 9668TIP3    H150495   3.761   3.442   5.238  0.3221 -0.0953  0.2412
 9668TIP3    H250496   3.787   3.543   5.129 -1.7141  1.8167  1.4434
 9669TIP3   OH250497   3.567   0.598   5.690 -0.2260  0.2121 -0.1894
 9669TIP3    H150498   3.623   0.630   5.620 -0.0237  0.6703  0.1762
 9669TIP3    H250499   3.519   0.675   5.720 -0.0058  0.1121  0.4474
 9670TIP3   OH250500   3.792   1.555  10.922  0.3342  0.3499  0.4937
 9670TIP3    H150501   3.847   1.560  11.001  1.2358 -0.9198 -0.0171
 9670TIP3    H250502   3.826   1.624  10.865  0.2548  0.7085  0.8817
 9671TIP3   OH250503   0.941   3.454  12.024  0.0236 -0.0820 -0.0201
 9671TIP3    H150504   0.905   3.380  11.975  1.5611 -0.7248 -0.2466
 9671TIP3    H250505   0.981   3.510  11.958  0.9322 -0.2693  0.3518
 9672TIP3   OH250506   5.500   4.695   2.376  0.0507  0.5570  0.5664
 9672TIP3    H150507   5.420   4.649   2.349 -0.2612  0.7540  1.1367
 9672TIP3    H250508   5.493   4.781   2.334 -0.8213  1.1523  1.8787
 9673TIP3   OH250509   2.828   4.102  17.170 -0.2318  0.4424 -0.2344
 9673TIP3    H150510   2.772   4.074  17.242 -1.2291 -0.1882 -1.2158
 9673TIP3    H250511   2.794   4.055  17.094  1.9312 -0.3113 -0.7985
 9674TIP3   OH250512   2.981   3.067   4.937  0.1967  0.1804 -0.2702
 9674TIP3    H150513   2.935   3.105   4.863  2.2101 -0.1851 -1.7956
 9674TIP3    H250514   2.978   3.134   5.005 -1.7942  0.4635 -0.6013
 9675TIP3   OH250515   4.440   6.492  11.664 -0.2869  0.2245 -0.2810
 9675TIP3    H150516   4.356   6.513  11.704 -0.1992 -0.7061  0.4356
 9675TIP3    H250517   4.491   6.572  11.669 -0.9035  0.6095 -0.1367
 9676TIP3   OH250518   4.811   1.439  11.018 -0.5564 -0.0850  0.0973
 9676TIP3    H150519   4.784   1.510  11.075 -0.0323 -0.6040  1.0118
 9676TIP3    H250520   4.811   1.361  11.074  1.0021 -0.4257 -0.3091
 9677TIP3   OH250521   6.559   1.352   2.950  0.4065  0.5371  0.0705
 9677TIP3    H150522   6.595   1.396   2.872 -0.0929 -0.2334 -0.6137
 9677TIP3    H250523   6.528   1.267   2.917  0.8192 -0.0879  1.2501
 9678TIP3   OH250524   5.124   5.305   6.220  0.1190  0.1120 -0.3385
 9678TIP3    H150525   5.137   5.400   6.225  3.0583 -0.1551 -0.6893
 9678TIP3    H250526   5.038   5.290   6.258 -1.0924  3.0372 -1.6308
 9679TIP3   OH250527   4.738   6.027  12.794  0.4658 -0.0892 -0.4157
 9679TIP3    H150528   4.735   6.095  12.862 -0.6259  0.6158 -1.1442
 9679TIP3    H250529   4.820   6.045  12.747  1.0240 -0.3315  0.4293
 9680TIP3   OH250530   1.294   5.833   6.156  0.3512  0.0676 -0.0518
 9680TIP3    H150531   1.267   5.922   6.180  0.0619  0.0450 -0.2802
 9680TIP3    H250532   1.239   5.776   6.210 -0.2032  0.0180 -0.6481
 9681TIP3   OH250533   5.414   0.275   4.524  0.3449  0.1344 -0.8688
 9681TIP3    H150534   5.450   0.249   4.609 -1.1639  0.1666 -0.1894
 9681TIP3    H250535   5.415   0.195   4.472  0.5889 -0.0573 -0.5736
 9682TIP3   OH250536   3.045   3.544  15.961 -0.0838  0.0100  0.5080
 9682TIP3    H150537   3.101   3.576  16.031  1.2717  1.0746 -0.9998
 9682TIP3    H250538   3.098   3.478  15.915 -0.9678 -0.7102  0.4780
 9683TIP3   OH250539   2.368   3.853   2.199  0.2569 -0.3954  0.0131
 9683TIP3    H150540   2.429   3.836   2.128  0.5413  1.5905 -0.2918
 9683TIP3    H250541   2.409   3.816   2.277  0.4476 -1.6480 -0.6712
 9684TIP3   OH250542   3.262   3.297   5.534 -0.2547  0.5458 -0.0186
 9684TIP3    H150543   3.211   3.272   5.611 -2.1549  0.6296 -1.1827
 9684TIP3    H250544   3.352   3.303   5.566 -0.7850 -0.7030  1.8869
 9685TIP3   OH250545   4.487   6.254  15.751  0.0041  0.2284  0.0312
 9685TIP3    H150546   4.527   6.302  15.824 -0.9485  0.3535  0.4860
 9685TIP3    H250547   4.488   6.315  15.678 -1.6059  1.1420  0.7254
 9686TIP3   OH250548   4.992   3.352  14.166  0.3840  0.0336 -0.1288
 9686TIP3    H150549   5.030   3.402  14.095  1.2023  1.1223  1.0281
 9686TIP3    H250550   5.034   3.386  14.245 -0.6799 -0.9445  0.9116
 9687TIP3   OH250551   6.742   3.073   4.847  0.1698  0.3600  0.1028
 9687TIP3    H150552   6.678   3.138   4.878  0.7434  0.1481  1.9000
 9687TIP3    H250553   6.706   2.989   4.873  0.2129  0.0772 -0.7340
 9688TIP3   OH250554   2.230   4.924   5.323  0.4138  0.2041 -0.5265
 9688TIP3    H150555   2.263   4.912   5.412  1.0520  1.8391 -0.5078
 9688TIP3    H250556   2.149   4.873   5.320  2.0247 -2.6143 -0.0467
 9689TIP3   OH250557   1.526   4.291  15.706  0.7584  0.4733  0.6884
 9689TIP3    H150558   1.505   4.226  15.773  0.7798  1.4302  1.6625
 9689TIP3    H250559   1.599   4.252  15.657 -0.9699 -1.4031 -0.5383
 9690TIP3   OH250560   0.716   1.919   1.773 -0.0265  0.3293 -0.1050
 9690TIP3    H150561   0.775   1.970   1.718  1.0130  0.1563  0.8207
 9690TIP3    H250562   0.673   1.858   1.712 -0.2253  1.3136 -0.9880
 9691TIP3   OH250563   1.717   0.549  17.190 -0.0619 -0.0670  0.0193
 9691TIP3    H150564   1.762   0.476  17.234  0.3870 -0.6882 -1.4254
 9691TIP3    H250565   1.683   0.602  17.262  2.3989  0.0792  1.1660
 9692TIP3   OH250566   3.473   0.536   5.244 -0.7022 -0.0769  0.5371
 9692TIP3    H150567   3.459   0.562   5.153 -2.3102 -0.0542  0.7654
 9692TIP3    H250568   3.533   0.601   5.279 -0.7484  0.4092 -0.2656
 9693TIP3   OH250569   2.660   3.390   2.590 -0.0367  0.1772  0.0818
 9693TIP3    H150570   2.603   3.332   2.540  1.6676 -0.3070 -1.3701
 9693TIP3    H250571   2.674   3.344   2.673 -0.6085 -0.3597 -0.1130
 9694TIP3   OH250572   6.651   0.694   1.598 -0.3423 -0.6481 -0.0568
 9694TIP3    H150573   6.666   0.700   1.503 -0.1264 -1.1636 -0.0571
 9694TIP3    H250574   6.556   0.705   1.607 -0.4159 -0.9632 -0.3735
 9695TIP3   OH250575   3.880   1.889  13.848 -0.2882 -0.2112 -0.7185
 9695TIP3    H150576   3.877   1.962  13.786 -0.0326  1.1813  0.8189
 9695TIP3    H250577   3.919   1.927  13.927 -2.4865 -1.3444  1.0207
 9696TIP3   OH250578   5.105   2.115   2.397  0.0090 -0.4931  0.2303
 9696TIP3    H150579   5.176   2.066   2.355  0.1887  0.0934 -0.1644
 9696TIP3    H250580   5.026   2.063   2.379  0.0575 -0.1812 -0.9812
 9697TIP3   OH250581   0.076   0.927  14.017 -0.5509  0.4370 -0.1425
 9697TIP3    H150582   0.094   0.892  14.104 -0.6589  1.1683  0.1822
 9697TIP3    H250583   0.037   1.013  14.033  0.6417  1.1584 -0.9265
 9698TIP3   OH250584   5.694   4.960   2.607 -0.3296 -0.0353  0.3282
 9698TIP3    H150585   5.651   4.921   2.683  0.0525 -0.6246  0.2486
 9698TIP3    H250586   5.784   4.977   2.637 -0.2529 -0.0293  0.0947
 9699TIP3   OH250587   6.546   2.440  11.735 -0.0917  0.2032  0.3326
 9699TIP3    H150588   6.550   2.384  11.657 -0.9416 -1.2809  1.3045
 9699TIP3    H250589   6.523   2.526  11.701 -1.2060 -0.5719 -1.0180
 9700TIP3   OH250590   6.201   6.773  17.195 -0.5455  0.0375  0.0979
 9700TIP3    H150591   6.194   6.832  17.270  1.1019 -0.2615  0.5318
 9700TIP3    H250592   6.245   6.824  17.128 -1.6918  0.1870 -0.5608
 9701TIP3   OH250593   3.643   2.069  11.197 -0.1523 -0.1239 -0.6377
 9701TIP3    H150594   3.620   2.138  11.258 -0.8204 -0.7065 -0.2094
 9701TIP3    H250595   3.579   2.077  11.126 -0.4522 -0.5061 -0.4180
 9702TIP3   OH250596   6.713   4.466   0.304  0.3543 -0.3030 -0.4849
 9702TIP3    H150597   6.668   4.392   0.264  0.8825 -1.0829  0.3340
 9702TIP3    H250598   6.764   4.505   0.233 -0.6899 -0.1060 -1.1487
 9703TIP3   OH250599   4.910   2.139  13.580 -0.7173  0.3035 -0.1779
 9703TIP3    H150600   4.835   2.094  13.620 -0.2524 -1.5880 -1.3064
 9703TIP3    H250601   4.890   2.139  13.486  1.2764 -1.5199 -0.6700
 9704TIP3   OH250602   6.273   2.937   0.540  0.1135 -0.1466  0.1097
 9704TIP3    H150603   6.303   2.976   0.623 -0.0685 -0.7702  0.4746
 9704TIP3    H250604   6.213   3.002   0.503  0.7447  0.4486  0.1170
 9705TIP3   OH250605   2.832   0.614   6.126 -0.3659 -0.1235 -0.5020
 9705TIP3    H150606   2.758   0.665   6.158 -1.0348 -0.3341 -1.6801
 9705TIP3    H250607   2.853   0.651   6.041 -0.2958 -1.2175 -0.9841
 9706TIP3   OH250608   0.133   5.629  15.443  0.3994 -0.5352 -0.6410
 9706TIP3    H150609   0.139   5.710  15.494 -1.3259  0.4910 -1.9562
 9706TIP3    H250610   0.206   5.633  15.382  1.4157 -0.9093  0.5093
 9707TIP3   OH250611   4.216   1.686   5.422 -0.3667 -0.5409  0.6391
 9707TIP3    H150612   4.128   1.663   5.452  0.8464 -3.1733  2.5612
 9707TIP3    H250613   4.236   1.620   5.356 -0.8525  1.8631 -2.1346
 9708TIP3   OH250614   2.386   4.800  10.581 -0.2237  0.8487  0.2890
 9708TIP3    H150615   2.294   4.813  10.557  0.0252  2.1567 -0.0792
 9708TIP3    H250616   2.416   4.887  10.607  0.4070  0.0842  2.2826
 9709TIP3   OH250617   3.313   1.680  16.542  0.6754 -0.4491  0.3664
 9709TIP3    H150618   3.401   1.718  16.548 -0.0669  1.1505  2.0168
 9709TIP3    H250619   3.254   1.754  16.553 -0.8859 -1.7108  0.8119
 9710TIP3   OH250620   3.064   0.335  13.773  0.1269  0.0116 -0.1266
 9710TIP3    H150621   3.027   0.250  13.797  0.5067  0.0117  0.4814
 9710TIP3    H250622   3.133   0.350  13.838  0.0928  0.7637 -0.2581
 9711TIP3   OH250623   4.967   1.863   0.936 -0.2724 -0.1685 -0.0151
 9711TIP3    H150624   4.997   1.789   0.884  0.0951  1.1281 -1.7375
 9711TIP3    H250625   5.038   1.879   0.999  1.3905  0.9776 -2.0687
 9712TIP3   OH250626   0.912   5.435   1.383 -0.4337  0.0789 -0.1835
 9712TIP3    H150627   0.872   5.362   1.337 -1.9426  0.8944 -0.2316
 9712TIP3    H250628   0.961   5.483   1.316 -0.4113 -0.2225 -0.3827
 9713TIP3   OH250629   5.909   2.445  11.632 -0.1188  0.2934  0.3337
 9713TIP3    H150630   6.003   2.458  11.618 -0.4033  1.0493 -1.1384
 9713TIP3    H250631   5.887   2.370  11.576 -0.5613  0.7889 -0.1769
 9714TIP3   OH250632   0.038   3.352  15.292  0.5626  0.2635  0.6038
 9714TIP3    H150633   0.014   3.436  15.331  0.6190  0.6646 -0.2051
 9714TIP3    H250634   0.005   3.287  15.354 -1.9798  0.8012 -0.0600
 9715TIP3   OH250635   2.573   0.836  14.103  0.3855 -0.6790  0.1997
 9715TIP3    H150636   2.533   0.754  14.072  1.4989 -1.4126  0.6237
 9715TIP3    H250637   2.592   0.820  14.195 -2.0180  1.1405  1.1334
 9716TIP3   OH250638   4.550   5.437   1.142 -0.3883 -0.0089  0.2659
 9716TIP3    H150639   4.576   5.530   1.143 -1.3043  0.3056 -1.2753
 9716TIP3    H250640   4.455   5.439   1.143 -0.4126 -0.9310  0.1638
 9717TIP3   OH250641   5.367   6.824   3.617  0.0698  0.3685  0.1293
 9717TIP3    H150642   5.352   6.753   3.679  2.0356 -1.7457 -1.5992
 9717TIP3    H250643   5.411   6.892   3.668 -3.9577  1.5894  2.3963
 9718TIP3   OH250644   3.204   4.034  13.985  0.5076 -0.1761  0.2335
 9718TIP3    H150645   3.283   4.088  13.978 -0.7590  1.6656 -0.8783
 9718TIP3    H250646   3.224   3.956  13.933  0.6693  1.5592 -2.5389
 9719TIP3   OH250647   1.211   6.087   6.217  0.2359 -0.3644 -0.3578
 9719TIP3    H150648   1.243   6.164   6.264 -0.3128 -0.0186 -0.5451
 9719TIP3    H250649   1.139   6.120   6.163 -0.3386 -1.0953 -0.0571
 9720TIP3   OH250650   5.612   6.647   0.682 -0.2716 -0.0385 -0.2686
 9720TIP3    H150651   5.618   6.588   0.607 -0.9022 -0.6769  0.1758
 9720TIP3    H250652   5.549   6.714   0.655  0.2658  0.3051 -0.6842
 9721TIP3   OH250653   4.383   4.979  13.363 -0.2751 -0.1884  0.2581
 9721TIP3    H150654   4.433   5.038  13.306 -0.5551 -0.1209  0.0792
 9721TIP3    H250655   4.347   4.913  13.304 -1.3701  0.4279  0.1985
 9722TIP3   OH250656   5.304   2.948  15.711 -0.0438  0.2059 -0.4713
 9722TIP3    H150657   5.328   3.041  15.711  0.0350  0.2344 -2.4876
 9722TIP3    H250658   5.337   2.915  15.627  1.6156 -2.1203  0.9659
 9723TIP3   OH250659   6.485   4.301   1.026 -0.3358  0.5933  0.0113
 9723TIP3    H150660   6.474   4.392   0.999  0.9436  0.7115 -0.1894
 9723TIP3    H250661   6.462   4.300   1.119 -1.6365  0.8429 -0.2958
 9724TIP3   OH250662   0.956   1.723  10.653  0.1957  0.3843  0.5018
 9724TIP3    H150663   1.015   1.779  10.603  0.6583 -0.3114  0.2619
 9724TIP3    H250664   0.870   1.765  10.644  0.6126  1.3217  0.7266
 9725TIP3   OH250665   1.160   2.450  16.808  0.1626  0.4880 -0.2461
 9725TIP3    H150666   1.130   2.508  16.878 -1.2611  0.3909 -0.7449
 9725TIP3    H250667   1.114   2.368  16.822  0.0764  0.3721 -1.1185
 9726TIP3   OH250668   3.485   3.608  13.261  0.3132 -0.1095  0.0825
 9726TIP3    H150669   3.482   3.540  13.328 -0.1771 -0.0289  0.1437
 9726TIP3    H250670   3.499   3.560  13.179 -0.7072 -0.3440  0.0393
 9727TIP3   OH250671   3.752   0.512   4.752 -0.0869  0.6596  0.1514
 9727TIP3    H150672   3.756   0.551   4.665 -0.7785 -0.9790 -0.6454
 9727TIP3    H250673   3.843   0.500   4.777  0.1950 -1.2933 -1.5264
 9728TIP3   OH250674   6.729   1.116   5.844  0.4343 -0.2025 -0.2467
 9728TIP3    H150675   6.801   1.053   5.842 -0.4539 -1.2203 -1.6229
 9728TIP3    H250676   6.667   1.079   5.907  1.1225  0.7567  1.0645
 9729TIP3   OH250677   5.561   4.157   3.920 -0.2114  0.0619 -0.0939
 9729TIP3    H150678   5.477   4.123   3.951 -0.3940  0.7969  0.2499
 9729TIP3    H250679   5.591   4.215   3.990 -0.5549  1.6290 -1.1862
 9730TIP3   OH250680   6.247   4.060  16.532 -0.5833 -0.5127 -0.5979
 9730TIP3    H150681   6.331   4.021  16.553 -0.6030 -0.5157 -0.5266
 9730TIP3    H250682   6.222   4.107  16.611 -2.1264 -3.0455  0.5489
 9731TIP3   OH250683   6.531   0.299   0.133 -0.2729  0.1521 -0.1629
 9731TIP3    H150684   6.453   0.317   0.185  0.2705 -0.9679  1.1411
 9731TIP3    H250685   6.572   0.384   0.120  0.1204  0.4090  2.2335
 9732TIP3   OH250686   6.193   6.665  15.488  0.2837 -0.0941  0.4741
 9732TIP3    H150687   6.192   6.743  15.432 -1.2011 -1.0880 -0.9504
 9732TIP3    H250688   6.204   6.700  15.577  0.6196  1.6560 -0.2193
 9733TIP3   OH250689   4.946   1.445   5.519 -0.2377  0.3830  0.6700
 9733TIP3    H150690   4.924   1.526   5.473  1.2892  0.3863 -0.1041
 9733TIP3    H250691   4.861   1.407   5.541 -1.0023  2.1653  1.0355
 9734TIP3   OH250692   3.978   3.883   3.541 -0.4539  0.4497  0.6963
 9734TIP3    H150693   4.016   3.834   3.469 -0.8510 -0.8180  1.3177
 9734TIP3    H250694   3.999   3.974   3.522  0.0619  0.0737 -0.6370
 9735TIP3   OH250695   0.799   3.658   5.062  0.4319  0.4111 -0.5313
 9735TIP3    H150696   0.865   3.679   5.128  0.0870 -1.7543  0.5805
 9735TIP3    H250697   0.847   3.665   4.979  1.0196  2.6099 -0.1006
 9736TIP3   OH250698   3.338   4.838  10.372  0.5344 -0.0548 -0.5434
 9736TIP3    H150699   3.393   4.916  10.360 -0.2174  0.4214 -0.9567
 9736TIP3    H250700   3.335   4.826  10.467  1.8931 -0.4931 -0.5344
 9737TIP3   OH250701   5.954   1.172  12.052  0.2542  0.3616  0.4363
 9737TIP3    H150702   5.879   1.166  12.111  0.9709 -0.2081  1.3264
 9737TIP3    H250703   5.970   1.082  12.024  1.0014  0.3701  0.7934
 9738TIP3   OH250704   0.013   0.076   4.302 -0.4864 -0.4898 -0.8218
 9738TIP3    H150705   0.105   0.060   4.279 -0.3532 -0.7080 -0.1878
 9738TIP3    H250706   0.006   0.171   4.309  0.1638 -0.5234  0.8608
 9739TIP3   OH250707   5.098   2.454   0.157  0.0011  0.5366  0.8053
 9739TIP3    H150708   5.040   2.476   0.084  0.0115  0.4738  0.7785
 9739TIP3    H250709   5.051   2.486   0.235  0.0926  0.8046  0.7528
 9740TIP3   OH250710   3.018   5.177  15.609  0.0693  0.1393  0.1866
 9740TIP3    H150711   3.041   5.114  15.541  0.7205  0.3033  0.2478
 9740TIP3    H250712   3.012   5.126  15.689 -1.2198 -0.1438 -0.0715
 9741TIP3   OH250713   3.262   4.946   1.354  0.1061 -0.0764 -0.6709
 9741TIP3    H150714   3.176   4.989   1.354  0.3964  0.5636 -2.1384
 9741TIP3    H250715   3.260   4.889   1.277  0.4325 -1.2845  0.1881
 9742TIP3   OH250716   6.767   6.746  11.875 -0.4448  0.5578 -0.4346
 9742TIP3    H150717   6.774   6.653  11.852  2.6045  0.1996  1.3048
 9742TIP3    H250718   6.679   6.756  11.910 -0.9139 -1.6530 -0.8453
 9743TIP3   OH250719   1.690   1.106   1.985 -0.2493 -0.3897  0.3468
 9743TIP3    H150720   1.722   1.120   1.896 -1.4852 -0.3554 -0.1122
 9743TIP3    H250721   1.738   1.170   2.037 -0.2687  0.3326 -0.4837
 9744TIP3   OH250722   4.777   4.091   5.245 -0.0437  0.7625 -0.0267
 9744TIP3    H150723   4.753   4.031   5.316 -0.9838  1.8697  0.6266
 9744TIP3    H250724   4.848   4.046   5.198 -2.0327 -1.7778 -0.8067
 9745TIP3   OH250725   2.292   4.285  16.992 -0.0922 -0.0984 -0.3132
 9745TIP3    H150726   2.363   4.347  17.011 -0.2627  0.0436 -0.1334
 9745TIP3    H250727   2.315   4.206  17.042  0.8582 -0.6938 -1.6560
 9746TIP3   OH250728   5.800   2.556  14.709  0.1358 -0.5452 -0.6426
 9746TIP3    H150729   5.726   2.617  14.704  0.6938  0.0983 -1.2681
 9746TIP3    H250730   5.786   2.507  14.790 -0.5715  0.0895 -0.3771
 9747TIP3   OH250731   1.368   3.430   4.507  0.2289  0.0985 -0.2002
 9747TIP3    H150732   1.437   3.491   4.483  0.5951 -0.4345 -0.5292
 9747TIP3    H250733   1.287   3.480   4.498  0.5480  0.6489 -0.0665
 9748TIP3   OH250734   2.376   4.497  11.743  0.3620  0.1083  0.1843
 9748TIP3    H150735   2.292   4.479  11.701  0.9059 -0.1965 -0.7933
 9748TIP3    H250736   2.389   4.423  11.803 -0.2988  0.4213  0.7290
 9749TIP3   OH250737   0.351   5.070   3.177 -0.2564  0.0074 -0.1198
 9749TIP3    H150738   0.402   5.002   3.133 -0.0642 -0.2382  0.4654
 9749TIP3    H250739   0.314   5.122   3.106  1.8782  1.0014 -0.6117
 9750TIP3   OH250740   4.182   2.123   2.229 -0.1484  0.0403 -0.3691
 9750TIP3    H150741   4.229   2.206   2.222  0.6434 -0.4160 -0.6702
 9750TIP3    H250742   4.103   2.136   2.177 -0.9333  1.1886  1.0386
 9751TIP3   OH250743   4.165   5.327   0.045  0.1655  0.2758  0.6246
 9751TIP3    H150744   4.120   5.345  -0.037  1.4593 -0.5992 -0.3109
 9751TIP3    H250745   4.257   5.345   0.027  0.4622  0.1849  1.9242
 9752TIP3   OH250746   4.446   4.015  11.326 -0.3491  0.1460  0.0089
 9752TIP3    H150747   4.422   4.039  11.236  0.4626 -1.5047 -0.6888
 9752TIP3    H250748   4.491   4.092  11.360 -1.0340  0.9460 -0.8461
 9753TIP3   OH250749   4.784   2.667   1.027 -0.2777 -0.4768  0.4760
 9753TIP3    H150750   4.770   2.627   0.941 -0.6316 -0.3832  0.4861
 9753TIP3    H250751   4.758   2.759   1.015  1.3630 -0.0164  0.2202
 9754TIP3   OH250752   5.826   5.304   1.863 -0.4805  0.1049 -0.1994
 9754TIP3    H150753   5.907   5.340   1.900 -0.0962 -1.2319  0.2969
 9754TIP3    H250754   5.757   5.338   1.919 -0.0426 -0.6150  0.8082
 9755TIP3   OH250755   2.054   2.157  12.423  0.4192  0.3633  0.2550
 9755TIP3    H150756   1.969   2.197  12.441 -0.0865 -0.5350 -0.0684
 9755TIP3    H250757   2.095   2.148  12.509 -0.4270 -0.5055  0.5894
 9756TIP3   OH250758   2.645   5.703   1.805  0.1467 -0.3038  0.7964
 9756TIP3    H150759   2.718   5.646   1.831 -0.1962 -0.2246  1.9802
 9756TIP3    H250760   2.582   5.694   1.876 -0.8522 -0.1008 -0.0506
 9757TIP3   OH250761   0.850   1.633   5.063 -0.1081 -0.4680  0.4362
 9757TIP3    H150762   0.845   1.725   5.088 -0.3890 -0.2029 -0.5377
 9757TIP3    H250763   0.853   1.635   4.967 -0.3799 -1.4845  0.3981
 9758TIP3   OH250764   3.318   6.001   5.248  0.1606 -0.7737  0.3557
 9758TIP3    H150765   3.288   5.915   5.219  1.6945 -0.7170 -1.5503
 9758TIP3    H250766   3.242   6.058   5.237  0.4555 -0.8605 -3.2566
 9759TIP3   OH250767   4.417   3.816   2.227  0.7912 -0.4351  0.1231
 9759TIP3    H150768   4.326   3.789   2.241  0.2262  0.9067 -0.7692
 9759TIP3    H250769   4.426   3.823   2.132  1.9006 -0.7410  0.1892
 9760TIP3   OH250770   0.656   0.341   0.808  0.3348 -0.1216  0.0728
 9760TIP3    H150771   0.706   0.297   0.740  2.0054 -0.1132  1.2203
 9760TIP3    H250772   0.653   0.278   0.880 -1.4853 -0.1790 -0.0095
 9761TIP3   OH250773   3.548   1.741  12.444 -0.1429  0.0061 -0.2431
 9761TIP3    H150774   3.540   1.710  12.534 -0.6987  0.3362 -0.1755
 9761TIP3    H250775   3.462   1.726  12.406  0.0343  0.0452 -0.6651
 9762TIP3   OH250776   4.200   0.694  17.099  0.4644  0.3965  0.0581
 9762TIP3    H150777   4.190   0.618  17.157  0.7760 -0.6783 -1.2327
 9762TIP3    H250778   4.286   0.729  17.120  0.4431  0.2263  0.4530
 9763TIP3   OH250779   4.603   5.124  15.542  0.0760  0.0737 -0.4792
 9763TIP3    H150780   4.549   5.053  15.506  0.8204 -0.5222 -0.4472
 9763TIP3    H250781   4.540   5.193  15.564 -1.0140 -1.5746  1.9956
 9764TIP3   OH250782   1.753   2.653  11.752 -0.0457 -0.2433  0.1678
 9764TIP3    H150783   1.689   2.722  11.736 -0.3629 -0.5851 -0.0527
 9764TIP3    H250784   1.779   2.665  11.844  0.1680  0.3880  0.0243
 9765TIP3   OH250785   5.417   6.666  16.917  0.1745  0.2070 -0.2505
 9765TIP3    H150786   5.430   6.745  16.865 -0.8117  0.6924  0.2087
 9765TIP3    H250787   5.473   6.678  16.993 -0.2259  0.6251 -0.0180
 9766TIP3   OH250788   6.686   3.895   1.489  0.2731 -0.2175  0.0072
 9766TIP3    H150789   6.639   3.887   1.572 -0.7931  1.4596 -0.3836
 9766TIP3    H250790   6.624   3.939   1.430  1.1882 -0.8846 -1.5356
 9767TIP3   OH250791   5.105   5.646   6.202  0.3386  0.3347  0.4934
 9767TIP3    H150792   5.014   5.615   6.207  0.7261 -0.6806  1.6361
 9767TIP3    H250793   5.119   5.695   6.283  0.6966  0.8646  0.1223
 9768TIP3   OH250794   0.956   1.386  16.671  0.2483 -0.0622  0.0682
 9768TIP3    H150795   1.016   1.408  16.600  0.9852 -1.3675  0.2515
 9768TIP3    H250796   1.013   1.363  16.745 -0.4836 -0.2710  0.5891
 9769TIP3   OH250797   5.270   6.128  12.146 -0.0909 -0.4100 -0.1293
 9769TIP3    H150798   5.307   6.188  12.081 -1.2379 -1.1197 -1.5042
 9769TIP3    H250799   5.199   6.177  12.186 -0.9443 -0.7660 -1.1614
 9770TIP3   OH250800   0.962   5.589   0.189 -0.8265 -0.5118 -0.2420
 9770TIP3    H150801   0.890   5.614   0.131  1.4005  3.1483 -1.8267
 9770TIP3    H250802   1.006   5.518   0.142 -2.4066 -1.7149  0.0013
 9771TIP3   OH250803   3.241   2.522  13.216  0.2150  0.2518 -0.1675
 9771TIP3    H150804   3.151   2.552  13.226 -0.2010 -1.0216  0.0556
 9771TIP3    H250805   3.257   2.527  13.122  0.0279  0.7942 -0.1741
 9772TIP3   OH250806   6.358   4.518   3.122  0.6874  0.1981  0.4693
 9772TIP3    H150807   6.390   4.549   3.037  0.2708 -0.8855 -0.0931
 9772TIP3    H250808   6.371   4.593   3.180 -0.4040  1.5069 -0.8689
 9773TIP3   OH250809   4.738   2.820   3.163 -0.2256  0.6318  0.5854
 9773TIP3    H150810   4.739   2.906   3.121  1.1595  0.8375  1.0040
 9773TIP3    H250811   4.825   2.811   3.202 -0.8035 -0.3911  1.7024
 9774TIP3   OH250812   6.592   1.785  15.826 -0.4557 -0.7448  0.1625
 9774TIP3    H150813   6.590   1.863  15.771  2.0583 -2.1076 -2.1061
 9774TIP3    H250814   6.674   1.793  15.876 -0.2518 -1.8175  0.0197
 9775TIP3   OH250815   1.592   1.131  17.045 -0.2380 -0.2183 -0.4072
 9775TIP3    H150816   1.511   1.163  17.004 -1.0362 -1.0962  0.4458
 9775TIP3    H250817   1.632   1.075  16.978  0.6794  1.6990 -1.5509
 9776TIP3   OH250818   5.233   4.861  14.134  0.8908 -0.5638 -0.4938
 9776TIP3    H150819   5.185   4.938  14.103 -1.2070 -1.2881  0.7476
 9776TIP3    H250820   5.319   4.895  14.157 -0.1643  1.6032  0.6594
 9777TIP3   OH250821   6.045   0.441   3.074  0.2798  0.6787 -0.0503
 9777TIP3    H150822   6.080   0.529   3.064 -0.1395  0.7391 -1.1002
 9777TIP3    H250823   6.107   0.396   3.132  1.9259  0.8665 -1.5935
 9778TIP3   OH250824   5.512   0.074  14.643 -0.2529  0.4785  0.0953
 9778TIP3    H150825   5.436   0.131  14.645 -2.4313 -2.2319  0.2174
 9778TIP3    H250826   5.513   0.038  14.554  0.8498  0.4393  0.1114
 9779TIP3   OH250827   6.750   2.685   4.700 -0.1146  0.3322 -0.1460
 9779TIP3    H150828   6.753   2.671   4.605 -3.3077  0.6476 -0.4090
 9779TIP3    H250829   6.673   2.740   4.713  1.7740  2.6401  2.4440
 9780TIP3   OH250830   6.747   2.260   2.853  0.4554  0.2615  0.1428
 9780TIP3    H150831   6.752   2.342   2.902 -0.8399  1.2557 -1.3099
 9780TIP3    H250832   6.696   2.202   2.909 -1.8941  1.7147 -0.3900
 9781TIP3   OH250833   2.192   1.962   2.177  0.3291  0.9606  0.6533
 9781TIP3    H150834   2.242   2.018   2.116  0.1914  0.8639  0.4497
 9781TIP3    H250835   2.101   1.987   2.163 -0.0304 -1.1051 -1.3685
 9782TIP3   OH250836   5.290   4.974   3.475  0.2136 -0.3588  0.2164
 9782TIP3    H150837   5.223   5.014   3.420  0.0888  0.2354  0.7951
 9782TIP3    H250838   5.373   5.004   3.439  0.1717 -0.8631 -0.3212
 9783TIP3   OH250839   0.432   1.664   1.368 -0.2173 -0.5946  0.1583
 9783TIP3    H150840   0.375   1.588   1.352 -1.9602  0.9125 -1.1407
 9783TIP3    H250841   0.413   1.724   1.296  0.5203  1.4327  1.5759
 9784TIP3   OH250842   4.644   5.433  11.380 -0.1912 -0.1137  0.4807
 9784TIP3    H150843   4.658   5.504  11.317 -2.8223 -0.7584 -0.9664
 9784TIP3    H250844   4.703   5.364  11.351  0.0172  0.2931 -0.0880
 9785TIP3   OH250845   2.710   5.107  15.836  0.0676  0.1770 -0.3588
 9785TIP3    H150846   2.806   5.105  15.830  0.0146 -0.6576 -1.1129
 9785TIP3    H250847   2.681   5.125  15.747 -0.4899  0.0141 -0.2145
 9786TIP3   OH250848   2.111   5.199   3.001  0.5979  0.4443  0.5131
 9786TIP3    H150849   2.121   5.294   2.991 -1.3666  0.6318 -0.1144
 9786TIP3    H250850   2.075   5.170   2.917 -0.8631 -0.5095  1.4158
 9787TIP3   OH250851   5.063   5.585   3.864  0.4458  0.1483 -0.5111
 9787TIP3    H150852   4.996   5.543   3.811  0.2417 -0.1908  0.0021
 9787TIP3    H250853   5.044   5.678   3.859  0.4559  0.1188 -1.0663
 9788TIP3   OH250854   3.409   6.077   0.108  0.0689  0.0085  0.5032
 9788TIP3    H150855   3.359   6.149   0.069 -0.0197  0.6175  1.7054
 9788TIP3    H250856   3.392   6.003   0.051 -1.4050  0.4622  0.3193
 9789TIP3   OH250857   2.143   1.953  17.079 -0.4785  0.5377 -0.1963
 9789TIP3    H150858   2.166   1.881  17.139 -0.2281  2.1766  1.7769
 9789TIP3    H250859   2.226   1.992  17.055 -0.6579  0.6503 -0.6401
 9790TIP3   OH250860   4.073   6.143  16.505  0.2159  0.7920  0.4069
 9790TIP3    H150861   4.002   6.197  16.539 -0.1366  0.5560  0.0613
 9790TIP3    H250862   4.077   6.163  16.412 -0.0041  0.1354  0.2481
 9791TIP3   OH250863   4.011   1.666  13.024  0.0516 -0.0060  0.5644
 9791TIP3    H150864   4.032   1.587  13.075  0.1977 -1.9920 -2.3479
 9791TIP3    H250865   4.092   1.686  12.977 -0.2680  1.3949  0.5561
 9792TIP3   OH250866   3.720   4.771  12.386  0.4665  0.5666  0.0250
 9792TIP3    H150867   3.708   4.680  12.359  1.5670  0.9734 -2.1301
 9792TIP3    H250868   3.647   4.789  12.445  0.4180 -1.7889  0.7922
 9793TIP3   OH250869   6.436   4.773   5.270 -0.2825 -0.9481  0.5452
 9793TIP3    H150870   6.461   4.832   5.199 -0.4182 -1.7930 -0.2379
 9793TIP3    H250871   6.509   4.711   5.275 -1.5596 -2.7000 -0.9339
 9794TIP3   OH250872   2.940   0.466   1.684 -0.1041  0.0961  0.5452
 9794TIP3    H150873   3.034   0.448   1.686  0.2135  1.2002 -1.6154
 9794TIP3    H250874   2.902   0.391   1.639 -0.2780 -0.3102  1.3452
 9795TIP3   OH250875   0.508   6.250  16.442  0.1228  0.3325  0.3314
 9795TIP3    H150876   0.553   6.225  16.361  2.0609 -0.2921  1.5390
 9795TIP3    H250877   0.536   6.185  16.506 -0.9965  1.0897  1.6419
 9796TIP3   OH250878   3.198   0.909   5.476 -0.4123 -0.3549 -0.3379
 9796TIP3    H150879   3.229   0.851   5.407  0.0075 -0.5073 -0.0214
 9796TIP3    H250880   3.213   0.861   5.557  1.6272  0.9114  0.0924
 9797TIP3   OH250881   2.719   4.844   0.622 -0.7931  0.2022 -0.1920
 9797TIP3    H150882   2.642   4.846   0.565 -0.8640  0.9987 -0.0803
 9797TIP3    H250883   2.695   4.900   0.696 -1.1339 -1.6526  1.1939
 9798TIP3   OH250884   6.010   0.581  16.844  0.1598  0.7223 -0.3640
 9798TIP3    H150885   6.064   0.546  16.773  1.8252  2.2031  0.1110
 9798TIP3    H250886   5.953   0.645  16.801 -1.3819 -0.9132 -0.8819
 9799TIP3   OH250887   3.530   4.246  13.037 -0.0719  0.4068  0.7115
 9799TIP3    H150888   3.495   4.335  13.030  0.1244  0.5530  1.5242
 9799TIP3    H250889   3.452   4.191  13.048 -0.1271  0.6166  1.4383
 9800TIP3   OH250890   4.304   0.202  15.750  0.5763 -0.0817 -0.5264
 9800TIP3    H150891   4.377   0.263  15.760 -0.2417  1.1709 -1.8400
 9800TIP3    H250892   4.240   0.232  15.815  0.6218 -0.2396 -0.4086
 9801TIP3   OH250893   4.390   0.999  15.643 -0.4046 -0.9900 -0.0935
 9801TIP3    H150894   4.442   0.927  15.608 -0.4381 -1.6366  1.1402
 9801TIP3    H250895   4.302   0.962  15.654 -0.3130 -0.8989  0.9759
 9802TIP3   OH250896   2.381   2.794   4.750 -0.2965 -0.2007  0.0671
 9802TIP3    H150897   2.404   2.715   4.798 -0.6779  1.3186  2.9931
 9802TIP3    H250898   2.462   2.822   4.708  0.3824 -0.9585  0.8388
 9803TIP3   OH250899   0.846   0.210   3.497  0.3350  0.8207  0.1662
 9803TIP3    H150900   0.802   0.227   3.581  2.1293  0.8941  1.1508
 9803TIP3    H250901   0.821   0.284   3.442 -1.6176  0.2957  0.2939
 9804TIP3   OH250902   3.536   6.310   4.387 -0.5490 -0.1071 -0.3842
 9804TIP3    H150903   3.489   6.391   4.404  0.5717  0.4903 -0.0282
 9804TIP3    H250904   3.551   6.309   4.293  1.2406  1.1695 -0.1684
 9805TIP3   OH250905   5.873   6.645  13.668  0.4612  0.5410  0.2942
 9805TIP3    H150906   5.914   6.705  13.606 -1.1806  1.5616  0.1187
 9805TIP3    H250907   5.803   6.697  13.708 -2.5350 -1.8208 -1.4440
 9806TIP3   OH250908   1.171   0.498   4.007 -0.4518  0.2886 -0.1774
 9806TIP3    H150909   1.075   0.501   4.005 -0.5628 -1.6528  0.7060
 9806TIP3    H250910   1.193   0.490   4.099  0.8674  5.1812  0.2280
 9807TIP3   OH250911   6.698   0.941  16.710 -0.1377  0.3934 -0.2072
 9807TIP3    H150912   6.698   0.855  16.668  0.9629 -0.5345  1.5658
 9807TIP3    H250913   6.680   0.923  16.802 -1.4652  2.2502 -0.0537
 9808TIP3   OH250914   2.064   6.010  16.220  0.1724  0.3326 -0.0621
 9808TIP3    H150915   2.037   6.098  16.196  1.6116  0.5319 -1.1256
 9808TIP3    H250916   2.160   6.012  16.213  0.1801 -1.5807 -1.1290
 9809TIP3   OH250917   3.275   2.693  10.743 -0.7602 -0.2767  0.3562
 9809TIP3    H150918   3.289   2.649  10.660  0.1558  0.4410  0.1141
 9809TIP3    H250919   3.309   2.632  10.809 -1.4469 -0.8245  0.2185
 9810TIP3   OH250920   6.111   2.615  15.661  0.5701 -0.0612  0.5490
 9810TIP3    H150921   6.038   2.583  15.714  0.8084 -0.7749  0.4600
 9810TIP3    H250922   6.182   2.627  15.723  0.3660  0.6963  0.6457
 9811TIP3   OH250923   1.827   4.432  14.173  0.4151 -0.0057  0.4162
 9811TIP3    H150924   1.822   4.476  14.257  0.7303  0.3257  0.2650
 9811TIP3    H250925   1.878   4.492  14.118  1.3656 -0.8209  0.3837
 9812TIP3   OH250926   6.402   6.099  11.196 -0.4596 -0.3128  0.0206
 9812TIP3    H150927   6.363   6.041  11.131  2.8780 -1.1149 -1.4721
 9812TIP3    H250928   6.407   6.046  11.275 -0.1690 -1.0590 -0.4799
 9813TIP3   OH250929   5.894   1.614   1.154  0.2752  0.2864  0.0037
 9813TIP3    H150930   5.930   1.647   1.236 -1.2944  0.1952  0.7632
 9813TIP3    H250931   5.860   1.527   1.175  0.1366  0.1251 -0.8257
 9814TIP3   OH250932   4.810   4.073  13.327  0.8678  0.0663  0.2300
 9814TIP3    H150933   4.818   4.043  13.237  1.0355  2.7826 -0.7637
 9814TIP3    H250934   4.898   4.103  13.350  0.9053 -0.9180  1.4461
 9815TIP3   OH250935   0.248   0.112   3.749 -0.1978 -0.1572 -0.0121
 9815TIP3    H150936   0.278   0.035   3.702 -0.9340 -0.2493 -0.3582
 9815TIP3    H250937   0.187   0.078   3.814 -0.6769  0.1379 -0.2967
 9816TIP3   OH250938   5.159   4.430   5.706 -0.5828  0.4215 -0.2175
 9816TIP3    H150939   5.167   4.353   5.762 -0.1681 -0.0971 -0.9714
 9816TIP3    H250940   5.098   4.403   5.637  0.1549  0.4961 -0.9202
 9817TIP3   OH250941   4.272   1.968  14.641 -0.9552 -0.1847 -0.1924
 9817TIP3    H150942   4.262   1.874  14.628 -0.3083 -0.5261  1.5829
 9817TIP3    H250943   4.262   1.981  14.735  2.3659  1.0161  0.1256
 9818TIP3   OH250944   4.245   5.685  15.916  0.7328  0.4850  0.5353
 9818TIP3    H150945   4.328   5.698  15.869  0.2834  0.5974 -0.2325
 9818TIP3    H250946   4.248   5.750  15.987  1.7557 -0.2035  1.1618
 9819TIP3   OH250947   4.019   6.740  17.198  0.4467 -0.1534  0.5414
 9819TIP3    H150948   4.068   6.727  17.116 -0.5068 -1.7080  0.1701
 9819TIP3    H250949   3.966   6.661  17.206  1.4792 -0.6377  3.3636
 9820TIP3   OH250950   5.804   5.706  12.080  0.1368  0.4790  0.2904
 9820TIP3    H150951   5.819   5.797  12.056  2.9338  0.2280  0.7015
 9820TIP3    H250952   5.736   5.676  12.020  1.6126  1.9060 -2.2625
 9821TIP3   OH250953   2.926   3.116  15.945  0.0757  0.0927  0.2944
 9821TIP3    H150954   2.833   3.126  15.925  0.7272  1.4681 -2.5725
 9821TIP3    H250955   2.937   3.022  15.963 -1.7066 -0.2328 -0.1470
 9822TIP3   OH250956   4.232   6.672  16.390 -0.5699 -0.2867 -0.5127
 9822TIP3    H150957   4.223   6.578  16.410  1.7342 -0.1847  1.6676
 9822TIP3    H250958   4.327   6.684  16.377 -0.7348  1.8377 -0.0571
 9823TIP3   OH250959   3.286   1.265   3.302 -0.4544  0.3649  0.0246
 9823TIP3    H150960   3.302   1.189   3.357  0.3796  0.1152 -0.5497
 9823TIP3    H250961   3.192   1.283   3.313 -0.4986 -0.2782  0.7477
 9824TIP3   OH250962   2.407   5.241   3.567  0.4733 -0.5688 -0.1012
 9824TIP3    H150963   2.402   5.273   3.478 -0.3618 -0.8727 -0.1675
 9824TIP3    H250964   2.318   5.216   3.590  1.0171 -2.5236  0.0614
 9825TIP3   OH250965   3.094   4.322  16.163  0.3567  0.4416 -0.3853
 9825TIP3    H150966   3.046   4.366  16.233  1.6113 -1.1960  1.6367
 9825TIP3    H250967   3.028   4.300  16.098 -1.6777 -1.3616  2.0865
 9826TIP3   OH250968   4.428   3.054   0.777  0.4000  0.3726  0.9675
 9826TIP3    H150969   4.465   2.994   0.713 -0.7771 -2.1457  2.4972
 9826TIP3    H250970   4.369   3.000   0.830  1.4237  2.2052  4.2921
 9827TIP3   OH250971   2.970   4.865  12.355  0.0972  0.0691  0.1792
 9827TIP3    H150972   3.035   4.799  12.383 -0.5627  0.6142  3.4889
 9827TIP3    H250973   2.999   4.945  12.398 -1.5765  0.8230 -0.0409
 9828TIP3   OH250974   0.013   0.819  10.757  0.4804  0.0292  0.1710
 9828TIP3    H150975   0.083   0.785  10.701  2.2075 -0.2012  2.3113
 9828TIP3    H250976   0.027   0.913  10.757 -0.6408  0.2186 -1.1399
 9829TIP3   OH250977   3.443   5.500   2.622  0.2485 -0.0844  0.0777
 9829TIP3    H150978   3.398   5.581   2.643  0.4661 -0.2289  1.1751
 9829TIP3    H250979   3.536   5.524   2.619  0.1255  0.2785 -2.4908
 9830TIP3   OH250980   2.523   5.977   3.090  0.1346 -0.2163 -0.1325
 9830TIP3    H150981   2.479   6.061   3.077  1.5109  0.6179  0.2885
 9830TIP3    H250982   2.542   5.974   3.183 -1.0864 -1.6437  0.0976
 9831TIP3   OH250983   4.105   4.745  14.905 -0.3062 -0.1049  0.2117
 9831TIP3    H150984   4.190   4.780  14.880 -0.2302 -1.7376 -2.1522
 9831TIP3    H250985   4.064   4.815  14.956  2.2921  0.8285  1.1737
 9832TIP3   OH250986   0.701   0.194   4.752  0.0801  0.4852  0.7487
 9832TIP3    H150987   0.761   0.267   4.734 -0.1935  0.5295 -0.0476
 9832TIP3    H250988   0.687   0.154   4.666  0.2980 -0.5711  1.1924
 9833TIP3   OH250989   5.158   5.984  15.173 -0.1870  0.6417 -0.6533
 9833TIP3    H150990   5.143   6.042  15.099  0.7056  0.1069 -1.2802
 9833TIP3    H250991   5.227   5.925  15.143  0.6121  0.7884  0.8182
 9834TIP3   OH250992   5.529   4.407  11.816 -0.3053  0.1040  0.4779
 9834TIP3    H150993   5.580   4.411  11.897 -2.0738  0.7259  1.6054
 9834TIP3    H250994   5.443   4.375  11.843 -0.5198 -1.0560 -1.3935
 9835TIP3   OH250995   3.834   4.171   3.100  0.2537  0.2359 -0.0677
 9835TIP3    H150996   3.758   4.117   3.121  0.8931 -0.1392  1.4126
 9835TIP3    H250997   3.838   4.237   3.169  1.4698  0.0171  0.1060
 9836TIP3   OH250998   5.006   1.616   1.545 -0.2822 -0.5418 -0.1142
 9836TIP3    H150999   5.067   1.543   1.539 -0.0857 -0.3355 -0.6238
 9836TIP3    H251000   5.058   1.693   1.520 -0.7611 -0.3693 -0.5808
 9837TIP3   OH251001   4.318   0.106   4.960 -0.0519 -0.1356  0.4514
 9837TIP3    H151002   4.290   0.124   4.870  1.5096 -0.8303 -0.2156
 9837TIP3    H251003   4.355   0.018   4.956  1.7986  0.5583  1.3246
 9838TIP3   OH251004   3.526   3.790   4.526 -0.8995  0.5738  0.2693
 9838TIP3    H151005   3.488   3.795   4.439 -2.2700  1.6867  0.8910
 9838TIP3    H251006   3.472   3.726   4.572  0.6526 -1.0301 -0.0581
 9839TIP3   OH251007   4.599   5.767   5.038 -0.4431  0.4863 -0.0277
 9839TIP3    H151008   4.545   5.826   5.090  0.1742  0.0572  1.1671
 9839TIP3    H251009   4.627   5.700   5.101 -2.2868 -1.9188 -1.6211
 9840TIP3   OH251010   0.015   4.384  16.083 -0.3701  0.2419 -0.6911
 9840TIP3    H151011   0.038   4.291  16.090  1.7466  0.6804 -1.0108
 9840TIP3    H251012   0.022   4.404  15.989  1.4247  1.1857 -0.4042
 9841TIP3   OH251013   6.419   5.557   5.259 -0.0684 -0.1646  0.4974
 9841TIP3    H151014   6.373   5.545   5.342 -2.3948 -1.4231 -0.8652
 9841TIP3    H251015   6.481   5.485   5.255 -0.4866 -0.5442  0.8188
 9842TIP3   OH251016   5.824   5.865   5.011  0.2684  0.4650  0.1495
 9842TIP3    H151017   5.789   5.940   4.964 -4.3687 -0.9938  0.7201
 9842TIP3    H251018   5.809   5.885   5.104 -2.3423 -1.5119  0.2655
 9843TIP3   OH251019   6.097   3.254  14.601 -0.0810 -0.1631  0.0993
 9843TIP3    H151020   6.145   3.230  14.522  0.1669 -0.4231  0.3330
 9843TIP3    H251021   6.005   3.234  14.580 -0.0504  0.0227 -0.2204
 9844TIP3   OH251022   6.489   1.037   4.528  0.3363 -0.0642 -0.1897
 9844TIP3    H151023   6.438   1.002   4.455 -0.6592  1.7528 -0.4309
 9844TIP3    H251024   6.567   1.075   4.487  0.0064  0.5360 -0.2756
 9845TIP3   OH251025   4.222   5.874  11.224  0.4621 -0.0205  0.2345
 9845TIP3    H151026   4.247   5.931  11.150 -1.8329 -0.9787 -1.3827
 9845TIP3    H251027   4.139   5.910  11.254 -0.0590 -1.3699  0.4459
 9846TIP3   OH251028   2.470   1.101   1.217 -0.0977 -0.0198  0.0383
 9846TIP3    H151029   2.539   1.147   1.264  0.2991 -0.6608  0.0875
 9846TIP3    H251030   2.427   1.047   1.284 -1.0313  0.8025  0.1332
 9847TIP3   OH251031   3.199   0.185  17.148  0.7734  0.0265 -0.0725
 9847TIP3    H151032   3.183   0.153  17.059 -0.9011 -0.1663  0.2709
 9847TIP3    H251033   3.291   0.166  17.164  0.9098 -0.6142 -1.4905
 9848TIP3   OH251034   1.542   6.686  12.792 -0.0443  0.4785 -0.0835
 9848TIP3    H151035   1.632   6.681  12.761 -0.8175  0.0505 -2.4418
 9848TIP3    H251036   1.517   6.777  12.780  0.3648  0.8490  1.6032
 9849TIP3   OH251037   3.247   2.737   2.432  0.0308  1.5270 -0.1201
 9849TIP3    H151038   3.291   2.768   2.511  1.4731 -0.0852 -0.2522
 9849TIP3    H251039   3.155   2.760   2.447  0.5063  2.7492  1.2655
 9850TIP3   OH251040   1.965   6.553  16.751  0.1691  0.3360 -0.1749
 9850TIP3    H151041   2.023   6.538  16.827  2.6460 -0.1207 -2.0253
 9850TIP3    H251042   1.958   6.467  16.710 -1.3335  0.5361 -0.3618
 9851TIP3   OH251043   6.006   5.398   1.129  0.3399 -0.6620 -0.4949
 9851TIP3    H151044   5.967   5.433   1.049  0.0584  0.6627  0.1890
 9851TIP3    H251045   6.027   5.476   1.181  3.3840 -1.3160 -0.5632
 9852TIP3   OH251046   3.608   2.384  14.863 -0.5723 -0.4379  0.3616
 9852TIP3    H151047   3.626   2.375  14.956 -0.1674  1.2091  0.4738
 9852TIP3    H251048   3.526   2.434  14.859 -0.1630  0.2183 -0.1385
 9853TIP3   OH251049   0.130   6.307   0.987  0.1504  0.4870 -0.1829
 9853TIP3    H151050   0.223   6.322   0.970 -0.4281  0.3781 -4.3828
 9853TIP3    H251051   0.085   6.337   0.908 -3.1828 -1.5890  0.7074
 9854TIP3   OH251052   2.354   2.834  15.465 -0.1826 -0.3104  0.9398
 9854TIP3    H151053   2.364   2.852  15.558  0.1089 -0.0040  0.8490
 9854TIP3    H251054   2.324   2.743  15.462 -0.3190 -0.2817  1.3362
 9855TIP3   OH251055   5.353   1.115  14.789 -0.0015 -0.2213  0.4245
 9855TIP3    H151056   5.267   1.144  14.820 -0.6182 -1.8115  0.3165
 9855TIP3    H251057   5.415   1.161  14.845 -1.0021 -0.8258  2.1236
 9856TIP3   OH251058   5.713   2.199  12.592 -0.0648 -0.1745  0.3484
 9856TIP3    H151059   5.640   2.138  12.579 -0.2429 -0.0995  0.9389
 9856TIP3    H251060   5.677   2.284  12.569  0.3150 -0.3387 -0.9064
 9857TIP3   OH251061   1.717   0.206  15.480  0.0395  1.1006 -0.2116
 9857TIP3    H151062   1.634   0.227  15.438 -0.6440 -0.9875 -0.0482
 9857TIP3    H251063   1.695   0.192  15.572  0.0975 -1.4242 -0.4966
 9858TIP3   OH251064   1.161   6.413   0.688 -0.3794 -0.5424 -0.7938
 9858TIP3    H151065   1.230   6.467   0.727 -0.8459 -0.3999 -0.1456
 9858TIP3    H251066   1.118   6.372   0.763 -0.9536 -0.6831 -1.1954
 9859TIP3   OH251067   0.573   1.161  12.740  0.0312  0.0335  0.6059
 9859TIP3    H151068   0.498   1.185  12.795 -0.3998  0.1648 -0.0254
 9859TIP3    H251069   0.538   1.159  12.651  0.6774 -0.3471  0.3505
 9860TIP3   OH251070   5.271   0.465  12.571  0.1982 -0.1246  0.6358
 9860TIP3    H151071   5.192   0.513  12.547 -1.3176 -2.7691 -0.0692
 9860TIP3    H251072   5.257   0.439  12.662 -0.3280 -1.5522  0.1775
 9861TIP3   OH251073   6.460   3.009  16.194 -0.0060  0.0626  0.0624
 9861TIP3    H151074   6.447   3.045  16.106 -1.4198 -0.4492  0.0506
 9861TIP3    H251075   6.402   2.934  16.199 -0.5242  0.5320  1.6996
 9862TIP3   OH251076   5.582   2.179   3.804 -0.0880 -0.1323  0.5261
 9862TIP3    H151077   5.516   2.185   3.735  1.6906 -2.9122 -1.6914
 9862TIP3    H251078   5.643   2.251   3.786 -1.6536  1.5675  1.7192
 9863TIP3   OH251079   2.164   5.176   5.240  0.7761 -0.5767 -0.5147
 9863TIP3    H151080   2.198   5.088   5.255  1.0229 -0.1754  1.6464
 9863TIP3    H251081   2.069   5.166   5.240  0.8099 -0.9029 -0.7904
 9864TIP3   OH251082   5.710   4.574   2.296  0.1728  0.0982 -0.5043
 9864TIP3    H151083   5.752   4.643   2.244 -0.1470  1.1525  0.5826
 9864TIP3    H251084   5.641   4.620   2.344 -0.3990 -1.0968 -0.1557
 9865TIP3   OH251085   6.118   4.628  14.887 -0.3404  0.0167 -0.0462
 9865TIP3    H151086   6.141   4.599  14.975  0.9297 -1.1328 -0.7290
 9865TIP3    H251087   6.183   4.587  14.830 -2.2006 -0.7387 -1.7309
 9866TIP3   OH251088   6.164   0.513   1.360 -0.6259  0.3031  0.8961
 9866TIP3    H151089   6.083   0.536   1.315 -1.0784  0.1119  1.5954
 9866TIP3    H251090   6.226   0.581   1.335 -0.8485  0.1677 -0.0538
 9867TIP3   OH251091   0.648   4.923  16.929 -0.5315  0.4430  0.6626
 9867TIP3    H151092   0.701   4.895  16.854 -1.3773 -1.1959  0.6308
 9867TIP3    H251093   0.625   5.014  16.909 -1.1820 -0.1062 -1.3694
 9868TIP3   OH251094   1.447   2.926   5.679 -0.3699 -0.1100 -0.2270
 9868TIP3    H151095   1.374   2.873   5.648 -0.1655 -1.4186  1.3656
 9868TIP3    H251096   1.413   2.968   5.759  0.3919 -0.1865  0.1480
 9869TIP3   OH251097   5.970   4.154   0.479  0.1218 -0.2739  0.3025
 9869TIP3    H151098   5.974   4.120   0.390  0.9316 -1.6256  0.8296
 9869TIP3    H251099   5.882   4.131   0.510  0.4152 -1.2737  0.4103
 9870TIP3   OH251100   1.385   3.713  11.827 -0.5611 -0.0144 -0.4879
 9870TIP3    H151101   1.451   3.772  11.791 -0.4154 -0.2850 -0.6567
 9870TIP3    H251102   1.434   3.653  11.884 -0.3962 -1.3756 -2.0095
 9871TIP3   OH251103   2.772   3.667  16.447 -0.2100 -0.1734 -1.0729
 9871TIP3    H151104   2.731   3.632  16.526  1.2940 -0.4613 -0.3859
 9871TIP3    H251105   2.701   3.669  16.383 -1.6300  0.6358  0.4232
 9872TIP3   OH251106   0.339   0.616  14.681  0.5954 -0.0603  0.2316
 9872TIP3    H151107   0.364   0.524  14.680  1.3757  0.0203  2.9685
 9872TIP3    H251108   0.243   0.615  14.684  0.4472 -0.6289 -2.5591
 9873TIP3   OH251109   1.405   1.779   3.971 -0.1812  0.2456 -0.3755
 9873TIP3    H151110   1.480   1.777   4.029 -0.0408 -1.7197 -0.5555
 9873TIP3    H251111   1.432   1.728   3.894 -1.4615  0.0483 -0.7250
 9874TIP3   OH251112   0.930   0.679  11.800 -0.2139 -0.4733  0.4758
 9874TIP3    H151113   0.834   0.686  11.800 -0.0853  1.8930  1.0056
 9874TIP3    H251114   0.951   0.655  11.891 -0.2690 -0.7505  0.4184
 9875TIP3   OH251115   5.779   5.656   1.967  0.4511 -0.5746 -0.2563
 9875TIP3    H151116   5.787   5.694   2.055 -0.4427 -1.6628  0.3185
 9875TIP3    H251117   5.705   5.596   1.973 -0.3374  0.1264 -2.0635
 9876TIP3   OH251118   5.399   0.284   3.614 -0.2838 -0.3225  0.6403
 9876TIP3    H151119   5.486   0.253   3.589 -0.5720 -1.0139  0.4655
 9876TIP3    H251120   5.369   0.333   3.537 -1.5135 -3.1574 -0.8237
 9877TIP3   OH251121   2.470   0.338  10.779 -0.7962 -0.6523  0.4659
 9877TIP3    H151122   2.546   0.371  10.731 -0.3037 -0.5768  1.2835
 9877TIP3    H251123   2.450   0.406  10.842  0.3623 -1.9191  2.3230
 9878TIP3   OH251124   5.800   1.754  12.076  0.3312  0.5447  0.0450
 9878TIP3    H151125   5.866   1.689  12.101 -0.4223 -0.3154 -0.1349
 9878TIP3    H251126   5.780   1.800  12.157 -0.1342 -0.4024  0.4797
 9879TIP3   OH251127   1.072   3.180  15.533  0.8188  0.0759  0.5945
 9879TIP3    H151128   1.078   3.108  15.596 -1.7334 -0.1590  0.6734
 9879TIP3    H251129   1.018   3.246  15.576  1.0970  1.0116 -0.4192
 9880TIP3   OH251130   4.813   6.616   0.761 -0.0794 -0.4906  0.2162
 9880TIP3    H151131   4.821   6.632   0.855  0.2867 -1.3317  0.3381
 9880TIP3    H251132   4.782   6.526   0.754 -1.8295  0.1207 -0.4550
 9881TIP3   OH251133   6.394   2.883  13.829 -0.0988  0.1066  0.3818
 9881TIP3    H151134   6.451   2.852  13.899  1.7461  1.3799 -0.4812
 9881TIP3    H251135   6.374   2.805  13.777 -0.3544 -0.6023  1.5114
 9882TIP3   OH251136   2.838   1.466  13.344  0.3014  0.3978  0.0686
 9882TIP3    H151137   2.889   1.468  13.263  0.9537 -1.3004  0.3817
 9882TIP3    H251138   2.810   1.557  13.358  0.4958  0.7948 -1.8333
 9883TIP3   OH251139   2.073   1.266   5.238  0.0853  0.1571 -0.5655
 9883TIP3    H151140   2.072   1.271   5.142 -1.4418  0.8280 -0.5340
 9883TIP3    H251141   2.164   1.287   5.262  0.3925  0.3630 -1.8475
 9884TIP3   OH251142   0.424   2.716   3.455  0.2745  0.4231 -0.5325
 9884TIP3    H151143   0.447   2.624   3.439 -0.6790 -0.2819  1.7516
 9884TIP3    H251144   0.335   2.725   3.423  1.4423  1.5392 -3.8347
 9885TIP3   OH251145   2.919   2.990  15.165  0.1069  0.0974  0.1586
 9885TIP3    H151146   2.936   2.931  15.238  0.4400  0.5502  0.4540
 9885TIP3    H251147   2.846   3.044  15.196 -0.4374 -0.3875 -0.2514
 9886TIP3   OH251148   5.946   6.537  15.764 -0.5973 -0.1027  0.5591
 9886TIP3    H151149   6.020   6.597  15.759 -1.8838  1.4560 -0.7667
 9886TIP3    H251150   5.888   6.575  15.829 -1.7954  0.5919 -0.8586
 9887TIP3   OH251151   4.143   5.439  15.244 -0.1693  0.8082  0.6549
 9887TIP3    H151152   4.208   5.506  15.265  1.1186 -0.8301  2.1585
 9887TIP3    H251153   4.121   5.399  15.328 -0.2749 -1.1877 -0.2627
 9888TIP3   OH251154   4.371   3.596   2.584 -0.1515 -0.8699  0.1173
 9888TIP3    H151155   4.371   3.568   2.493 -1.7028 -0.1857 -0.1220
 9888TIP3    H251156   4.286   3.568   2.618  0.0559 -0.3592  1.0957
 9889TIP3   OH251157   6.145   4.696  10.095 -0.4825  0.2062  0.3627
 9889TIP3    H151158   6.069   4.733  10.140  1.0774  2.3724  1.3879
 9889TIP3    H251159   6.140   4.732  10.006 -0.4210  0.7337  0.5684
 9890TIP3   OH251160   3.590   0.443   3.192 -0.9420  0.2544  0.3863
 9890TIP3    H151161   3.658   0.452   3.259  0.9305 -2.0434 -1.0493
 9890TIP3    H251162   3.610   0.511   3.128 -0.5476  0.1705  0.4158
 9891TIP3   OH251163   2.086   1.735   1.549  0.2252 -0.0606  0.0136
 9891TIP3    H151164   2.060   1.827   1.548  0.9843  0.1531 -0.3207
 9891TIP3    H251165   2.107   1.715   1.458  1.7243 -0.0810  0.3443
 9892TIP3   OH251166   2.426   5.584   5.920  0.4546  0.4682  0.2310
 9892TIP3    H151167   2.374   5.561   5.997 -2.0092 -0.4014 -1.5580
 9892TIP3    H251168   2.472   5.504   5.897  0.6483  0.5328  0.3902
 9893TIP3   OH251169   0.191   5.119  11.854 -0.1068 -0.8405  0.4558
 9893TIP3    H151170   0.211   5.212  11.847 -0.7086 -0.8459 -2.2933
 9893TIP3    H251171   0.101   5.116  11.888  0.6707 -0.5683  2.7587
 9894TIP3   OH251172   0.468   4.049  17.093 -0.2945 -0.5402 -0.6079
 9894TIP3    H151173   0.418   3.995  17.155 -1.4795  1.0811 -0.0919
 9894TIP3    H251174   0.558   4.045  17.124 -0.7695 -0.2546  0.8725
 9895TIP3   OH251175   3.955   6.400  12.929  0.0100  0.4618  0.0873
 9895TIP3    H151176   4.011   6.474  12.952  1.7246 -0.4676 -0.8884
 9895TIP3    H251177   3.919   6.370  13.012 -0.0350  1.8609  0.5860
 9896TIP3   OH251178   2.150   1.712   3.517 -0.2697 -0.3770  0.0074
 9896TIP3    H151179   2.062   1.733   3.546 -0.2388 -0.1899 -0.0353
 9896TIP3    H251180   2.173   1.782   3.456 -0.8799 -1.4818 -1.5929
 9897TIP3   OH251181   0.980   5.799  12.002 -1.1496 -0.3137 -0.0840
 9897TIP3    H151182   0.989   5.736  11.930  1.3152 -0.2779  0.0950
 9897TIP3    H251183   0.997   5.748  12.081  3.8858  0.8095 -0.0733
 9898TIP3   OH251184   1.792   5.806   4.931  0.1901 -0.7613  0.1526
 9898TIP3    H151185   1.831   5.805   5.019  0.5075  2.2099  0.1460
 9898TIP3    H251186   1.708   5.850   4.943  0.1397 -0.5268 -1.0095
 9899TIP3   OH251187   4.040   6.646  13.106 -0.0364  0.2720  0.0640
 9899TIP3    H151188   4.081   6.697  13.036 -1.3620  0.0382 -0.9203
 9899TIP3    H251189   4.111   6.592  13.140  0.5624  0.0857 -1.3939
 9900TIP3   OH251190   4.141   2.673   3.091  0.1029 -0.2414  0.8766
 9900TIP3    H151191   4.187   2.727   3.027 -1.2103 -0.5288 -0.3801
 9900TIP3    H251192   4.159   2.714   3.176  0.6386  1.0574  0.1591
 9901TIP3   OH251193   2.187   1.312  14.580  0.2750  0.2888  0.4487
 9901TIP3    H151194   2.267   1.358  14.606 -0.0354  0.3771  1.3012
 9901TIP3    H251195   2.163   1.351  14.496  1.7059 -0.4938 -0.3610
 9902TIP3   OH251196   3.984   6.714   2.827  0.1205  0.3717 -0.4657
 9902TIP3    H151197   3.956   6.642   2.772  1.8177  0.9672 -2.2080
 9902TIP3    H251198   4.043   6.674   2.891  0.1786  0.0565 -0.7156
 9903TIP3   OH251199   3.733   0.489   2.357 -0.3340 -0.0044  0.0349
 9903TIP3    H151200   3.684   0.563   2.321 -2.1022 -0.5683  1.1526
 9903TIP3    H251201   3.770   0.522   2.439  1.6915  0.5652 -1.0228
 9904TIP3   OH251202   1.050   0.438   3.197 -0.0333  0.3888  0.2990
 9904TIP3    H151203   1.116   0.438   3.127 -0.1771  0.1502  0.1620
 9904TIP3    H251204   1.097   0.470   3.274  0.4807 -0.6232  0.4324
 9905TIP3   OH251205   3.359   2.522  14.779  0.5884 -0.0457 -0.0116
 9905TIP3    H151206   3.344   2.594  14.718  0.7673 -1.0969 -1.3277
 9905TIP3    H251207   3.302   2.451  14.748 -0.3963 -0.1468  1.8957
 9906TIP3   OH251208   1.609   2.713  17.169 -0.0154  0.3874  0.4638
 9906TIP3    H151209   1.684   2.763  17.204  0.0141  0.5655  0.1498
 9906TIP3    H251210   1.585   2.653  17.240  0.9924 -0.2982  0.2440
 9907TIP3   OH251211   1.147   4.151   1.775  0.0449 -0.2713  0.2673
 9907TIP3    H151212   1.224   4.208   1.768 -0.1088 -0.2111 -1.2813
 9907TIP3    H251213   1.133   4.142   1.869  2.6168 -1.2049  0.6542
 9908TIP3   OH251214   0.315   5.572   3.237 -0.0528  0.3195  0.0026
 9908TIP3    H151215   0.244   5.550   3.297  0.2880 -1.0894 -0.0716
 9908TIP3    H251216   0.274   5.628   3.171 -0.5550  1.4399  1.2085
 9909TIP3   OH251217   3.336   3.905   5.699 -0.2583  0.2149  0.0848
 9909TIP3    H151218   3.243   3.903   5.679 -0.4273 -0.1068  0.8365
 9909TIP3    H251219   3.352   3.823   5.747  0.0630  0.9907  1.3710
 9910TIP3   OH251220   4.144   2.407   1.916  0.8891 -0.1765  0.1585
 9910TIP3    H151221   4.097   2.444   1.841  0.5003 -2.5733 -0.8625
 9910TIP3    H251222   4.095   2.438   1.992  1.5437  2.6768 -0.4506
 9911TIP3   OH251223   1.538   5.877   6.264 -0.3007  0.2910 -0.1082
 9911TIP3    H151224   1.443   5.865   6.266 -0.1319 -1.3224  2.4455
 9911TIP3    H251225   1.569   5.814   6.200 -0.7190 -2.0634  1.8756
 9912TIP3   OH251226   0.613   0.181  17.269  0.1864  0.4460  0.1229
 9912TIP3    H151227   0.520   0.197  17.258  0.1553  0.0910 -0.1654
 9912TIP3    H251228   0.650   0.199  17.182  0.1904 -0.7257 -0.1359
 9913TIP3   OH251229   1.765   4.847   1.316 -0.0166  0.0894  0.0335
 9913TIP3    H151230   1.738   4.776   1.375 -0.1046  0.8438  0.9179
 9913TIP3    H251231   1.689   4.905   1.312  1.3712  2.3358  2.6863
 9914TIP3   OH251232   4.216   2.366  13.440 -0.4308  0.4256  0.3100
 9914TIP3    H151233   4.208   2.426  13.366  2.7551  1.0965  0.3892
 9914TIP3    H251234   4.274   2.297  13.410 -2.0041 -1.3327  1.0705
 9915TIP3   OH251235   2.735   0.357   0.580  0.4007  0.3648  0.2390
 9915TIP3    H151236   2.812   0.328   0.531  1.1742  0.8386  1.1645
 9915TIP3    H251237   2.768   0.379   0.667 -1.0180 -0.8365  1.1286
 9916TIP3   OH251238   1.508   5.989  11.902  0.2596 -0.0893  0.0413
 9916TIP3    H151239   1.554   6.047  11.842 -1.1108  1.4899  0.4583
 9916TIP3    H251240   1.575   5.961  11.965  0.9402  1.0731 -0.1422
 9917TIP3   OH251241   5.279   6.352   2.250  0.2402 -0.0155  0.2232
 9917TIP3    H151242   5.301   6.346   2.158  0.4339 -0.8252  0.3093
 9917TIP3    H251243   5.183   6.341   2.252  0.1191  0.9531  0.0510
 9918TIP3   OH251244   4.421   0.238  14.142 -0.1458  0.6143 -0.1584
 9918TIP3    H151245   4.391   0.153  14.175 -0.4444  0.4405 -0.8713
 9918TIP3    H251246   4.515   0.237  14.157 -0.0620 -0.0769 -0.6638
 9919TIP3   OH251247   5.248   5.093   3.743 -0.1370  0.6739 -0.3174
 9919TIP3    H151248   5.234   5.154   3.816 -0.2899 -0.0013  0.2259
 9919TIP3    H251249   5.340   5.070   3.748 -0.0455  0.9666 -0.6126
 9920TIP3   OH251250   3.884   3.542   3.385  1.1525  0.4355  0.0753
 9920TIP3    H151251   3.934   3.614   3.348 -0.4546  2.3275  1.3711
 9920TIP3    H251252   3.875   3.479   3.314  1.4176  2.1500 -1.5347
 9921TIP3   OH251253   0.888   6.359  15.096 -0.1672  0.4067  0.0187
 9921TIP3    H151254   0.934   6.437  15.128 -0.6931  0.5491  0.4365
 9921TIP3    H251255   0.954   6.312  15.045  0.9528 -0.2513  1.9830
 9922TIP3   OH251256   4.447   0.912  10.806  0.4507 -0.9461 -0.0123
 9922TIP3    H151257   4.472   0.843  10.745 -2.4284 -1.8703 -0.3025
 9922TIP3    H251258   4.476   0.993  10.763  2.2721 -1.8201 -0.5267
 9923TIP3   OH251259   2.527   3.983   3.029 -0.2669 -0.0372 -0.2023
 9923TIP3    H151260   2.559   4.044   2.962 -0.0204 -0.8898 -0.8715
 9923TIP3    H251261   2.584   3.907   3.021 -1.8292 -1.2082 -0.7658
 9924TIP3   OH251262   0.272   5.452   2.895 -0.5770  0.6303 -0.2239
 9924TIP3    H151263   0.329   5.460   2.971 -0.2064  0.7075 -0.5066
 9924TIP3    H251264   0.259   5.358   2.885  0.3092  0.5534 -0.7478
 9925TIP3   OH251265   4.742   6.131   3.196  0.0207  0.1503 -0.3339
 9925TIP3    H151266   4.659   6.165   3.164  0.6464  1.6754 -0.4180
 9925TIP3    H251267   4.748   6.043   3.159 -2.3718 -0.7550  1.1571
 9926TIP3   OH251268   1.469   3.133   2.894 -0.3122 -0.2643 -1.1055
 9926TIP3    H151269   1.401   3.078   2.855 -1.2369  1.1892 -1.6067
 9926TIP3    H251270   1.451   3.129   2.988  0.0296 -1.3069 -1.0679
 9927TIP3   OH251271   5.888   6.473  16.100  0.0233 -0.4298 -0.1517
 9927TIP3    H151272   5.974   6.436  16.080  1.3278  2.3881 -0.2839
 9927TIP3    H251273   5.884   6.474  16.196  1.2185  1.4420 -0.0529
 9928TIP3   OH251274   0.224   6.201  11.977 -0.3707  0.0943  0.3021
 9928TIP3    H151275   0.134   6.170  11.992 -0.5120  0.4121  0.1231
 9928TIP3    H251276   0.230   6.209  11.882  0.1824 -0.9102  0.2370
 9929TIP3   OH251277   6.798   6.175  14.848  0.4595  0.1125 -0.3494
 9929TIP3    H151278   6.802   6.269  14.867  0.8350 -0.2918  1.8951
 9929TIP3    H251279   6.879   6.157  14.801  0.1689  0.9706 -1.2236
 9930TIP3   OH251280   5.982   2.020  14.134  0.4747 -0.3953  1.0618
 9930TIP3    H151281   6.058   2.069  14.167  0.5647  0.0481  0.2216
 9930TIP3    H251282   5.943   2.077  14.068 -0.7810 -0.4928  1.6864
 9931TIP3   OH251283   0.273   0.688  15.252 -0.3931 -0.4403  0.3003
 9931TIP3    H151284   0.349   0.710  15.199 -0.7814  0.8451  0.2470
 9931TIP3    H251285   0.254   0.597  15.230  0.3665 -0.3878 -0.6269
 9932TIP3   OH251286   2.829   3.828   4.208  0.9741  0.0034 -0.2588
 9932TIP3    H151287   2.916   3.846   4.170  1.0714  1.1896  0.4914
 9932TIP3    H251288   2.768   3.854   4.140  1.1802  0.5452 -0.2391
 9933TIP3   OH251289   2.033   3.852   3.813 -0.0253  0.3281  0.4145
 9933TIP3    H151290   2.000   3.787   3.876  0.3386  0.1309  0.4050
 9933TIP3    H251291   2.068   3.922   3.868  1.7679 -0.5731  0.4751
 9934TIP3   OH251292   1.331   0.363  13.357 -0.3226  0.1030  0.1371
 9934TIP3    H151293   1.360   0.325  13.440  0.1640  0.9509  0.3660
 9934TIP3    H251294   1.388   0.323  13.291  1.6126  1.8918  0.6014
 9935TIP3   OH251295   5.563   5.566  16.839 -0.2969  0.6380  0.3169
 9935TIP3    H151296   5.548   5.624  16.914 -0.4262 -2.6095  2.9875
 9935TIP3    H251297   5.476   5.532  16.818 -0.2294  1.3402 -1.2872
 9936TIP3   OH251298   3.991   2.272  16.724 -0.1633 -0.3508  0.4270
 9936TIP3    H151299   3.986   2.326  16.803  0.9627  0.3360  0.0477
 9936TIP3    H251300   4.084   2.254  16.712 -0.3907 -1.1346 -0.2987
 9937TIP3   OH251301   2.575   6.734  13.564  0.1861  0.2215  0.0852
 9937TIP3    H151302   2.602   6.824  13.582 -0.5301  0.8252 -1.6541
 9937TIP3    H251303   2.545   6.735  13.473 -0.3611 -1.6582  0.1923
 9938TIP3   OH251304   1.712   4.193  14.124  0.0197  0.2822 -0.1231
 9938TIP3    H151305   1.623   4.220  14.102 -0.0890  0.9068  1.0439
 9938TIP3    H251306   1.760   4.275  14.137  0.8375 -0.0434 -0.9735
 9939TIP3   OH251307   0.845   3.343   2.241  0.1459  0.1860  0.1760
 9939TIP3    H151308   0.844   3.400   2.318  0.1441  0.5473 -0.0875
 9939TIP3    H251309   0.818   3.257   2.274  0.4679  0.2577  0.6376
 9940TIP3   OH251310   5.318   5.022  10.912 -0.3280 -0.3060  0.5343
 9940TIP3    H151311   5.238   5.040  10.963 -0.6106 -0.0749  0.0168
 9940TIP3    H251312   5.305   5.070  10.830  1.8665  2.7308  1.7607
 9941TIP3   OH251313   5.836   4.797   5.009  0.5386 -0.7545  0.0425
 9941TIP3    H151314   5.832   4.807   5.105  0.9502  0.3919 -0.0402
 9941TIP3    H251315   5.914   4.744   4.994  1.5904  0.6580  0.2770
 9942TIP3   OH251316   4.423   1.965  13.980 -0.5150  0.8068 -0.2038
 9942TIP3    H151317   4.340   1.989  13.938 -1.0801  1.2013  1.0738
 9942TIP3    H251318   4.465   1.905  13.918 -1.8063  0.4983 -0.8220
 9943TIP3   OH251319   2.269   5.563  10.528  0.1086 -0.1272 -0.2274
 9943TIP3    H151320   2.263   5.475  10.567 -0.3261  0.1183  0.2722
 9943TIP3    H251321   2.341   5.605  10.574  1.6879 -0.8990 -1.8675
 9944TIP3   OH251322   0.731   0.322  11.921 -0.3824  0.0152  0.0735
 9944TIP3    H151323   0.666   0.341  11.853 -0.6714 -1.6942 -0.1857
 9944TIP3    H251324   0.807   0.376  11.899 -0.2519 -0.9241 -1.9737
 9945TIP3   OH251325   6.128   6.818  16.099  0.0410 -0.2432 -0.0112
 9945TIP3    H151326   6.210   6.797  16.055 -0.1033  1.4365 -1.1449
 9945TIP3    H251327   6.083   6.734  16.107  1.1509 -0.9459 -0.8420
 9946TIP3   OH251328   6.599   5.680   0.917  0.3452  0.4709  0.0282
 9946TIP3    H151329   6.642   5.759   0.883 -2.2595  1.2789 -1.6470
 9946TIP3    H251330   6.576   5.701   1.007 -0.0599  1.5314 -0.3146
 9947TIP3   OH251331   2.797   5.226   3.861  0.3609  0.0192  0.0058
 9947TIP3    H151332   2.714   5.236   3.907 -0.8990 -4.3984 -0.7831
 9947TIP3    H251333   2.773   5.221   3.768  1.5243 -0.7816 -0.2832
 9948TIP3   OH251334   1.168   3.199  11.540 -0.0807 -0.0965 -0.3531
 9948TIP3    H151335   1.235   3.173  11.476  0.9965  0.1066  0.6433
 9948TIP3    H251336   1.100   3.133  11.531  0.2136 -0.2829 -1.4463
 9949TIP3   OH251337   2.804   6.093   2.714 -0.0311 -0.4418 -0.1073
 9949TIP3    H151338   2.883   6.041   2.696  0.4025  0.0896  0.2165
 9949TIP3    H251339   2.837   6.174   2.753 -0.8139 -0.7182  1.1900
 9950TIP3   OH251340   0.198   4.051   3.480 -0.5067 -0.3639  0.7443
 9950TIP3    H151341   0.139   4.103   3.534  1.0164  1.7428  0.4866
 9950TIP3    H251342   0.271   4.110   3.460  1.1819 -2.5175  0.1687
 9951TIP3   OH251343   1.711   6.106   5.991 -0.5766 -0.0795  1.1291
 9951TIP3    H151344   1.721   6.021   5.946 -0.4737  0.0750  0.8550
 9951TIP3    H251345   1.618   6.127   5.980 -0.0025  1.4417 -1.7667
 9952TIP3   OH251346   2.510   5.920  14.319 -0.0849 -0.0861 -0.0039
 9952TIP3    H151347   2.548   5.936  14.405  1.8752 -0.8605 -0.6766
 9952TIP3    H251348   2.463   6.000  14.298 -0.0730  0.3498  1.4991
 9953TIP3   OH251349   3.738   6.105  12.579 -0.1254  0.3056  0.2424
 9953TIP3    H151350   3.793   6.094  12.502 -1.0087  0.4242 -0.4324
 9953TIP3    H251351   3.737   6.199  12.595  0.1770  0.2671  0.4918
 9954TIP3   OH251352   6.587   3.386  11.677  0.1392  0.0507 -0.1460
 9954TIP3    H151353   6.655   3.412  11.614  1.1508 -0.3551  0.7370
 9954TIP3    H251354   6.616   3.300  11.708 -0.2540  0.3161  0.9915
 9955TIP3   OH251355   1.742   3.664  17.251 -0.1085  0.2738  0.6069
 9955TIP3    H151356   1.759   3.651  17.158  1.3034 -1.0117  1.0036
 9955TIP3    H251357   1.827   3.688  17.288 -0.5985  0.5582  1.5948
 9956TIP3   OH251358   5.585   0.191   5.558  0.2417 -0.3225 -0.2739
 9956TIP3    H151359   5.646   0.144   5.615  0.1974 -0.6830 -0.5167
 9956TIP3    H251360   5.621   0.180   5.470  0.9576  1.2329 -0.2072
 9957TIP3   OH251361   5.685   3.379   1.053 -0.2159  0.2640 -0.6413
 9957TIP3    H151362   5.675   3.295   1.099  0.5705  0.6170  0.2094
 9957TIP3    H251363   5.631   3.370   0.975 -0.9908 -0.6394 -0.0290
 9958TIP3   OH251364   0.591   1.656   5.533 -0.0518  0.1223 -0.5956
 9958TIP3    H151365   0.647   1.699   5.597  2.2389 -1.0769 -1.6696
 9958TIP3    H251366   0.639   1.577   5.508 -2.1672 -0.8970 -1.7449
 9959TIP3   OH251367   6.428   2.145   6.434  0.1295 -0.1983 -0.4395
 9959TIP3    H151368   6.408   2.084   6.505  0.2745 -1.2378 -1.2757
 9959TIP3    H251369   6.372   2.117   6.361  1.3756 -0.3517 -1.3568
 9960TIP3   OH251370   2.673   1.047   3.573 -0.0524  0.0354  0.0903
 9960TIP3    H151371   2.749   0.994   3.551  1.1134  2.2960 -1.7208
 9960TIP3    H251372   2.659   1.102   3.496 -2.8382  0.4959  0.8283
 9961TIP3   OH251373   0.748   2.475   4.509 -0.5045  0.5653 -0.3152
 9961TIP3    H151374   0.737   2.390   4.550  1.6857 -0.3009 -1.3935
 9961TIP3    H251375   0.702   2.536   4.568 -0.5097 -1.0796  1.4820
 9962TIP3   OH251376   6.082   3.367  16.254  0.5671  0.0120 -0.6065
 9962TIP3    H151377   6.020   3.326  16.194 -1.3054 -0.4673  1.5248
 9962TIP3    H251378   6.105   3.450  16.212 -0.8758 -0.1835 -1.8725
 9963TIP3   OH251379   2.091   5.040   1.905  0.5070  0.5576 -0.8739
 9963TIP3    H151380   2.151   5.113   1.889 -0.4247  1.6695  0.5237
 9963TIP3    H251381   2.004   5.078   1.900  0.0055 -0.4094  0.1410
 9964TIP3   OH251382   3.020   1.067  11.539  0.2558  0.3121 -0.3729
 9964TIP3    H151383   3.061   1.151  11.519  3.4018 -0.7308  1.0144
 9964TIP3    H251384   2.994   1.073  11.631  2.1635 -0.7197  0.2986
 9965TIP3   OH251385   0.170   3.270  11.464  0.4211  0.2704 -0.3151
 9965TIP3    H151386   0.160   3.328  11.540  0.9322  0.4889 -0.4125
 9965TIP3    H251387   0.253   3.295  11.425  0.8112 -0.7505 -0.1744
 9966TIP3   OH251388   4.758   0.952   5.009 -0.2715  0.7818  0.3212
 9966TIP3    H151389   4.787   1.003   5.085 -0.2417  1.7866 -0.3392
 9966TIP3    H251390   4.810   0.987   4.937 -2.3458  1.9375 -0.7156
 9967TIP3   OH251391   0.749   6.030  14.937  0.1481  0.0498  0.0365
 9967TIP3    H151392   0.714   5.941  14.937  0.2737 -0.0113  1.3569
 9967TIP3    H251393   0.747   6.058  15.029  1.0933  1.0199 -0.2096
 9968TIP3   OH251394   3.747   3.807   0.434  1.1040 -0.4717 -0.1424
 9968TIP3    H151395   3.742   3.796   0.529  2.1882 -1.4518 -0.1735
 9968TIP3    H251396   3.813   3.743   0.406 -1.1013 -2.1490 -1.8745
 9969TIP3   OH251397   0.143   4.250   4.219  0.5465 -0.5173 -0.1238
 9969TIP3    H151398   0.184   4.284   4.140 -1.6124  0.5149 -0.8591
 9969TIP3    H251399   0.153   4.320   4.283  0.0802 -0.3349 -0.2512
 9970TIP3   OH251400   5.574   5.544   2.566  0.1669 -0.3337  0.1555
 9970TIP3    H151401   5.622   5.559   2.485 -1.7387  0.0507 -0.9778
 9970TIP3    H251402   5.520   5.466   2.548  0.2064 -0.6468  1.3026
 9971TIP3   OH251403   5.163   0.201  11.638  0.0504 -0.1338  0.0450
 9971TIP3    H151404   5.244   0.199  11.688 -0.6499  0.2463  1.2541
 9971TIP3    H251405   5.129   0.290  11.651  0.9473  0.7688 -3.0061
 9972TIP3   OH251406   3.012   1.000   2.553 -0.0732  0.0804 -0.5509
 9972TIP3    H151407   2.941   0.988   2.489  1.0757  0.3216 -1.9093
 9972TIP3    H251408   3.053   1.083   2.528 -0.0845  0.5796  1.0050
 9973TIP3   OH251409   1.908   6.163   3.222  0.5541 -0.4378  0.1969
 9973TIP3    H151410   1.964   6.207   3.158 -1.7645  1.1465 -0.8751
 9973TIP3    H251411   1.897   6.226   3.293 -2.2906  0.6485 -1.0622
 9974TIP3   OH251412   4.190   1.987   0.601  0.3158  0.1186  0.2309
 9974TIP3    H151413   4.280   1.997   0.570  0.6873 -0.4659  1.0827
 9974TIP3    H251414   4.175   2.065   0.655  0.4682 -0.0118  0.4611
 9975TIP3   OH251415   5.708   5.289  11.803  0.2588  0.0917  0.2651
 9975TIP3    H151416   5.688   5.207  11.848  0.7581 -0.4285 -0.4273
 9975TIP3    H251417   5.799   5.308  11.827 -0.0591  0.8011  0.9460
 9976TIP3   OH251418   0.994   3.652   0.258  0.5627  0.5129  0.1013
 9976TIP3    H151419   1.060   3.606   0.310  0.1236 -0.2296  0.0188
 9976TIP3    H251420   1.014   3.745   0.271  0.4448  0.3457  1.6190
 9977TIP3   OH251421   2.437   0.720   4.158 -0.7039  0.3779 -0.3751
 9977TIP3    H151422   2.376   0.744   4.089 -1.1361 -2.2895 -1.0173
 9977TIP3    H251423   2.389   0.736   4.239 -2.2932 -1.5071 -0.8652
 9978TIP3   OH251424   3.848   0.910  15.232 -0.4448  0.0125 -0.0492
 9978TIP3    H151425   3.806   0.824  15.231 -0.5236  0.0507 -1.8659
 9978TIP3    H251426   3.941   0.892  15.217 -0.0235  0.0774  2.1378
 9979TIP3   OH251427   1.027   1.062   5.344  0.0208  0.6776  0.5532
 9979TIP3    H151428   1.002   1.099   5.429 -3.2738 -1.8638  0.8795
 9979TIP3    H251429   0.944   1.042   5.301  1.6057 -0.5586 -2.1677
 9980TIP3   OH251430   3.685   2.413  15.953  0.1093 -0.0000 -0.3797
 9980TIP3    H151431   3.683   2.485  16.016  0.6127 -0.6051  0.3494
 9980TIP3    H251432   3.751   2.439  15.888  0.1427  0.2866 -0.2315
 9981TIP3   OH251433   5.398   2.333  15.979 -0.0569  1.0295 -0.0100
 9981TIP3    H151434   5.429   2.304  16.065  2.3469  1.2205 -0.7317
 9981TIP3    H251435   5.372   2.424  15.993 -1.3640  0.5681  0.8366
 9982TIP3   OH251436   6.195   5.834  17.067 -0.2446 -0.2942  0.2550
 9982TIP3    H151437   6.202   5.743  17.038  0.1943 -0.4545  0.8594
 9982TIP3    H251438   6.225   5.885  16.992  3.4447 -0.7843  1.2303
 9983TIP3   OH251439   0.926   2.230  10.150 -0.6528  0.4852 -0.0310
 9983TIP3    H151440   0.922   2.220  10.245 -0.9169  1.3248  0.0563
 9983TIP3    H251441   1.014   2.203  10.127  0.1248  2.2404  0.7176
 9984TIP3   OH251442   1.390   2.413   5.539  0.3224  0.0965 -0.0295
 9984TIP3    H151443   1.458   2.472   5.573  0.3512 -0.4759  0.9582
 9984TIP3    H251444   1.329   2.471   5.494  0.5049  0.8561  0.6605
 9985TIP3   OH251445   3.214   3.963   1.233  0.3725  0.1391  0.1051
 9985TIP3    H151446   3.265   4.043   1.222  1.2382 -0.3666  0.3285
 9985TIP3    H251447   3.123   3.991   1.225  0.7105  0.8378 -1.7745
 9986TIP3   OH251448   5.261   0.322  15.940  0.2569 -0.1216 -0.1916
 9986TIP3    H151449   5.259   0.256  15.871  1.3003  0.9542 -1.2986
 9986TIP3    H251450   5.349   0.360  15.935  0.5470 -0.3306  2.0631
 9987TIP3   OH251451   4.880   0.060  13.604 -0.5731  0.4352  0.8229
 9987TIP3    H151452   4.860  -0.003  13.534  0.4792 -1.6304  2.2720
 9987TIP3    H251453   4.823   0.033  13.676 -0.1476  1.1877  1.4497
 9988TIP3   OH251454   6.538   5.482  13.352  0.3119 -0.1224  0.3962
 9988TIP3    H151455   6.486   5.402  13.358  0.4615 -0.1957  0.7433
 9988TIP3    H251456   6.561   5.502  13.442 -1.4690  1.4719  0.5683
 9989TIP3   OH251457   4.640   2.264   1.034 -0.3207 -0.3272 -0.0404
 9989TIP3    H151458   4.696   2.334   1.067 -0.3525 -1.6104  2.9731
 9989TIP3    H251459   4.701   2.199   0.999 -0.1827  0.1156 -0.6476
 9990TIP3   OH251460   2.153   3.782   3.499  0.3359 -0.0097 -0.2307
 9990TIP3    H151461   2.219   3.774   3.568  0.5116 -1.4983 -0.5444
 9990TIP3    H251462   2.074   3.743   3.536 -0.2710  1.3873 -0.0106
 9991TIP3   OH251463   2.874   5.611   0.993  0.0820 -0.1780 -0.6937
 9991TIP3    H151464   2.830   5.696   1.003  0.4628 -0.0998  0.4930
 9991TIP3    H251465   2.958   5.632   0.952  0.1288  0.0118 -0.5047
 9992TIP3   OH251466   2.619   5.542  16.319  0.1027 -0.4153 -0.0059
 9992TIP3    H151467   2.686   5.505  16.377 -1.1713  0.6859  2.3171
 9992TIP3    H251468   2.665   5.608  16.268  1.5353 -2.2933 -1.2803
 9993TIP3   OH251469   1.957   0.171   3.472 -0.2974  0.1528  0.3008
 9993TIP3    H151470   1.998   0.088   3.446  0.2149  0.5111 -0.0701
 9993TIP3    H251471   1.865   0.161   3.447 -0.7260 -1.1037  2.2062
 9994TIP3   OH251472   3.741   1.268  13.436  0.1167 -0.2950 -0.8002
 9994TIP3    H151473   3.674   1.303  13.377  0.1563  1.4650  0.1503
 9994TIP3    H251474   3.806   1.338  13.444 -0.2855 -0.1409  1.9393
 9995TIP3   OH251475   5.562   4.292  11.443 -0.2692  0.3196 -0.2660
 9995TIP3    H151476   5.500   4.365  11.449 -1.4024 -0.5448 -1.1027
 9995TIP3    H251477   5.547   4.256  11.355  0.6344 -0.6114 -0.0508
 9996TIP3   OH251478   4.888   6.433  12.390 -0.2175 -0.0158 -0.4489
 9996TIP3    H151479   4.973   6.463  12.359 -0.9901  2.0363 -0.7415
 9996TIP3    H251480   4.900   6.341  12.410  1.9374  0.1260 -0.9490
 9997TIP3   OH251481   1.165   5.397  13.767  0.1063  0.5089 -0.4874
 9997TIP3    H151482   1.229   5.327  13.755  0.9697  1.2879 -0.5524
 9997TIP3    H251483   1.188   5.436  13.852  0.3281  1.3999 -0.9478
 9998TIP3   OH251484   1.007   4.666   1.748 -0.3441 -0.2894  0.1683
 9998TIP3    H151485   0.985   4.573   1.743  0.1053 -0.3556 -0.6696
 9998TIP3    H251486   1.040   4.688   1.661 -0.0079  0.5422  0.4968
 9999TIP3   OH251487   0.440   3.832  11.187  0.1281  0.1481 -0.4089
 9999TIP3    H151488   0.434   3.778  11.265  2.1336  1.0833  0.4612
 9999TIP3    H251489   0.352   3.831  11.150 -0.8642 -0.3800  1.8110
10000TIP3   OH251490   1.479   0.736  14.738 -0.3365  0.2886 -0.2001
10000TIP3    H151491   1.573   0.743  14.755 -0.4073 -0.1592  0.4203
10000TIP3    H251492   1.440   0.729  14.825 -0.8754 -0.3603 -0.4883
10001TIP3   OH251493   2.628   6.423  14.433 -0.0447 -0.2500  0.4772
10001TIP3    H151494   2.616   6.500  14.488  0.9939  0.2582  0.0246
10001TIP3    H251495   2.644   6.458  14.345 -0.0794 -1.0009  0.1604
10002TIP3   OH251496   5.724   1.785   3.518 -0.1413 -0.1467  0.6820
10002TIP3    H151497   5.707   1.698   3.484 -0.6308 -0.6074  2.0156
10002TIP3    H251498   5.707   1.844   3.445  4.0651 -1.3193 -1.5518
10003TIP3   OH251499   5.947   0.178  11.409  0.5896 -0.6514 -0.3790
10003TIP3    H151500   5.857   0.191  11.378 -0.5211  1.6386  3.1971
10003TIP3    H251501   5.982   0.267  11.417  2.3301 -1.3811  0.5174
10004TIP3   OH251502   1.968   2.752   4.856 -0.2191 -0.2238 -0.0671
10004TIP3    H151503   1.910   2.686   4.894 -1.6549  0.3276 -1.2101
10004TIP3    H251504   2.007   2.796   4.932 -0.9317 -0.9272  0.7323
10005TIP3   OH251505   1.317   2.467   5.017  0.6385  0.5735 -0.1201
10005TIP3    H151506   1.396   2.506   5.053 -0.3538  0.8293  1.9376
10005TIP3    H251507   1.258   2.542   5.003 -0.0988  0.1638  0.7170
10006TIP3   OH251508   2.644   3.996   4.836 -0.9092  0.3697  0.2582
10006TIP3    H151509   2.620   4.054   4.908 -0.7243  1.3972 -0.4875
10006TIP3    H251510   2.654   4.054   4.760 -0.4539 -0.6007 -0.4500
10007TIP3   OH251511   1.224   0.581   3.021 -0.4317  0.5686  0.6314
10007TIP3    H151512   1.312   0.546   3.034  0.1890  0.8818 -2.1555
10007TIP3    H251513   1.236   0.676   3.014 -0.7727  0.5275 -0.9237
10008TIP3   OH251514   1.439   2.294   2.629  0.2767 -0.1094  0.0246
10008TIP3    H151515   1.349   2.283   2.658  0.8551  0.2013  2.0750
10008TIP3    H251516   1.492   2.282   2.708  1.9446  1.2531 -0.8161
10009TIP3   OH251517   6.756   1.098  13.453 -1.1456  0.0792  0.4718
10009TIP3    H151518   6.712   1.025  13.497  0.7262 -1.4462 -0.0777
10009TIP3    H251519   6.684   1.149  13.416 -2.5313 -2.5603 -0.8015
10010TIP3   OH251520   3.692   2.913   2.094 -0.0701 -0.3601 -0.2494
10010TIP3    H151521   3.617   2.950   2.141  0.2143  1.2495 -0.9997
10010TIP3    H251522   3.691   2.820   2.116 -1.5287 -0.1279  0.7680
10011TIP3   OH251523   4.209   3.955  14.001 -0.1068 -0.4049 -0.2766
10011TIP3    H151524   4.175   3.998  13.922  0.5756  0.6861  0.0042
10011TIP3    H251525   4.132   3.945  14.058 -0.4374 -0.3844 -0.7145
10012TIP3   OH251526   2.795   4.356  16.680 -0.1073  0.3976  0.1889
10012TIP3    H151527   2.886   4.371  16.706 -0.1562  0.6306  0.2235
10012TIP3    H251528   2.751   4.333  16.762 -0.2865  1.2490  0.3320
10013TIP3   OH251529   4.054   3.178   0.705 -0.6299  0.1469  0.2673
10013TIP3    H151530   3.967   3.201   0.738 -0.7787 -0.1443  0.0884
10013TIP3    H251531   4.068   3.088   0.736 -0.1722  0.3691  0.7348
10014TIP3   OH251532   0.963   2.663   5.383 -0.2341  0.1271  0.5066
10014TIP3    H151533   0.887   2.643   5.437 -2.5883  0.7661 -2.2710
10014TIP3    H251534   0.980   2.756   5.399  1.4541 -0.4983  2.7337
10015TIP3   OH251535   4.457   5.384  12.763  0.2897 -0.5329  0.4890
10015TIP3    H151536   4.542   5.412  12.798  0.1832 -0.3289  0.5845
10015TIP3    H251537   4.422   5.462  12.721 -1.8639  0.7693  4.2134
10016TIP3   OH251538   1.879   0.192  12.153 -0.3348 -0.0734  0.0953
10016TIP3    H151539   1.814   0.161  12.091 -0.0179 -0.7050  0.0781
10016TIP3    H251540   1.943   0.121  12.161 -0.0434  0.2366  0.6782
10017TIP3   OH251541   2.753   0.241   4.146 -0.0973 -0.2841 -0.1802
10017TIP3    H151542   2.701   0.208   4.219 -0.2876 -1.0540 -0.6543
10017TIP3    H251543   2.730   0.185   4.072  2.5498 -1.7141 -0.0591
10018TIP3   OH251544   5.311   0.583   4.522 -0.3130  0.0494 -0.6244
10018TIP3    H151545   5.302   0.564   4.615  0.2846  0.6364 -0.4380
10018TIP3    H251546   5.309   0.497   4.479 -0.3831 -0.2336 -0.0591
10019TIP3   OH251547   4.453   4.684   3.307 -0.4393 -0.2980 -0.7942
10019TIP3    H151548   4.475   4.661   3.216  0.1048  1.1212 -1.0602
10019TIP3    H251549   4.441   4.601   3.351 -0.2271 -1.0285 -2.0630
10020TIP3   OH251550   1.697   2.122  14.588 -0.6060 -0.2753 -0.1578
10020TIP3    H151551   1.697   2.140  14.495  0.2542 -1.3789 -0.3967
10020TIP3    H251552   1.624   2.173  14.623 -2.5250 -1.7537 -1.8213
10021TIP3   OH251553   1.860   6.174  12.409  0.2627  0.0053 -0.3585
10021TIP3    H151554   1.909   6.241  12.361  0.4344  1.5899  1.8509
10021TIP3    H251555   1.769   6.201  12.403  0.0766 -0.7905 -1.2508
10022TIP3   OH251556   4.174   3.801   5.004  0.0075 -0.0443 -0.4594
10022TIP3    H151557   4.166   3.706   5.006  1.0072 -0.2315 -2.4584
10022TIP3    H251558   4.094   3.832   4.962 -1.0925  0.1919  1.6839
10023TIP3   OH251559   3.507   0.142   4.604  0.5201 -0.2353  0.7043
10023TIP3    H151560   3.461   0.082   4.662  1.5294  0.3169  2.1580
10023TIP3    H251561   3.577   0.178   4.659  2.1068 -0.3765 -1.1437
10024TIP3   OH251562   4.074   1.033   4.943  0.7640  0.8086  0.0241
10024TIP3    H151563   4.157   1.018   4.898  0.5978 -3.1280  0.6761
10024TIP3    H251564   4.100   1.059   5.032  1.2601  0.7922 -0.1094
10025TIP3   OH251565   1.786   2.453  13.565  0.0735  0.4215 -0.2001
10025TIP3    H151566   1.729   2.445  13.489  0.6739  2.6213 -0.9625
10025TIP3    H251567   1.872   2.425  13.533 -0.3285 -2.1505  0.7355
10026TIP3   OH251568   6.208   1.513   5.145 -0.1814  0.2732 -0.1858
10026TIP3    H151569   6.189   1.438   5.088  1.8785 -0.0621 -0.4959
10026TIP3    H251570   6.187   1.483   5.233  1.8309 -1.1910 -0.1390
10027TIP3   OH251571   0.370   5.709  13.165 -0.7269  0.6143  0.3542
10027TIP3    H151572   0.447   5.668  13.204 -0.9514  0.6656  0.8654
10027TIP3    H251573   0.370   5.680  13.074 -1.5424 -1.5533  0.9675
10028TIP3   OH251574   3.515   1.397  11.390 -0.5178  0.5425  0.1027
10028TIP3    H151575   3.580   1.466  11.375 -2.0081  2.5214  2.0769
10028TIP3    H251576   3.438   1.444  11.422 -2.1080 -1.9538  0.1305
10029TIP3   OH251577   6.203   0.511  10.747  0.5606  0.6402 -0.4732
10029TIP3    H151578   6.132   0.456  10.714  1.0428  0.3028 -0.9671
10029TIP3    H251579   6.169   0.601  10.740  0.0539  0.4562 -0.3718
10030TIP3   OH251580   4.318   4.295  13.979  0.2033  0.2252  0.8958
10030TIP3    H151581   4.334   4.389  13.969 -1.1605  0.6991  2.7194
10030TIP3    H251582   4.406   4.257  13.985  0.8013  1.2535 -0.5220
10031TIP3   OH251583   0.487   2.742  16.679  0.0033  0.4802  0.0458
10031TIP3    H151584   0.573   2.699  16.678 -0.2540 -0.0351 -0.5517
10031TIP3    H251585   0.479   2.776  16.768  1.6985  2.3256 -0.4329
10032TIP3   OH251586   5.410   1.176   0.109  0.6697  0.3181 -0.1801
10032TIP3    H151587   5.493   1.176   0.061 -0.8328 -0.0512 -3.0374
10032TIP3    H251588   5.379   1.266   0.104 -0.4519 -0.1114 -1.8562
10033TIP3   OH251589   1.186   3.115   1.140 -0.1261  0.6125 -0.3548
10033TIP3    H151590   1.264   3.059   1.135  0.5127  1.3988  0.4762
10033TIP3    H251591   1.114   3.053   1.152  0.6774 -0.0160  1.6290
10034TIP3   OH251592   5.177   5.808  11.225  0.7107 -0.0171  0.1354
10034TIP3    H151593   5.222   5.892  11.230 -1.4800  1.1738  1.2211
10034TIP3    H251594   5.223   5.752  11.288  2.2545  0.2908 -0.6718
10035TIP3   OH251595   3.044   0.117   4.089 -0.1752 -0.3831  0.2093
10035TIP3    H151596   2.963   0.162   4.066 -1.4768 -2.9532 -0.6038
10035TIP3    H251597   3.028   0.080   4.175 -0.3176 -1.7767 -0.3868
10036TIP3   OH251598   0.823   4.249  11.728  0.0812  0.3939 -0.8131
10036TIP3    H151599   0.795   4.161  11.703 -0.4211  0.1154  0.5997
10036TIP3    H251600   0.799   4.304  11.654 -0.0585 -0.5814 -1.5126
10037TIP3   OH251601   3.706   0.376   5.061  0.7178  0.0097  0.4150
10037TIP3    H151602   3.748   0.345   5.141  0.6308  0.6833  0.7249
10037TIP3    H251603   3.747   0.460   5.043  0.7702 -0.1580 -0.2787
10038TIP3   OH251604   0.805   1.039  12.156  0.1902  0.7662  0.7176
10038TIP3    H151605   0.817   1.133  12.168 -3.2602  1.5065 -0.4927
10038TIP3    H251606   0.711   1.027  12.153  0.4299 -2.1143 -3.5038
10039TIP3   OH251607   2.864   3.119   1.823 -0.0404  0.7320  0.5434
10039TIP3    H151608   2.828   3.044   1.776 -1.9073  1.0622  1.3723
10039TIP3    H251609   2.928   3.157   1.762 -0.6854 -0.2099 -0.7629
10040TIP3   OH251610   1.161   4.757   2.613 -0.4530 -0.1891 -0.0473
10040TIP3    H151611   1.147   4.784   2.522  2.6800  0.0159 -0.5806
10040TIP3    H251612   1.137   4.665   2.616 -2.4638  0.2845 -0.5416
10041TIP3   OH251613   6.207   6.562   1.870  0.4268  0.2953  0.4199
10041TIP3    H151614   6.255   6.645   1.865 -1.3943  1.7230  3.4960
10041TIP3    H251615   6.258   6.509   1.931  0.4678  0.0118  0.1377
10042TIP3   OH251616   1.885   4.484  15.552  0.0339  0.2966  0.5060
10042TIP3    H151617   1.969   4.523  15.576 -0.7068  2.7639 -0.6053
10042TIP3    H251618   1.822   4.523  15.613 -0.3495 -1.4218  1.2449
10043TIP3   OH251619   2.914   4.549   4.361  0.1765  0.5265 -0.2266
10043TIP3    H151620   2.863   4.565   4.281 -0.5525 -2.1603 -0.3828
10043TIP3    H251621   2.980   4.485   4.335  0.2079 -0.0557  1.2086
10044TIP3   OH251622   2.544   2.333   6.522 -0.2346  0.5048  0.0630
10044TIP3    H151623   2.560   2.239   6.524  0.6740  0.6173 -1.0230
10044TIP3    H251624   2.631   2.372   6.514 -0.6066  1.4428  0.3867
10045TIP3   OH251625   5.100   2.124   0.904 -0.3787  0.1897  0.4327
10045TIP3    H151626   5.110   2.051   0.965 -0.1684 -0.2127 -0.0796
10045TIP3    H251627   5.165   2.188   0.932 -0.4291  0.1034  0.7581
10046TIP3   OH251628   4.222   2.602  11.382 -0.6474  0.3500 -0.0020
10046TIP3    H151629   4.284   2.530  11.391 -0.5284  0.4545  0.0148
10046TIP3    H251630   4.273   2.674  11.346 -1.2251 -0.2090 -2.0926
10047TIP3   OH251631   0.887   4.882  12.979 -0.1198 -0.4918 -0.1720
10047TIP3    H151632   0.918   4.968  12.949 -0.3892 -0.3831 -0.1373
10047TIP3    H251633   0.968   4.835  13.002 -0.0072 -0.0035  0.4689
10048TIP3   OH251634   6.435   6.490  11.872  0.0621 -0.1148  0.3356
10048TIP3    H151635   6.411   6.480  11.964  0.3086  2.2776  0.7152
10048TIP3    H251636   6.526   6.520  11.874  0.4249 -1.0419 -0.7697
10049TIP3   OH251637   5.439   0.029  16.169 -0.0767 -0.0951  0.6685
10049TIP3    H151638   5.431  -0.020  16.087  0.1172  0.2661  0.4267
10049TIP3    H251639   5.455  -0.038  16.236 -1.3390 -0.4921  0.5912
10050TIP3   OH251640   4.871   5.509  11.998  0.0528  0.5440 -0.1756
10050TIP3    H151641   4.823   5.477  11.922  0.3929 -0.6021  0.0613
10050TIP3    H251642   4.851   5.445  12.067  0.9696  0.7101  0.2561
10051TIP3   OH251643   3.903   6.075   5.419  0.1752 -0.0316  0.4331
10051TIP3    H151644   3.835   6.038   5.477  0.1345 -2.8710 -1.2218
10051TIP3    H251645   3.943   6.145   5.471 -0.4085 -1.8275  3.5933
10052TIP3   OH251646   5.828   2.250  11.459  0.6054 -0.0412 -0.2358
10052TIP3    H151647   5.805   2.171  11.507  1.5057 -0.2767 -0.1774
10052TIP3    H251648   5.748   2.303  11.460  0.9101  0.5035  2.5818
10053TIP3   OH251649   0.092   4.194   2.254  0.3810  0.7771  0.5584
10053TIP3    H151650   0.054   4.271   2.298 -0.3514  0.6005  0.2468
10053TIP3    H251651   0.057   4.120   2.302  0.6439  0.6198  0.5074
10054TIP3   OH251652   4.203   0.159   4.683 -1.1779 -0.3066  0.2514
10054TIP3    H151653   4.164   0.190   4.601 -1.2350 -1.0238  0.0026
10054TIP3    H251654   4.297   0.168   4.671 -1.1997 -0.1148  0.2277
10055TIP3   OH251655   1.036   4.716  10.762  0.0943  0.3581 -0.3046
10055TIP3    H151656   1.051   4.754  10.675  0.2195  0.0248 -0.4266
10055TIP3    H251657   0.983   4.638  10.746  1.2247 -0.4509 -0.2147
10056TIP3   OH251658   6.314   2.486   0.618  0.2374 -0.4247  0.4111
10056TIP3    H151659   6.227   2.524   0.616  0.4970  0.1731  0.1563
10056TIP3    H251660   6.373   2.561   0.622  0.7919 -0.7599 -0.8917
10057TIP3   OH251661   0.709   5.376   3.031 -0.2923  0.4983 -0.8700
10057TIP3    H151662   0.743   5.450   3.081 -1.2835  0.0383  0.5368
10057TIP3    H251663   0.641   5.413   2.975  0.6718  0.9806 -1.7485
10058TIP3   OH251664   5.228   4.649  16.061 -0.0962  0.1427 -0.0436
10058TIP3    H151665   5.200   4.655  15.970 -1.2741 -0.2365  0.2792
10058TIP3    H251666   5.312   4.602  16.057  0.1499  0.6455 -0.9701
10059TIP3   OH251667   3.706   2.847   5.270  0.5875 -0.2681  1.1197
10059TIP3    H151668   3.670   2.817   5.353  0.2601 -1.5446  0.5341
10059TIP3    H251669   3.745   2.933   5.290  1.2937 -0.9333  2.7768
10060TIP3   OH251670   4.092   6.041   5.950 -0.0436  0.9212  0.3051
10060TIP3    H151671   4.143   6.004   5.878 -0.7054 -0.3453  0.4497
10060TIP3    H251672   4.041   6.111   5.910 -1.1352 -0.3932 -0.7079
10061TIP3   OH251673   0.940   2.064  13.129  0.2723 -0.1179  0.2392
10061TIP3    H151674   0.940   2.157  13.154  0.8801  0.2660 -1.1260
10061TIP3    H251675   1.031   2.036  13.141  0.0036 -0.6680  1.0656
10062TIP3   OH251676   2.683   5.520  12.527 -0.3428  0.0952  0.2069
10062TIP3    H151677   2.758   5.570  12.494  0.3068 -1.6426 -1.0511
10062TIP3    H251678   2.713   5.485  12.611  0.7237 -1.5682 -0.8351
10063TIP3   OH251679   2.407   3.066   0.258  0.2234  0.5954 -0.1082
10063TIP3    H151680   2.323   3.040   0.295  0.9680  0.9036  1.9809
10063TIP3    H251681   2.389   3.148   0.212 -0.5371  1.0111  0.8790
10064TIP3   OH251682   4.930   5.388  16.430  0.3205 -0.4047 -0.2179
10064TIP3    H151683   4.925   5.303  16.475 -0.4406 -0.1828  0.1255
10064TIP3    H251684   4.842   5.425  16.438  0.9802  1.0293  0.8411
10065TIP3   OH251685   6.697   2.845   3.061 -0.2477 -0.2499  0.1406
10065TIP3    H151686   6.604   2.845   3.083 -0.3395 -1.1250 -0.2204
10065TIP3    H251687   6.700   2.876   2.970 -0.3824 -2.1560 -0.5493
10066TIP3   OH251688   1.359   4.257   0.588 -0.3589  0.3050 -0.2549
10066TIP3    H151689   1.395   4.169   0.578 -1.0246 -0.0812  0.6550
10066TIP3    H251690   1.324   4.278   0.502 -0.2081 -0.3239 -0.4755
10067TIP3   OH251691   5.011   4.754  11.945  0.6292  0.0186 -0.0021
10067TIP3    H151692   5.004   4.739  12.039 -0.6980  0.6513  0.0189
10067TIP3    H251693   4.992   4.847  11.934 -0.5131 -0.3056 -1.0047
10068TIP3   OH251694   6.541   3.577  11.276 -0.3557 -0.0471 -0.5465
10068TIP3    H151695   6.586   3.659  11.260 -0.5278  0.5798  1.7814
10068TIP3    H251696   6.586   3.538  11.351 -1.1859 -1.3578 -0.6818
10069TIP3   OH251697   1.464   0.195  11.911  0.0261 -0.3293 -0.1693
10069TIP3    H151698   1.547   0.232  11.941 -0.3172  0.7389 -0.4693
10069TIP3    H251699   1.488   0.112  11.870  1.1731  0.6439 -1.5995
10070TIP3   OH251700   1.249   5.665   1.634 -0.0818 -0.3150  0.1175
10070TIP3    H151701   1.168   5.614   1.643 -0.0233 -0.6279 -1.0037
10070TIP3    H251702   1.315   5.601   1.610  0.0127  0.2428 -1.2341
10071TIP3   OH251703   0.551   1.481   0.541  0.1903  0.5184  0.2580
10071TIP3    H151704   0.634   1.522   0.565 -0.0377  0.4880  1.1375
10071TIP3    H251705   0.575   1.411   0.481  0.7829  0.6380  0.3515
10072TIP3   OH251706   6.568   4.321  14.591 -0.4850  0.1354 -0.5102
10072TIP3    H151707   6.517   4.396  14.561  0.6550  1.1792  0.0739
10072TIP3    H251708   6.602   4.347  14.676 -1.0842 -1.5501  0.2949
10073TIP3   OH251709   6.824   2.339  15.963 -0.4635  0.2642  0.4889
10073TIP3    H151710   6.794   2.311  15.876  0.8805  0.3751 -0.0491
10073TIP3    H251711   6.817   2.434  15.961  2.3888  0.5764 -0.7181
10074TIP3   OH251712   6.405   5.157  12.088 -0.6839 -0.0166 -0.3550
10074TIP3    H151713   6.378   5.210  12.014  2.0721  1.5795 -0.3744
10074TIP3    H251714   6.417   5.220  12.159 -0.9136 -1.1725  0.7446
10075TIP3   OH251715   1.371   6.460   3.416  0.4178 -0.6604 -0.2817
10075TIP3    H151716   1.418   6.398   3.472 -0.0650 -0.4448  0.3802
10075TIP3    H251717   1.376   6.543   3.464  1.8333  0.0510 -1.5697
10076TIP3   OH251718   2.056   4.559   1.679 -0.7127  0.2435  0.5788
10076TIP3    H151719   2.146   4.539   1.703 -0.9681 -1.2673  0.4008
10076TIP3    H251720   2.041   4.647   1.712  1.4306  1.3499 -1.1539
10077TIP3   OH251721   6.525   2.806  12.703  0.5255  0.1214  0.0976
10077TIP3    H151722   6.603   2.795  12.757  0.7652 -2.2374 -0.6094
10077TIP3    H251723   6.451   2.789  12.762  0.7299 -1.2527 -0.0317
10078TIP3   OH251724   2.405   4.825  15.413  0.1942  0.5604  0.2812
10078TIP3    H151725   2.350   4.847  15.487  2.0809 -2.8914  3.0098
10078TIP3    H251726   2.360   4.751  15.371  1.1481 -0.2160  0.5950
10079TIP3   OH251727   1.992   2.026  11.370 -0.1473  0.6714  0.7841
10079TIP3    H151728   2.002   2.031  11.465  0.0458  0.9025  0.7524
10079TIP3    H251729   1.993   2.117  11.341  2.1698  0.5649  0.3205
10080TIP3   OH251730   1.977   4.854  11.362 -0.8467 -0.4580 -0.2908
10080TIP3    H151731   1.953   4.778  11.416  0.8183 -2.3311 -2.0251
10080TIP3    H251732   1.894   4.883  11.325 -1.8417  0.0551  2.1445
10081TIP3   OH251733   1.522   0.308  12.227  0.1606  0.2800 -0.5106
10081TIP3    H151734   1.460   0.271  12.289 -0.9232 -0.8422 -2.1919
10081TIP3    H251735   1.608   0.293  12.266 -0.5492  1.2929  1.5655
10082TIP3   OH251736   3.928   1.859  11.012 -0.1472  0.2974  0.9687
10082TIP3    H151737   3.887   1.852  11.098  2.2585  1.3545  2.2922
10082TIP3    H251738   3.899   1.943  10.978 -1.9033 -0.5572  0.2325
10083TIP3   OH251739   0.777   3.989   4.492  0.1931 -0.2042 -0.0224
10083TIP3    H151740   0.752   4.027   4.408  0.0677 -2.0341 -0.8689
10083TIP3    H251741   0.716   4.028   4.555  1.7336  2.9612 -0.2782
10084TIP3   OH251742   5.022   1.188  14.142 -0.3396 -0.8086  0.1242
10084TIP3    H151743   5.067   1.109  14.171 -0.0136 -0.2950  1.0713
10084TIP3    H251744   5.085   1.258  14.156 -1.6483  0.0434  2.2430
10085TIP3   OH251745   2.470   0.347   2.153 -0.2219 -0.0854  0.7072
10085TIP3    H151746   2.542   0.291   2.183 -0.1337  0.5392  1.7174
10085TIP3    H251747   2.511   0.433   2.140 -0.9171  0.4633  2.0174
10086TIP3   OH251748   4.383   4.920   2.290  0.0541  0.5396 -0.3527
10086TIP3    H151749   4.400   4.828   2.310  0.8999  0.2437 -2.2172
10086TIP3    H251750   4.317   4.918   2.221 -1.3594  1.4344  0.9223
10087TIP3   OH251751   1.728   2.317   4.253  0.0852  1.1261  0.3364
10087TIP3    H151752   1.749   2.249   4.318  0.2933  1.3299  0.4831
10087TIP3    H251753   1.734   2.399   4.302  1.7517  1.4173 -0.2833
10088TIP3   OH251754   4.186   0.540  13.307  0.4489  0.2653  0.3693
10088TIP3    H151755   4.205   0.505  13.220 -0.7256 -0.9716  0.5628
10088TIP3    H251756   4.250   0.498  13.365  1.2715  1.1375  0.1074
10089TIP3   OH251757   1.808   5.221  16.092  0.0442  0.1270  0.1011
10089TIP3    H151758   1.738   5.156  16.100  1.0841 -1.1045 -0.3940
10089TIP3    H251759   1.815   5.259  16.179  0.4326 -1.5552  0.8527
10090TIP3   OH251760   6.761   5.215  13.283  0.6045 -0.0232  0.1486
10090TIP3    H151761   6.820   5.253  13.348  1.2799 -0.4791 -0.1856
10090TIP3    H251762   6.770   5.272  13.206 -0.6415  0.8642  0.6264
10091TIP3   OH251763   2.519   4.956   2.698  0.2172  0.4202  0.1195
10091TIP3    H151764   2.598   4.957   2.644  0.7271  0.3490  0.8543
10091TIP3    H251765   2.470   4.879   2.667  0.6019  0.2615 -0.1036
10092TIP3   OH251766   1.794   2.718  14.054 -0.0976  0.0117  0.2143
10092TIP3    H151767   1.787   2.768  13.973  0.5379  0.0959  0.2084
10092TIP3    H251768   1.791   2.785  14.123  0.5690  0.0480  0.2134
10093TIP3   OH251769   6.781   3.413   3.357  0.1080  0.3775 -0.5794
10093TIP3    H151770   6.715   3.481   3.369  0.2409  0.3102  0.6462
10093TIP3    H251771   6.863   3.461   3.347  0.1923  0.4141  0.2212
10094TIP3   OH251772   3.973   3.688   0.371 -0.2717  0.9001  0.5415
10094TIP3    H151773   4.021   3.689   0.454  1.0173  0.5506 -0.1708
10094TIP3    H251774   3.989   3.601   0.336 -0.7631  1.0684 -0.1036
10095TIP3   OH251775   0.715   6.403   3.791 -0.1150 -0.3528 -0.0319
10095TIP3    H151776   0.805   6.429   3.811 -0.2174  0.2667 -0.3346
10095TIP3    H251777   0.690   6.345   3.862  0.4440 -0.3428  0.1795
10096TIP3   OH251778   0.598   3.985  15.275 -0.3656 -0.3851 -0.0765
10096TIP3    H151779   0.524   3.927  15.291 -1.0831  0.5117 -0.1192
10096TIP3    H251780   0.563   4.073  15.283 -0.5021  0.2326 -4.8702
10097TIP3   OH251781   6.306   1.975  15.515 -0.0673  0.0473 -0.7016
10097TIP3    H151782   6.241   1.957  15.583 -0.3545 -1.1244 -1.2639
10097TIP3    H251783   6.383   2.004  15.564  0.0274 -1.6044  0.2361
10098TIP3   OH251784   4.914   4.123   1.391 -0.3142  0.0441 -0.1717
10098TIP3    H151785   5.004   4.117   1.422 -0.4220  0.8252  0.3263
10098TIP3    H251786   4.910   4.205   1.343 -0.9935  0.5196  0.6514
10099TIP3   OH251787   5.191   1.344  11.059 -0.3492  0.1192 -0.1093
10099TIP3    H151788   5.154   1.256  11.052 -0.3145  0.1360 -0.5011
10099TIP3    H251789   5.266   1.343  10.999 -0.1889  0.3335  0.0864
10100TIP3   OH251790   0.979   1.555  11.067 -0.4711  0.2893  0.2371
10100TIP3    H151791   0.925   1.516  11.135 -1.7191  0.4268 -0.6344
10100TIP3    H251792   0.924   1.624  11.029  0.5582  0.8622 -0.2576
10101TIP3   OH251793   6.149   6.147   4.563 -0.2378 -0.2245  0.1828
10101TIP3    H151794   6.096   6.175   4.489  0.9973  0.2159 -0.5602
10101TIP3    H251795   6.089   6.148   4.637 -1.1864  0.5756 -0.5688
10102TIP3   OH251796   6.452   1.778  12.920  0.5396  0.3781  0.0296
10102TIP3    H151797   6.477   1.870  12.910 -0.1887  0.6055  0.2660
10102TIP3    H251798   6.531   1.729  12.897  0.3437  0.9799 -2.1031
10103TIP3   OH251799   4.867   0.579  16.080  0.1325 -0.1698 -0.2758
10103TIP3    H151800   4.820   0.495  16.082  0.5345 -0.3887  0.5475
10103TIP3    H251801   4.952   0.559  16.121  0.2093  0.6512 -0.0241
10104TIP3   OH251802   3.643   6.305  12.363  0.3555  0.0585  0.0375
10104TIP3    H151803   3.590   6.229  12.341 -0.2462  0.2068  0.9165
10104TIP3    H251804   3.589   6.380  12.341  1.1946  0.2696 -1.4341
10105TIP3   OH251805   1.041   4.102  13.829  0.5081  0.1937 -0.0866
10105TIP3    H151806   1.113   4.073  13.884 -0.0468 -1.6278 -0.2420
10105TIP3    H251807   1.079   4.171  13.775  1.6803  0.4000  0.9517
10106TIP3   OH251808   2.825   4.750  10.293 -0.0629  0.2945  0.6847
10106TIP3    H151809   2.846   4.664  10.331  0.4706 -0.1524 -0.5881
10106TIP3    H251810   2.731   4.759  10.308  0.1209  0.1159  2.0652
10107TIP3   OH251811   2.367   4.918   0.340  0.0229 -0.0487 -0.4129
10107TIP3    H151812   2.321   4.997   0.312  1.3898  0.8049 -0.3162
10107TIP3    H251813   2.459   4.934   0.319  0.4749 -1.1875  0.5642
10108TIP3   OH251814   0.968   5.395  16.572  0.4011  0.7839 -0.0678
10108TIP3    H151815   1.033   5.337  16.531 -0.6045  0.9051 -1.9232
10108TIP3    H251816   0.966   5.472  16.516  0.1369  1.6914  1.1549
10109TIP3   OH251817   3.715   5.210   6.532 -0.5334  0.0154 -0.5584
10109TIP3    H151818   3.686   5.185   6.444 -0.3239 -0.0454 -0.6106
10109TIP3    H251819   3.807   5.236   6.520  0.5140 -2.9722  0.1455
10110TIP3   OH251820   2.839   6.754   3.114 -0.6015  0.0303  0.8199
10110TIP3    H151821   2.800   6.673   3.148 -1.9196  0.3529  0.1175
10110TIP3    H251822   2.829   6.817   3.185 -2.3745  0.4001  0.3049
10111TIP3   OH251823   3.315   3.001  11.236  0.4328 -0.2168 -0.2158
10111TIP3    H151824   3.406   2.985  11.262  0.4000 -0.3684 -0.1937
10111TIP3    H251825   3.299   2.937  11.166 -0.0224 -0.9816  0.5671
10112TIP3   OH251826   5.954   2.528  12.306  0.8084 -0.3858  0.1060
10112TIP3    H151827   5.970   2.433  12.302 -0.8431 -0.6727 -0.2064
10112TIP3    H251828   5.931   2.544  12.397 -2.1553 -0.8932 -0.4685
10113TIP3   OH251829   3.299   3.668   5.818  0.0683 -0.7973 -0.3554
10113TIP3    H151830   3.238   3.595   5.818  0.8507 -1.6059  2.6629
10113TIP3    H251831   3.336   3.669   5.907  2.0172  1.6682 -1.0534
10114TIP3   OH251832   2.938   2.457   3.978  0.1126  0.0975 -0.7262
10114TIP3    H151833   2.908   2.368   3.962 -0.9114  0.3781 -0.4648
10114TIP3    H251834   3.004   2.448   4.047 -0.1869 -0.4272 -0.5020
10115TIP3   OH251835   3.623   6.310  16.211 -0.0957 -0.1315  0.0380
10115TIP3    H151836   3.711   6.274  16.209  0.3819  0.9418  0.8013
10115TIP3    H251837   3.633   6.400  16.181 -1.1425 -0.3671 -1.1028
10116TIP3   OH251838   0.573   5.787  14.573  0.4052 -0.4176 -0.4690
10116TIP3    H151839   0.588   5.879  14.596  0.0921 -0.3966 -0.3343
10116TIP3    H251840   0.503   5.790  14.507  0.9226 -0.5141 -1.0299
10117TIP3   OH251841   2.357   4.854   5.578  0.3681  0.0532 -0.2590
10117TIP3    H151842   2.339   4.801   5.655  0.6679  1.1824  0.6095
10117TIP3    H251843   2.436   4.816   5.540  0.3109 -0.4042  0.0838
10118TIP3   OH251844   3.402   5.919  12.415 -0.4748  0.1612 -0.0817
10118TIP3    H151845   3.311   5.889  12.403 -0.3290  0.4341 -2.3350
10118TIP3    H251846   3.439   5.858  12.479 -1.8282 -0.8818 -0.2308
10119TIP3   OH251847   2.622   6.000  16.289  0.1024 -0.3108  0.4935
10119TIP3    H151848   2.710   5.985  16.324  0.1972  1.9762  1.3830
10119TIP3    H251849   2.608   5.928  16.227  1.5357 -2.2304  2.2527
10120TIP3   OH251850   6.003   0.350  14.040 -0.2445  0.1022  0.0891
10120TIP3    H151851   5.947   0.424  14.065 -1.7818 -0.7277 -0.7598
10120TIP3    H251852   6.072   0.349  14.107 -1.0446  1.3742  0.9875
10121TIP3   OH251853   3.644   1.940  13.346  0.3713  0.0086 -0.5565
10121TIP3    H151854   3.632   1.939  13.441 -0.0049 -1.3214 -0.6018
10121TIP3    H251855   3.634   2.032  13.322  1.7267  0.5576  0.8305
10122TIP3   OH251856   1.637   1.510  15.474  0.5392  0.0976 -0.5696
10122TIP3    H151857   1.669   1.473  15.557  0.3502 -1.4074 -1.1474
10122TIP3    H251858   1.716   1.543  15.431  0.8189 -0.3021 -0.3708
10123TIP3   OH251859   6.762   1.000   6.220  0.4188  0.1188 -0.2535
10123TIP3    H151860   6.805   1.083   6.199 -1.4673  0.6536 -2.3559
10123TIP3    H251861   6.703   0.984   6.147 -0.1158 -2.5348  0.6513
10124TIP3   OH251862   3.957   3.299   2.068 -0.1336 -0.3175 -0.0459
10124TIP3    H151863   3.907   3.361   2.014 -1.0854 -1.9845 -1.1548
10124TIP3    H251864   3.931   3.319   2.158 -0.0936  1.1495 -0.3323
10125TIP3   OH251865   6.491   2.606   0.050  0.0432  0.1481  0.2177
10125TIP3    H151866   6.539   2.524   0.059 -0.1358  0.0801  0.6176
10125TIP3    H251867   6.405   2.580   0.016 -1.0397 -0.2048  2.9524
10126TIP3   OH251868   1.746   0.125   2.705  0.6644  0.0214 -0.2820
10126TIP3    H151869   1.837   0.155   2.694  0.5643  0.3112 -0.3268
10126TIP3    H251870   1.694   0.185   2.652  0.2164  1.2122  1.4276
10127TIP3   OH251871   0.641   3.969  14.426  0.1655 -0.2211 -0.3813
10127TIP3    H151872   0.713   3.954  14.365  0.8812 -1.2533  0.6681
10127TIP3    H251873   0.683   3.982  14.511 -0.8558 -0.2067  0.1410
10128TIP3   OH251874   4.530   0.575   4.225 -0.6278 -0.3785  0.5480
10128TIP3    H151875   4.541   0.572   4.320 -2.7689 -0.3822  0.8390
10128TIP3    H251876   4.490   0.660   4.208 -1.1995 -0.7871 -0.2315
10129TIP3   OH251877   1.450   2.177   5.392 -0.3805  0.3681  0.0212
10129TIP3    H151878   1.435   2.264   5.427 -0.6907 -0.3283  1.7479
10129TIP3    H251879   1.545   2.170   5.384 -0.3931  1.1265 -0.8925
10130TIP3   OH251880   4.019   5.072   6.614  0.2928 -0.0933 -0.0545
10130TIP3    H151881   4.007   5.007   6.544  1.7904  0.3035 -0.7135
10130TIP3    H251882   4.054   5.023   6.688  0.9845 -0.1189 -0.3962
10131TIP3   OH251883   4.069   2.315   1.319  0.2620  0.1715 -0.3748
10131TIP3    H151884   4.064   2.274   1.406 -0.4899 -1.6876 -1.2279
10131TIP3    H251885   4.161   2.309   1.295 -0.0380 -3.0363 -1.2772
10132TIP3   OH251886   5.480   2.967   4.879  0.1547 -0.2594 -0.7322
10132TIP3    H151887   5.507   3.054   4.853  2.0892 -0.3685  0.7146
10132TIP3    H251888   5.491   2.913   4.800  0.5121  0.4703 -1.1828
10133TIP3   OH251889   0.580   1.721   4.393 -0.4524 -0.6993 -0.3500
10133TIP3    H151890   0.525   1.670   4.453  0.4153 -1.9864 -0.6343
10133TIP3    H251891   0.618   1.657   4.334  1.9558  0.0322  0.2777
10134TIP3   OH251892   0.468   4.317   5.958 -1.1448  0.2970  0.1485
10134TIP3    H151893   0.433   4.239   6.001 -0.2819  0.4528  1.1825
10134TIP3    H251894   0.530   4.353   6.021 -2.8126  2.8647  0.4580
10135TIP3   OH251895   0.302   5.612   5.344  0.6467  0.1206  0.1584
10135TIP3    H151896   0.334   5.523   5.327  1.3035  0.5972 -1.2463
10135TIP3    H251897   0.231   5.625   5.281  0.6269  0.6320  0.2797
10136TIP3   OH251898   5.997   5.231   2.950  0.5342 -1.5961 -0.4885
10136TIP3    H151899   6.009   5.161   2.886  0.5061 -1.8285 -0.2427
10136TIP3    H251900   6.041   5.307   2.911  3.6959 -2.6234  0.7788
10137TIP3   OH251901   2.948   3.182   0.938  0.1574 -0.0385  0.3124
10137TIP3    H151902   2.867   3.169   0.988  0.2446  0.5145  0.6003
10137TIP3    H251903   2.921   3.169   0.847  0.0318 -1.2097  0.4989
10138TIP3   OH251904   0.291   2.958  12.665 -0.4844  0.4092 -0.2095
10138TIP3    H151905   0.213   2.902  12.674  0.3439 -0.7311  0.0350
10138TIP3    H251906   0.363   2.903  12.695  0.5754  1.0785 -1.4691
10139TIP3   OH251907   4.763   3.435  13.188 -0.1836  0.2452  0.6603
10139TIP3    H151908   4.738   3.487  13.111  0.3658  0.4172  0.5928
10139TIP3    H251909   4.835   3.484  13.227  0.5906 -0.6614  0.3886
10140TIP3   OH251910   4.958   1.541  14.333 -0.4582  0.2801  0.7189
10140TIP3    H151911   4.877   1.494  14.313 -0.7667  1.0778  0.0451
10140TIP3    H251912   4.968   1.603  14.260  1.3047 -0.5209  0.2428
10141TIP3   OH251913   4.448   2.686  11.582 -0.2658  0.0330  0.2262
10141TIP3    H151914   4.443   2.735  11.500 -1.2406 -0.7511 -0.2162
10141TIP3    H251915   4.402   2.741  11.646  0.5676  0.6837  0.2769
10142TIP3   OH251916   2.734   6.165  12.110  0.1364  0.8316  0.4774
10142TIP3    H151917   2.676   6.110  12.162  1.3260 -0.5240  0.4562
10142TIP3    H251918   2.770   6.106  12.044 -0.3659  2.2219 -1.1026
10143TIP3   OH251919   4.264   3.324   5.808  0.1825  0.0112  0.1902
10143TIP3    H151920   4.328   3.278   5.861  0.1270 -0.8299 -0.4485
10143TIP3    H251921   4.291   3.416   5.811  1.1414 -0.2658  0.3144
10144TIP3   OH251922   1.296   4.602   0.196  0.4326 -0.0952  0.8407
10144TIP3    H151923   1.364   4.580   0.132 -0.5372  0.7075 -0.5261
10144TIP3    H251924   1.312   4.694   0.217  0.1108 -0.0602  0.9362
10145TIP3   OH251925   5.446   1.908   1.975 -0.2576  0.3406 -0.7736
10145TIP3    H151926   5.472   1.816   1.985 -0.7710  0.3958  1.7097
10145TIP3    H251927   5.376   1.906   1.910  0.0407 -0.9608 -1.0820
10146TIP3   OH251928   5.306   0.723   1.076  0.2662  0.3872 -0.7323
10146TIP3    H151929   5.270   0.772   1.150  1.7012 -0.9359  0.9523
10146TIP3    H251930   5.230   0.687   1.031 -0.6222  0.4500  0.6624
10147TIP3   OH251931   1.705   0.111   3.352  0.1952 -0.0053  0.0851
10147TIP3    H151932   1.679   0.019   3.358 -1.6094  0.4353 -0.5480
10147TIP3    H251933   1.706   0.131   3.259 -0.7939  0.9601  0.2516
10148TIP3   OH251934   3.498   1.692   0.007  0.2119  0.3103 -0.2059
10148TIP3    H151935   3.519   1.680   0.100 -0.2113 -0.3722 -0.1999
10148TIP3    H251936   3.580   1.723  -0.031 -0.0817  2.4262  0.7282
10149TIP3   OH251937   2.609   0.595   3.509  0.1464  0.1022 -0.3556
10149TIP3    H151938   2.550   0.651   3.559 -1.1957 -1.3465 -0.2483
10149TIP3    H251939   2.554   0.552   3.444  1.0451 -1.3420 -0.2167
10150TIP3   OH251940   5.232   2.585  11.398  0.1347  0.2737 -0.1164
10150TIP3    H151941   5.258   2.494  11.412  0.8793  0.7261  1.6960
10150TIP3    H251942   5.249   2.601  11.305 -0.8501 -1.6755 -0.6861
10151TIP3   OH251943   5.962   4.584   0.711  0.2336  0.0197 -0.0278
10151TIP3    H151944   5.872   4.575   0.680  0.7149  0.0718 -1.4820
10151TIP3    H251945   5.966   4.525   0.787 -0.2722 -2.2207 -1.6285
10152TIP3   OH251946   5.859   1.961  14.953  0.2265 -0.1511  0.0099
10152TIP3    H151947   5.922   1.984  15.021  0.3833 -1.1300  0.2065
10152TIP3    H251948   5.774   1.964  14.997  0.2122  0.3466 -0.0462
10153TIP3   OH251949   4.415   6.497   3.692 -0.2444  0.4288 -0.0897
10153TIP3    H151950   4.503   6.461   3.704 -0.6700 -0.8037 -0.5817
10153TIP3    H251951   4.429   6.592   3.691  1.0814  0.2578 -0.1851
10154TIP3   OH251952   5.813   6.311   0.334  0.3164 -0.1598  0.3921
10154TIP3    H151953   5.753   6.292   0.262  1.3012 -3.5154  0.2705
10154TIP3    H251954   5.899   6.312   0.294  0.7052  0.0005  1.2120
10155TIP3   OH251955   2.895   1.781  12.191  0.0293 -0.3598  0.1609
10155TIP3    H151956   2.941   1.773  12.274 -0.2615  1.5574  0.5592
10155TIP3    H251957   2.939   1.719  12.132  3.1759  1.3752  0.4983
10156TIP3   OH251958   5.957   6.524  12.631 -0.8079 -0.2039  0.2480
10156TIP3    H151959   5.989   6.486  12.713 -0.5015  0.5568  0.4881
10156TIP3    H251960   6.036   6.551  12.585 -0.9918 -0.4184 -0.1970
10157TIP3   OH251961   6.170   3.728  17.041  0.2162 -1.0744  0.4249
10157TIP3    H151962   6.195   3.763  17.126 -0.0434 -1.9103  0.8583
10157TIP3    H251963   6.085   3.768  17.022  0.6608 -0.2322  0.1513
10158TIP3   OH251964   4.850   4.346   5.204 -0.2012 -0.4724  0.5093
10158TIP3    H151965   4.866   4.358   5.110 -2.5380  1.4570  0.2359
10158TIP3    H251966   4.811   4.259   5.211 -1.3809 -0.0718 -0.5966
10159TIP3   OH251967   2.168   4.443  12.542  0.5349 -0.0928  0.0152
10159TIP3    H151968   2.233   4.489  12.595  1.7426 -0.5431 -1.0223
10159TIP3    H251969   2.099   4.508  12.527  0.3423  0.1578  1.7713
10160TIP3   OH251970   1.563   6.255   2.181  0.0540  0.1105 -0.4578
10160TIP3    H151971   1.586   6.344   2.156  1.1108 -0.0440 -0.0935
10160TIP3    H251972   1.628   6.231   2.247 -1.4309 -0.2034  0.9555
10161TIP3   OH251973   6.110   6.119   2.867 -0.4044  0.6490  0.0085
10161TIP3    H151974   6.130   6.047   2.927  0.3221  2.4552  2.0469
10161TIP3    H251975   6.020   6.103   2.840  0.3843 -2.1773 -1.3614
10162TIP3   OH251976   0.547   6.284   5.966 -0.2615 -0.0655  0.0013
10162TIP3    H151977   0.527   6.215   6.030 -1.1698  0.3667  0.1910
10162TIP3    H251978   0.489   6.265   5.892  2.9695 -2.5210 -2.2112
10163TIP3   OH251979   3.372   5.799  13.133  0.0488 -0.2772  0.1950
10163TIP3    H151980   3.350   5.706  13.129  1.2021 -0.5473 -0.3821
10163TIP3    H251981   3.453   5.802  13.184  0.6704  0.2714 -0.7975
10164TIP3   OH251982   4.153   0.022   5.280  0.4636 -0.2758 -0.2826
10164TIP3    H151983   4.080  -0.010   5.228  1.4849  0.1251 -2.0528
10164TIP3    H251984   4.221   0.043   5.216  1.7976  0.2501  1.2244
10165TIP3   OH251985   1.310   1.977  11.131 -0.6588 -0.2403 -0.4012
10165TIP3    H151986   1.240   1.996  11.067 -0.2765  1.2440 -0.4269
10165TIP3    H251987   1.304   2.048  11.195  2.3351  1.4087 -1.7260
10166TIP3   OH251988   3.353   1.021   4.067 -0.1788  0.3767  0.2231
10166TIP3    H151989   3.312   1.105   4.087  0.1125  0.2305  1.4990
10166TIP3    H251990   3.280   0.959   4.063 -0.4288  0.7157 -1.0272
10167TIP3   OH251991   5.074   2.351   1.475  0.4517 -0.2114  0.2241
10167TIP3    H151992   5.000   2.293   1.458  0.5592 -0.1256 -0.5832
10167TIP3    H251993   5.118   2.359   1.391  2.9742 -2.4328  1.2100
10168TIP3   OH251994   3.399   4.976   5.797  0.2372  0.4037 -0.4118
10168TIP3    H151995   3.379   4.913   5.865  0.7839  0.0166 -0.6071
10168TIP3    H251996   3.493   4.967   5.781  0.1893  0.7585 -0.9436
10169TIP3   OH251997   5.851   0.648  12.487 -0.4015 -0.2406 -0.5308
10169TIP3    H151998   5.831   0.578  12.424 -1.7148  0.8031 -1.3444
10169TIP3    H251999   5.936   0.624  12.524 -0.1545 -1.5157 -1.8275
10170TIP3   OH252000   1.390   5.410  15.439  0.4184  0.3994  0.8702
10170TIP3    H152001   1.474   5.366  15.447  1.3548  2.1367  1.1118
10170TIP3    H252002   1.331   5.360  15.495  1.5563 -0.2368  1.5310
10171TIP3   OH252003   5.124   5.415  14.077  0.3527 -0.0697  0.1475
10171TIP3    H152004   5.188   5.427  14.148 -1.9409  1.6291  2.1309
10171TIP3    H252005   5.106   5.504  14.047 -1.5826 -0.3972  0.2104
10172TIP3   OH252006   0.849   4.070   5.708 -0.1676 -0.1132 -0.1667
10172TIP3    H152007   0.904   4.107   5.777  0.0437 -2.3753  0.9628
10172TIP3    H252008   0.759   4.092   5.734 -0.0635 -0.5980  0.6255
10173TIP3   OH252009   0.141   2.633  16.457 -0.0544  0.1180 -0.2148
10173TIP3    H152010   0.225   2.625  16.411 -0.1701 -0.2621 -0.3582
10173TIP3    H252011   0.146   2.568  16.527  0.8185  1.8181  1.4040
10174TIP3   OH252012   4.462   4.048  15.292  0.2437 -0.5760  0.0841
10174TIP3    H152013   4.479   4.041  15.198  1.6631  1.1710  0.1548
10174TIP3    H252014   4.526   3.989  15.332 -0.5017 -1.4820 -0.0286
10175TIP3   OH252015   6.164   0.281  12.787 -0.1440  0.3838 -0.1348
10175TIP3    H152016   6.109   0.358  12.799 -2.1763 -1.2164  1.4469
10175TIP3    H252017   6.217   0.276  12.866 -0.2362 -0.0152 -0.0963
10176TIP3   OH252018   2.025   0.994   5.835 -0.5083  0.4430 -0.0135
10176TIP3    H152019   1.950   0.974   5.892  0.5248 -0.3973  1.1111
10176TIP3    H252020   2.070   1.067   5.879 -0.1971  0.3837 -0.2275
10177TIP3   OH252021   1.119   3.661  12.175 -0.4506  0.3480  0.8554
10177TIP3    H152022   1.215   3.660  12.176 -0.4189  1.5611  1.7853
10177TIP3    H252023   1.096   3.641  12.085  0.7263  1.3045  0.2981
10178TIP3   OH252024   1.165   5.995   0.561  0.6144  0.5238  0.2141
10178TIP3    H152025   1.210   6.079   0.566  1.9489 -0.1187 -0.4013
10178TIP3    H252026   1.132   5.989   0.472  1.9452 -0.2738 -0.2505
10179TIP3   OH252027   2.425   2.551  17.253 -0.5908 -0.0542  0.7824
10179TIP3    H152028   2.380   2.495  17.190  0.4063 -0.2315  0.2065
10179TIP3    H252029   2.392   2.521  17.339 -1.4700 -0.2450  0.3907
10180TIP3   OH252030   0.271   5.744  12.015 -0.2221 -0.3050  0.0813
10180TIP3    H152031   0.184   5.760  12.052 -0.5251  1.8897 -1.4078
10180TIP3    H252032   0.264   5.770  11.924  1.8525 -0.6471 -0.2232
10181TIP3   OH252033   2.748   4.573  16.957  0.2548 -0.2761 -0.5835
10181TIP3    H152034   2.687   4.590  16.885 -2.3762 -0.0851  1.5624
10181TIP3    H252035   2.830   4.614  16.929 -1.2227  1.4835 -2.6284
10182TIP3   OH252036   6.097   3.847   1.713  0.0929  0.0969  0.7551
10182TIP3    H152037   6.028   3.902   1.678 -0.7259 -1.3889 -0.0393
10182TIP3    H252038   6.166   3.850   1.646  0.7272  1.3613  1.4254
10183TIP3   OH252039   0.815   6.621  13.038  0.3333 -0.4603  0.1974
10183TIP3    H152040   0.843   6.544  13.088  0.6029  0.8358  2.1892
10183TIP3    H252041   0.895   6.670  13.022 -0.0270  0.2730  0.5513
10184TIP3   OH252042   0.214   5.350  10.285 -0.0913 -0.5404  0.7021
10184TIP3    H152043   0.285   5.292  10.260 -2.2542 -2.5233 -1.3452
10184TIP3    H252044   0.248   5.438  10.269  0.7551 -1.4513 -4.1392
10185TIP3   OH252045   4.186   4.194  16.509  0.3724  0.3724  0.0058
10185TIP3    H152046   4.106   4.211  16.460  0.7762  0.7146 -0.5539
10185TIP3    H252047   4.199   4.274  16.561 -0.3903 -0.2328  1.1717
10186TIP3   OH252048   6.048   0.774   2.692 -0.6306 -0.6599  0.2217
10186TIP3    H152049   6.027   0.867   2.690  0.4582 -0.4011 -0.2548
10186TIP3    H252050   5.969   0.731   2.724 -1.4280  0.3483 -0.3554
10187TIP3   OH252051   5.655   0.364  13.511  0.2603 -0.9049  0.1264
10187TIP3    H152052   5.637   0.427  13.581 -1.5878 -1.4171  0.1655
10187TIP3    H252053   5.714   0.411  13.452 -1.3105  1.0363 -0.0239
10188TIP3   OH252054   2.788   4.344  14.319 -0.7332 -1.2727  0.0848
10188TIP3    H152055   2.880   4.331  14.343 -0.7573  0.0083  1.0018
10188TIP3    H252056   2.783   4.438  14.298 -2.3554 -0.6825  2.6857
10189TIP3   OH252057   2.351   3.335   2.693  0.5300  0.1853 -0.5279
10189TIP3    H152058   2.351   3.270   2.621  0.3778  0.5427 -0.8536
10189TIP3    H252059   2.358   3.282   2.772  0.6238 -0.2228 -0.8030
10190TIP3   OH252060   0.054   3.048   5.802 -0.2999 -0.0303 -0.0239
10190TIP3    H152061   0.054   3.093   5.718 -0.2491  0.0894  0.0399
10190TIP3    H252062   0.022   3.114   5.864 -1.2418 -0.4026 -0.1000
10191TIP3   OH252063   0.129   6.750  10.443  0.6440 -0.4293  0.1542
10191TIP3    H152064   0.172   6.789  10.367 -1.8614 -0.1916 -1.2720
10191TIP3    H252065   0.156   6.805  10.517 -1.2456  3.0836 -1.4738
10192TIP3   OH252066   1.161   3.067   4.451  0.6007 -0.7059 -0.1814
10192TIP3    H152067   1.111   3.124   4.393  1.4508 -1.9895 -2.3052
10192TIP3    H252068   1.095   3.024   4.506 -0.3543 -0.3205 -1.0049
10193TIP3   OH252069   5.300   4.048  16.906  0.4211 -0.1785  0.3000
10193TIP3    H152070   5.352   4.122  16.935 -0.3601  0.2494  0.6491
10193TIP3    H252071   5.212   4.083  16.895  0.6550 -0.2888 -2.6747
10194TIP3   OH252072   0.340   1.212  12.850 -0.4910  0.4738 -0.0427
10194TIP3    H152073   0.284   1.275  12.804  1.4592  1.2965 -1.4312
10194TIP3    H252074   0.352   1.250  12.936 -0.9788  0.9620 -0.1799
10195TIP3   OH252075   1.451   2.939  11.784  0.1254 -0.0657 -0.5105
10195TIP3    H152076   1.516   2.991  11.736 -0.0755  1.0824  0.4139
10195TIP3    H252077   1.395   3.004  11.826  0.9610 -0.9606  2.1661
10196TIP3   OH252078   5.138   5.705  13.251 -0.2766  0.0416 -0.0050
10196TIP3    H152079   5.189   5.707  13.332 -1.3975 -0.2714  0.7287
10196TIP3    H252080   5.156   5.620  13.213 -1.5643 -0.7891  1.1525
10197TIP3   OH252081   6.210   1.300  16.546 -0.6760 -0.2272  0.5364
10197TIP3    H152082   6.261   1.276  16.623 -0.6485 -3.7250 -0.4069
10197TIP3    H252083   6.126   1.329  16.581  0.0861  0.4027  1.9140
10198TIP3   OH252084   2.958   5.480  15.683  0.6810 -0.2099  0.2888
10198TIP3    H152085   2.951   5.491  15.778  0.0565  0.2282  0.2035
10198TIP3    H252086   2.954   5.386  15.669 -1.8767 -0.2181  0.5429
10199TIP3   OH252087   2.801   4.819   1.328  0.2052 -0.0547 -0.5187
10199TIP3    H152088   2.841   4.749   1.379 -0.6088  0.3993  0.7878
10199TIP3    H252089   2.707   4.799   1.331  0.1148  0.1807 -1.5555
10200TIP3   OH252090   1.745   6.522   5.652 -0.0857 -0.5262  0.1334
10200TIP3    H152091   1.775   6.607   5.686 -2.1263  0.8253 -1.2001
10200TIP3    H252092   1.820   6.488   5.604  1.1475 -0.0591  1.6233
10201TIP3   OH252093   5.085   2.330  12.748 -0.2080  0.0983  0.3216
10201TIP3    H152094   5.092   2.422  12.726  0.3171 -0.3115 -1.3501
10201TIP3    H252095   5.007   2.325  12.803 -1.5019  1.2683 -1.2897
10202TIP3   OH252096   1.513   0.502  15.914 -0.3976  0.1543  0.1357
10202TIP3    H152097   1.446   0.451  15.960 -0.4236 -0.7702 -0.9007
10202TIP3    H252098   1.471   0.529  15.833  0.1841  0.3657 -0.0964
10203TIP3   OH252099   2.106   6.536  12.227  0.8835  0.5327  0.2265
10203TIP3    H152100   2.134   6.469  12.164  0.3415  0.5968 -0.0945
10203TIP3    H252101   2.112   6.494  12.312 -1.5381 -0.6982 -0.1287
10204TIP3   OH252102   4.731   5.737   4.609  0.0249  0.2759  0.1056
10204TIP3    H152103   4.804   5.798   4.600  0.6319 -0.4017  0.3866
10204TIP3    H252104   4.667   5.767   4.545  1.2315 -0.1107 -1.3376
10205TIP3   OH252105   4.428   1.429  17.313  0.2583 -0.5409 -0.0931
10205TIP3    H152106   4.406   1.517  17.344 -0.1395 -0.5194 -0.4161
10205TIP3    H252107   4.441   1.440  17.218  0.2653 -0.8193 -0.1266
10206TIP3   OH252108   0.814   0.172  16.322 -0.6505  0.0357 -0.0119
10206TIP3    H152109   0.859   0.212  16.247 -1.9498  2.8857  0.5734
10206TIP3    H252110   0.731   0.142  16.286 -0.3502 -0.6592 -0.1317
10207TIP3   OH252111   3.753   3.593   6.149  0.1707  0.0754  0.3043
10207TIP3    H152112   3.789   3.663   6.203  1.6129 -0.8149  0.5530
10207TIP3    H252113   3.829   3.556   6.104 -0.7539 -0.4130 -0.9187
10208TIP3   OH252114   3.840   0.564   4.243  0.0694  0.6255 -0.2757
10208TIP3    H152115   3.919   0.511   4.243 -0.4790 -0.2088  0.8173
10208TIP3    H252116   3.860   0.635   4.182  1.7459  0.5684  0.1485
10209TIP3   OH252117   3.489   2.990  13.185 -0.1190 -0.0897 -0.2056
10209TIP3    H152118   3.520   3.080  13.176  0.2447 -0.2674 -0.7989
10209TIP3    H252119   3.402   2.998  13.225 -0.1261  0.5256 -0.3385
10210TIP3   OH252120   6.469   4.112   0.564  0.2175  0.1982  0.2085
10210TIP3    H152121   6.467   4.142   0.473  0.2302  2.0419  0.7769
10210TIP3    H252122   6.516   4.029   0.561 -1.2650 -0.6242 -1.6860
10211TIP3   OH252123   1.235   4.162  13.356 -0.2800 -0.0643 -0.0062
10211TIP3    H152124   1.185   4.190  13.279 -1.8859  0.3263  1.1114
10211TIP3    H252125   1.312   4.119  13.321 -0.5293  0.8777 -1.8240
10212TIP3   OH252126   5.123   0.916  13.063  0.2188 -0.6262 -0.0960
10212TIP3    H152127   5.102   0.896  13.155  0.3807 -0.0432  0.0692
10212TIP3    H252128   5.214   0.946  13.065 -0.6482  2.3461  0.0317
10213TIP3   OH252129   1.646   4.047  17.062 -0.2072  0.2691  0.0256
10213TIP3    H152130   1.564   3.999  17.077  1.0551 -1.4889  1.8663
10213TIP3    H252131   1.664   4.034  16.969 -2.1974  1.0530 -0.5108
10214TIP3   OH252132   3.845   0.553   2.631 -0.1210 -0.0284  0.1020
10214TIP3    H152133   3.909   0.487   2.655 -0.6555  0.0694  1.8943
10214TIP3    H252134   3.891   0.636   2.640 -0.0892 -0.0312 -0.0265
10215TIP3   OH252135   5.552   4.003  12.505  0.5745 -0.4853  0.5034
10215TIP3    H152136   5.552   4.041  12.417  0.1356 -0.1622  0.6405
10215TIP3    H252137   5.513   3.917  12.493  0.8157 -0.5696  0.3248
10216TIP3   OH252138   6.671   6.118  14.562  0.2227  0.6644  0.3579
10216TIP3    H152139   6.606   6.085  14.499 -0.2449  0.8283  0.7503
10216TIP3    H252140   6.741   6.153  14.507  0.3281 -0.1950 -0.0635
10217TIP3   OH252141   5.538   5.604  12.375  0.2245  0.1785  0.0304
10217TIP3    H152142   5.537   5.509  12.362  1.3262 -0.1563  1.9789
10217TIP3    H252143   5.602   5.617  12.445 -0.0477  2.3575 -0.0784
10218TIP3   OH252144   2.633   0.622  11.830  0.0181 -0.3679 -0.6862
10218TIP3    H152145   2.618   0.700  11.884 -2.7171 -1.1542 -0.1253
10218TIP3    H252146   2.656   0.554  11.893  1.6657 -0.2338 -1.0998
10219TIP3   OH252147   5.015   3.255   3.258 -0.0651  0.2925 -0.0817
10219TIP3    H152148   5.062   3.171   3.251  0.6872  0.6819  0.1613
10219TIP3    H252149   5.007   3.285   3.167  0.6393  0.4725 -0.0904
10220TIP3   OH252150   0.026   1.698   0.171  0.7391 -0.2889 -0.2598
10220TIP3    H152151  -0.030   1.660   0.104  0.6991 -1.3357  0.3566
10220TIP3    H252152  -0.028   1.766   0.211  0.4110 -0.3433 -0.6095
10221TIP3   OH252153   3.822   0.622  16.424  0.2741  0.4186  0.7696
10221TIP3    H152154   3.728   0.615  16.439  0.3591  0.6098  1.4242
10221TIP3    H252155   3.842   0.550  16.364  0.1308 -1.2389  2.6257
10222TIP3   OH252156   0.667   6.005  16.501  0.8713 -0.3027 -0.7492
10222TIP3    H152157   0.737   6.025  16.564  0.7881  1.1264 -1.0936
10222TIP3    H252158   0.602   5.956  16.552  2.3192 -2.1426 -0.5404
10223TIP3   OH252159   6.615   3.353  14.023  0.3169 -0.2346 -0.1431
10223TIP3    H152160   6.677   3.366  14.095  0.1686 -0.2168 -0.0173
10223TIP3    H252161   6.670   3.343  13.946  0.4918 -0.5506  0.0156
10224TIP3   OH252162   4.096   0.278   2.327  0.2596  0.1399 -0.0054
10224TIP3    H152163   4.042   0.326   2.264 -0.6418 -0.8856 -0.0438
10224TIP3    H252164   4.049   0.287   2.410  0.0685 -0.6847 -0.0196
10225TIP3   OH252165   4.553   4.923   3.416 -0.3420 -0.5255  0.3863
10225TIP3    H152166   4.511   4.913   3.502  1.2409 -0.8960  1.1451
10225TIP3    H252167   4.508   4.860   3.360 -2.3500  0.6719  0.5248
10226TIP3   OH252168   1.148   2.731  13.590 -0.1888 -0.7318  0.4623
10226TIP3    H152169   1.138   2.640  13.563 -0.5382 -0.0856 -1.8094
10226TIP3    H252170   1.059   2.764  13.597 -0.0706 -0.5806  1.4635
10227TIP3   OH252171   5.681   0.726   1.758  0.8576 -0.0177 -0.1570
10227TIP3    H152172   5.593   0.761   1.773  1.5347  2.4661 -1.4662
10227TIP3    H252173   5.708   0.762   1.674  3.1905 -0.6349  0.2494
10228TIP3   OH252174   4.149   4.223  12.837 -0.1540 -0.2153 -0.0772
10228TIP3    H152175   4.160   4.269  12.754 -1.0925 -2.2532 -1.4142
10228TIP3    H252176   4.189   4.137  12.823 -1.4078 -1.0598  1.1345
10229TIP3   OH252177   5.377   3.081   5.809  0.1823  0.0258 -0.3879
10229TIP3    H152178   5.460   3.082   5.856 -0.3323 -1.3003  0.6452
10229TIP3    H252179   5.353   3.173   5.799 -0.4914  0.4895  3.5682
10230TIP3   OH252180   5.364   0.529  11.691 -0.5517 -0.4800 -0.1377
10230TIP3    H152181   5.329   0.611  11.656 -1.1253 -0.8670 -0.4877
10230TIP3    H252182   5.287   0.480  11.719 -0.4262 -1.8878 -2.0990
10231TIP3   OH252183   3.566   3.442  15.376 -0.3017  0.4270  0.8315
10231TIP3    H152184   3.506   3.391  15.430 -2.1413  2.2579  0.6533
10231TIP3    H252185   3.558   3.532  15.410  0.5043  1.1472 -0.7798
10232TIP3   OH252186   6.198   2.527  13.152 -0.0807 -0.4905  0.3209
10232TIP3    H152187   6.193   2.461  13.221 -2.1611 -0.0643  0.6288
10232TIP3    H252188   6.171   2.609  13.194 -0.3565 -0.0107 -0.7468
10233TIP3   OH252189   0.880   6.499   5.182 -0.3879 -0.0833  0.0183
10233TIP3    H152190   0.815   6.557   5.221  0.6229  1.3120 -0.2955
10233TIP3    H252191   0.960   6.517   5.231  0.0816 -0.7782 -0.4796
10234TIP3   OH252192   5.601   5.818  14.373 -0.2071  0.2893  0.3477
10234TIP3    H152193   5.578   5.874  14.447 -1.8832  0.0141  0.0664
10234TIP3    H252194   5.560   5.859  14.297 -1.1979 -1.1088  0.0853
10235TIP3   OH252195   0.339   6.534   1.170 -0.6253 -0.2863 -0.1913
10235TIP3    H152196   0.362   6.460   1.113 -1.1457  1.0215 -2.2325
10235TIP3    H252197   0.420   6.585   1.177 -1.1773  1.0314 -2.2230
10236TIP3   OH252198   3.609   6.345  17.130 -0.1807 -0.4270 -0.2895
10236TIP3    H152199   3.521   6.377  17.148  0.1663 -0.3526  1.4871
10236TIP3    H252200   3.641   6.399  17.058 -0.9214  0.7900  0.2736
10237TIP3   OH252201   1.575   3.395  12.267 -0.2502  0.9254 -0.0792
10237TIP3    H152202   1.534   3.331  12.324  1.4149  1.4056  1.7699
10237TIP3    H252203   1.591   3.348  12.185 -1.7867 -0.0756  0.1591
10238TIP3   OH252204   6.783   5.177   3.693 -0.6356  0.0671  0.3395
10238TIP3    H152205   6.764   5.083   3.688 -2.1118  0.4144 -1.6323
10238TIP3    H252206   6.869   5.181   3.736 -0.0388 -2.2557 -0.4600
10239TIP3   OH252207   5.038   3.942  17.047 -0.0321 -0.3876 -0.4622
10239TIP3    H152208   4.991   3.888  17.110 -0.3936 -0.0067 -0.3994
10239TIP3    H252209   5.023   3.899  16.963  0.4101 -0.8677 -0.2998
10240TIP3   OH252210   1.456   5.989   2.527 -0.0034 -0.4187 -0.5569
10240TIP3    H152211   1.515   6.059   2.502 -0.3542 -0.3913 -1.3375
10240TIP3    H252212   1.444   5.937   2.447  0.1475 -1.2937 -0.0299
10241TIP3   OH252213   2.928   6.709   0.583  0.9683 -0.7397 -0.1688
10241TIP3    H152214   3.006   6.680   0.536  0.1605 -3.0309 -0.2597
10241TIP3    H252215   2.859   6.712   0.516  0.7191  0.0625  0.1186
10242TIP3   OH252216   4.730   2.056  12.203 -0.0203 -0.1255 -0.5240
10242TIP3    H152217   4.811   2.105  12.188  1.4211 -1.9276  0.8823
10242TIP3    H252218   4.755   1.964  12.189 -0.6439 -1.1742  3.7992
10243TIP3   OH252219   5.661   1.718   4.435 -0.1117 -0.2851 -0.2864
10243TIP3    H152220   5.641   1.705   4.342 -0.0582 -1.1579 -0.1777
10243TIP3    H252221   5.659   1.631   4.473 -0.6099  0.1153  0.6435
10244TIP3   OH252222   5.866   6.039  13.846  0.3062  0.1277  0.4742
10244TIP3    H152223   5.885   6.127  13.879 -1.2471  0.2865  1.0005
10244TIP3    H252224   5.870   6.048  13.751 -0.1242  0.8486  0.5141
10245TIP3   OH252225   6.196   0.969  11.323  0.0268 -0.3060  0.4001
10245TIP3    H152226   6.231   1.024  11.393 -1.7676 -0.6416  1.6100
10245TIP3    H252227   6.171   1.032  11.254  2.2322 -0.0126 -0.2198
10246TIP3   OH252228   5.054   0.412   5.109  0.3414 -0.8386  0.1133
10246TIP3    H152229   5.028   0.377   5.024 -0.0356 -0.7262  0.1839
10246TIP3    H252230   4.973   0.438   5.151  0.5884 -0.2215  0.2180
10247TIP3   OH252231   0.048   4.132   6.206 -0.3209 -0.0225 -0.3774
10247TIP3    H152232   0.032   4.067   6.274  0.4552  2.0979  2.0011
10247TIP3    H252233   0.143   4.145   6.207 -0.3206  0.1801 -1.7711
10248TIP3   OH252234   3.620   4.998   1.499 -0.4497  0.0989 -0.5490
10248TIP3    H152235   3.572   5.054   1.439  0.5134  0.1492 -1.3089
10248TIP3    H252236   3.560   4.926   1.519 -1.6312  1.2951  0.3145
10249TIP3   OH252237   5.850   5.102  16.326 -0.1950  0.0148 -0.1472
10249TIP3    H152238   5.856   5.198  16.331 -0.8794  0.2578 -2.8148
10249TIP3    H252239   5.940   5.072  16.337  0.5117  1.1988 -2.1578
10250TIP3   OH252240   2.566   3.211   3.087 -0.0293  0.1793 -0.3545
10250TIP3    H152241   2.635   3.145   3.096 -0.0839  0.2727  0.9930
10250TIP3    H252242   2.506   3.192   3.159 -0.0307  1.6907  0.0801
10251TIP3   OH252243   5.321   1.977   2.226 -0.4344 -0.3921 -0.1339
10251TIP3    H152244   5.252   1.911   2.237 -0.2250 -0.8523 -1.4132
10251TIP3    H252245   5.368   1.950   2.147  1.9222 -0.7172  1.2744
10252TIP3   OH252246   3.868   5.971   2.280 -0.0468  0.8929  0.2313
10252TIP3    H152247   3.817   5.891   2.266 -1.3019  1.6502  0.2905
10252TIP3    H252248   3.950   5.956   2.232 -1.9112  1.2040 -3.4491
10253TIP3   OH252249   2.019   0.962  12.839  0.4697 -0.0814  0.3223
10253TIP3    H152250   1.963   0.920  12.774  0.3906  0.2941  0.1476
10253TIP3    H252251   2.087   1.006  12.789 -0.4380  1.4723  0.3838
10254TIP3   OH252252   3.003   4.627   1.471  0.2944  0.1024 -0.5120
10254TIP3    H152253   3.047   4.574   1.404 -1.8078 -0.8152 -1.2611
10254TIP3    H252254   2.924   4.577   1.493  0.9997  0.2902  2.8597
10255TIP3   OH252255   3.234   1.098   5.158 -0.3450 -0.5339 -0.4721
10255TIP3    H152256   3.225   1.003   5.159  2.5851 -0.9282 -0.4167
10255TIP3    H252257   3.325   1.113   5.132 -0.4667  2.2405  0.3076
10256TIP3   OH252258   5.784   4.861   2.893 -0.2628  0.1106  0.3967
10256TIP3    H152259   5.852   4.893   2.834 -2.2066  1.7427 -1.0927
10256TIP3    H252260   5.775   4.929   2.959 -1.4258  0.6357 -0.2711
10257TIP3   OH252261   6.710   6.317   0.355 -0.1413 -0.2668 -0.0462
10257TIP3    H152262   6.732   6.313   0.448 -0.6753 -1.6951  0.0361
10257TIP3    H252263   6.779   6.266   0.312  0.2133  0.5512 -0.4685
10258TIP3   OH252264   6.458   0.470  10.823 -0.0144  0.0579 -0.0295
10258TIP3    H152265   6.523   0.538  10.835  0.6435 -0.6751  0.6694
10258TIP3    H252266   6.386   0.513  10.776 -0.8129  1.9692  2.7016
10259TIP3   OH252267   1.328   1.961  14.436 -0.7965 -0.1182  0.0961
10259TIP3    H152268   1.338   2.032  14.499 -1.6532  0.4105 -0.3385
10259TIP3    H252269   1.246   1.919  14.460 -1.0874  0.0329 -0.6035
10260TIP3   OH252270   4.550   6.754  12.641  0.6091  0.1015  0.0706
10260TIP3    H152271   4.626   6.700  12.659  0.8136 -0.1644 -1.5185
10260TIP3    H252272   4.575   6.842  12.671  0.7143 -0.4115  1.5386
10261TIP3   OH252273   1.955   2.238   0.849 -0.0467  0.0588 -0.2201
10261TIP3    H152274   1.987   2.188   0.775 -1.1054  0.4675 -0.9756
10261TIP3    H252275   1.982   2.187   0.926 -0.0690 -1.0422 -0.9225
10262TIP3   OH252276   0.396   2.102   3.270 -0.1617  0.3878 -0.1416
10262TIP3    H152277   0.469   2.144   3.224  0.4264  0.5885  0.9328
10262TIP3    H252278   0.335   2.077   3.201  2.2602 -2.5009 -1.4601
10263TIP3   OH252279   6.252   0.704  12.876  0.4690  0.0611  0.4046
10263TIP3    H152280   6.300   0.749  12.807  0.3143 -0.3425  0.0317
10263TIP3    H252281   6.161   0.702  12.845  0.2653  0.4936  0.9385
10264TIP3   OH252282   2.599   2.374   4.684  0.4520  0.5274 -0.9248
10264TIP3    H152283   2.573   2.461   4.713 -0.3216  0.4662 -1.4247
10264TIP3    H252284   2.563   2.365   4.596  1.2109  0.0054 -1.1944
10265TIP3   OH252285   0.367   4.706  11.273 -0.2400 -0.3598 -0.3136
10265TIP3    H152286   0.417   4.784  11.249  0.3252 -0.8692 -0.8173
10265TIP3    H252287   0.316   4.733  11.350 -0.6128  0.7237 -0.9189
10266TIP3   OH252288   3.804   0.027  13.448 -0.0263 -0.8494 -0.1438
10266TIP3    H152289   3.857   0.056  13.522  0.4860 -0.0790 -0.7929
10266TIP3    H252290   3.740  -0.033  13.486 -0.8319  0.7854  1.1844
10267TIP3   OH252291   6.354   1.240   4.650 -0.9443  0.3237 -0.3970
10267TIP3    H152292   6.397   1.167   4.605 -2.3206 -0.4622 -0.4985
10267TIP3    H252293   6.260   1.223   4.638 -1.3251  0.9351  1.4614
10268TIP3   OH252294   0.450   6.671  11.737 -0.4696 -0.1395 -0.1964
10268TIP3    H152295   0.527   6.627  11.699  1.1401  0.2257  2.4231
10268TIP3    H252296   0.376   6.628  11.695  1.1149 -0.5446 -2.8209
10269TIP3   OH252297   6.050   6.576   3.554 -0.6429 -0.2571  0.4007
10269TIP3    H152298   6.086   6.662   3.578 -0.1611 -0.9098  2.2034
10269TIP3    H252299   5.955   6.588   3.558 -0.5867  0.0268  1.4358
10270TIP3   OH252300   6.628   4.511  13.113 -0.2478 -0.8030 -0.1511
10270TIP3    H152301   6.673   4.579  13.163  1.0857 -1.1131 -0.8793
10270TIP3    H252302   6.564   4.475  13.174  0.6437 -0.4848  1.0155
10271TIP3   OH252303   5.725   0.274  16.276  0.8683 -0.3441  0.2838
10271TIP3    H152304   5.718   0.346  16.339 -1.2620 -1.0777  0.9876
10271TIP3    H252305   5.729   0.195  16.330 -4.0967 -1.2637 -0.2264
10272TIP3   OH252306   1.104   2.608   0.880  0.1067  0.0330 -0.4080
10272TIP3    H152307   1.060   2.523   0.891  0.8189 -0.3335 -0.3854
10272TIP3    H252308   1.114   2.642   0.969  3.3243 -1.6517  0.0301
10273TIP3   OH252309   0.868   1.984  16.075 -0.8966  0.4753 -0.2635
10273TIP3    H152310   0.914   1.921  16.020 -1.0861  0.4459 -0.3858
10273TIP3    H252311   0.873   2.066  16.025  0.5649  0.9011  0.5128
10274TIP3   OH252312   1.495   1.096   2.911  0.1522 -0.2032  0.1361
10274TIP3    H152313   1.581   1.056   2.920  0.1589  0.1041  1.6330
10274TIP3    H252314   1.468   1.073   2.822  1.9186 -0.0134 -0.5017
10275TIP3   OH252315   0.504   0.292   5.661 -0.2632  0.0662 -0.2350
10275TIP3    H152316   0.544   0.304   5.748  3.9517 -0.6695 -1.8321
10275TIP3    H252317   0.502   0.380   5.624  0.3112  0.0562 -0.2956
10276TIP3   OH252318   4.387   4.689  16.149  0.2547 -0.2592 -0.3602
10276TIP3    H152319   4.467   4.668  16.099  1.1154 -0.8282  1.1955
10276TIP3    H252320   4.397   4.782  16.171  0.8638 -0.5097  0.4577
10277TIP3   OH252321   4.859   3.919  14.496  0.4966 -0.1186 -0.3714
10277TIP3    H152322   4.827   3.959  14.415 -1.4196  0.2269  0.4942
10277TIP3    H252323   4.856   3.825  14.479  0.6770 -0.0276 -0.9035
10278TIP3   OH252324   5.172   0.685   1.846  0.3968  0.5271  0.4090
10278TIP3    H152325   5.237   0.724   1.788  0.2386 -1.2522 -1.0362
10278TIP3    H252326   5.209   0.600   1.870 -1.6824 -0.8882 -1.0863
10279TIP3   OH252327   1.403   3.472  16.154  0.0955  0.1310 -0.3093
10279TIP3    H152328   1.370   3.452  16.242  0.9937  0.6003  0.1581
10279TIP3    H252329   1.480   3.415  16.145  0.5135  0.7065 -0.4380
10280TIP3   OH252330   4.715   5.371  17.212  0.2579  0.3273 -0.4991
10280TIP3    H152331   4.794   5.323  17.186 -0.2197 -1.1856  0.6426
10280TIP3    H252332   4.739   5.413  17.295 -1.0700 -3.1626  1.8854
10281TIP3   OH252333   0.035   0.416  16.080 -0.4448  0.1606 -0.6656
10281TIP3    H152334  -0.061   0.424  16.080 -0.6039 -1.4037 -0.4137
10281TIP3    H252335   0.066   0.503  16.103 -1.8112  0.6835 -0.6732
10282TIP3   OH252336   0.653   1.901  12.115 -0.2139 -0.1288 -0.1522
10282TIP3    H152337   0.718   1.831  12.124  0.3248  0.1316 -1.6471
10282TIP3    H252338   0.681   1.968  12.177  1.3874  0.2672 -1.2347
10283TIP3   OH252339   2.314   5.258   0.533  0.1994 -0.1724 -0.2282
10283TIP3    H152340   2.243   5.195   0.527 -0.2845  0.4831 -1.8752
10283TIP3    H252341   2.379   5.216   0.589 -1.1924 -1.0446  0.8080
10284TIP3   OH252342   3.804   3.251  13.479 -0.1229 -0.2378 -0.1388
10284TIP3    H152343   3.850   3.270  13.561 -1.7251  3.7523  0.0483
10284TIP3    H252344   3.874   3.228  13.418  1.0486 -4.2652  2.3586
10285TIP3   OH252345   0.649   5.697  13.803  0.2988  0.0246  0.2368
10285TIP3    H152346   0.687   5.778  13.835  1.1663 -0.1686 -0.2731
10285TIP3    H252347   0.641   5.709  13.709  0.1459 -0.3585  0.1970
10286TIP3   OH252348   0.280   3.024   1.072  0.1872 -0.2173 -0.1490
10286TIP3    H152349   0.249   3.012   1.162 -1.0099  1.0897 -0.3394
10286TIP3    H252350   0.201   3.022   1.019  0.9651 -1.9162 -1.3228
10287TIP3   OH252351   2.526   1.748   1.899  0.2331 -0.0019  0.8653
10287TIP3    H152352   2.581   1.721   1.972 -0.4935 -1.8269  0.7844
10287TIP3    H252353   2.531   1.676   1.836 -0.9310  0.5335  0.1156
10288TIP3   OH252354   1.424   2.195   2.187  0.1479 -0.6691  0.4061
10288TIP3    H152355   1.503   2.165   2.142  1.3959  1.0056  1.3516
10288TIP3    H252356   1.409   2.283   2.153  1.1055  0.6329  3.0603
10289TIP3   OH252357   0.426   3.111   0.832 -0.8060  0.6270 -0.4106
10289TIP3    H152358   0.394   3.159   0.756  0.3223 -0.0883 -1.3801
10289TIP3    H252359   0.521   3.110   0.822 -0.7395 -1.0994 -0.0226
10290TIP3   OH252360   4.695   2.022  11.357 -0.6838  0.1766  0.1898
10290TIP3    H152361   4.653   1.938  11.373  1.1597 -1.2898 -2.0975
10290TIP3    H252362   4.789   2.005  11.370  0.0215  1.0636 -2.9628
10291TIP3   OH252363   3.369   2.654   2.841  0.0513 -0.9336  0.2247
10291TIP3    H152364   3.350   2.593   2.912  0.6052  0.4077  1.5488
10291TIP3    H252365   3.463   2.666   2.843  0.1324 -1.1664 -1.0059
10292TIP3   OH252366   1.833   0.997   5.042  0.5329  0.5600 -0.5766
10292TIP3    H152367   1.840   1.027   5.133  1.6427 -0.9577 -0.1151
10292TIP3    H252368   1.889   0.920   5.038 -1.3347 -0.8213 -1.9485
10293TIP3   OH252369   2.548   2.873  15.943 -0.6310  0.0755  0.1882
10293TIP3    H152370   2.520   2.783  15.927  1.5470 -0.3561 -1.6286
10293TIP3    H252371   2.573   2.874  16.036  0.1358 -1.4289  0.0187
10294TIP3   OH252372   6.608   0.342  15.231 -0.0978 -0.8804 -0.5332
10294TIP3    H152373   6.644   0.318  15.316 -2.5559 -1.0429  0.5449
10294TIP3    H252374   6.581   0.433  15.241  2.2994  0.1224 -2.1881
10295TIP3   OH252375   6.456   5.304   1.450 -0.1000  0.9307 -0.5837
10295TIP3    H152376   6.516   5.308   1.525 -1.7437 -0.3829  0.8548
10295TIP3    H252377   6.503   5.253   1.384 -0.0545 -1.1427  0.9770
10296TIP3   OH252378   4.463   5.614  12.577 -0.0765  0.0360  0.5931
10296TIP3    H152379   4.516   5.690  12.600  1.7019 -0.8504 -0.3981
10296TIP3    H252380   4.381   5.651  12.545  1.8504  1.8192 -2.9296
10297TIP3   OH252381   5.619   6.266   0.081 -0.0363  0.1585  0.2346
10297TIP3    H152382   5.568   6.184   0.080  0.1414  0.0422  0.5675
10297TIP3    H252383   5.691   6.250   0.019  1.0587 -0.6304  1.6470
10298TIP3   OH252384   0.325   0.071   4.962  0.5856 -0.3337 -0.0975
10298TIP3    H152385   0.421   0.072   4.967  0.6022  2.1933  0.2216
10298TIP3    H252386   0.305   0.100   4.874  0.1508  1.7985  0.6576
10299TIP3   OH252387   4.375   3.022  12.869  0.0161 -0.0110 -0.0689
10299TIP3    H152388   4.384   2.930  12.895  2.0122 -0.2764 -1.4622
10299TIP3    H252389   4.429   3.070  12.932  0.1034  0.0512 -0.1922
10300TIP3   OH252390   0.182   0.647  16.668  0.2619  0.9406 -0.5012
10300TIP3    H152391   0.249   0.714  16.675  1.2023 -0.0910  1.0509
10300TIP3    H252392   0.222   0.579  16.614 -0.2984  1.1773 -1.2239
10301TIP3   OH252393   5.696   1.160   0.017  0.0865  0.4519 -0.3403
10301TIP3    H152394   5.787   1.145   0.043  0.1982  1.7573  0.0968
10301TIP3    H252395   5.703   1.207  -0.066 -0.2295 -0.7598 -1.0788
10302TIP3   OH252396   4.225   4.913   6.751  0.2920  0.2006  0.1055
10302TIP3    H152397   4.250   4.942   6.663 -0.2500 -1.6810 -0.7168
10302TIP3    H252398   4.245   4.820   6.752 -2.2079 -0.4150  1.0129
10303TIP3   OH252399   5.390   4.115  10.294 -0.1048  0.0733 -0.3229
10303TIP3    H152400   5.484   4.118  10.280  0.4280 -1.6716  2.1653
10303TIP3    H252401   5.352   4.151  10.214  2.6684  4.0967 -0.0853
10304TIP3   OH252402   6.293   5.497  10.987 -0.0985 -0.0489  0.5984
10304TIP3    H152403   6.338   5.426  10.941  1.2971  0.8294  0.5332
10304TIP3    H252404   6.309   5.481  11.080  0.0875  0.0780  0.5903
10305TIP3   OH252405   1.795   5.926  16.684  0.3312  0.7026 -0.8386
10305TIP3    H152406   1.882   5.965  16.697  0.0414  0.8633  0.8468
10305TIP3    H252407   1.738   6.000  16.664  0.3697  0.7244 -0.8691
10306TIP3   OH252408   1.860   6.660  11.754  0.5715  0.6797 -0.0121
10306TIP3    H152409   1.892   6.750  11.746  0.5468  0.7602  0.7225
10306TIP3    H252410   1.860   6.643  11.848  1.5554 -0.4463 -0.1937
10307TIP3   OH252411   5.390   1.743   4.503 -0.1670 -0.2748  0.1380
10307TIP3    H152412   5.365   1.766   4.592  2.9296  1.2320  0.7852
10307TIP3    H252413   5.486   1.740   4.506  0.2552  2.2762 -3.6129
10308TIP3   OH252414   2.316   0.081  12.175  0.8160 -0.0051  0.6010
10308TIP3    H152415   2.238   0.069  12.229 -0.7176 -0.6416 -1.6307
10308TIP3    H252416   2.384   0.031  12.221 -0.4329 -0.6269  1.8664
10309TIP3   OH252417   0.385   6.819   3.120  0.2868 -0.3421 -0.1600
10309TIP3    H152418   0.442   6.763   3.173  0.3267  0.9227  1.2111
10309TIP3    H252419   0.304   6.824   3.171 -0.5778 -0.9918 -1.4133
10310TIP3   OH252420   1.715   4.218  13.384  0.4349  0.1089 -0.4669
10310TIP3    H152421   1.783   4.196  13.321 -0.4355 -1.6348 -0.8678
10310TIP3    H252422   1.733   4.162  13.460 -1.1618 -1.2786 -1.0375
10311TIP3   OH252423   1.399   2.857   1.041 -0.4500  0.8543  0.4535
10311TIP3    H152424   1.416   2.783   1.099 -0.9624 -0.0675 -0.5417
10311TIP3    H252425   1.372   2.817   0.958 -0.3611  2.1480 -0.2263
10312TIP3   OH252426   0.023   0.065   1.821  0.8125 -0.7358 -0.1930
10312TIP3    H152427   0.060  -0.006   1.768 -0.5207 -1.1628 -0.5888
10312TIP3    H252428   0.043   0.144   1.770  1.4047 -0.9192 -0.2608
10313TIP3   OH252429   1.817   6.791  15.417 -0.6749  0.2078  0.0339
10313TIP3    H152430   1.833   6.758  15.505 -0.0678 -0.3510 -0.2639
10313TIP3    H252431   1.805   6.885  15.427 -0.7962  0.1200  0.7304
10314TIP3   OH252432   3.702   2.456   4.593 -0.2536  0.3653  0.1516
10314TIP3    H152433   3.763   2.391   4.557  0.2179  0.5786  0.5509
10314TIP3    H252434   3.649   2.407   4.656  0.6726  0.5180  1.0934
10315TIP3   OH252435   3.923   4.597   4.309 -0.3903  0.1163 -0.4969
10315TIP3    H152436   3.963   4.586   4.223  0.7796 -0.3114  0.0724
10315TIP3    H252437   3.837   4.557   4.301 -0.1994 -0.1410 -1.4004
10316TIP3   OH252438   0.058   1.994  14.524 -0.1480 -0.6800  0.1041
10316TIP3    H152439   0.149   1.978  14.500 -0.4510 -2.4003 -0.0186
10316TIP3    H252440   0.039   2.081  14.489  1.9348  0.4756  1.6237
10317TIP3   OH252441   6.387   3.525  15.826 -0.2690  0.6531  0.9265
10317TIP3    H152442   6.295   3.501  15.820 -0.8332  2.5027  1.2860
10317TIP3    H252443   6.391   3.612  15.785  1.6230 -0.0529 -0.4901
10318TIP3   OH252444   6.230   5.712  13.873  0.9990 -0.3099 -0.3858
10318TIP3    H152445   6.275   5.738  13.792  1.3665 -0.7840 -0.3398
10318TIP3    H252446   6.269   5.627  13.896  1.6005  0.2669  0.8195
10319TIP3   OH252447   2.204   6.688   3.330  0.3222  0.3870 -0.0980
10319TIP3    H152448   2.231   6.778   3.349  0.6957 -0.0480  1.5349
10319TIP3    H252449   2.177   6.652   3.414 -1.5607 -0.4836 -1.0198
10320TIP3   OH252450   0.062   3.381   0.121 -0.4546  0.3702  0.0968
10320TIP3    H152451   0.045   3.388   0.027 -1.1977 -1.4867  0.0418
10320TIP3    H252452   0.127   3.312   0.128 -1.5462 -0.6118  1.0053
10321TIP3   OH252453   3.550   5.675  14.717  0.0096 -0.1533  0.1475
10321TIP3    H152454   3.548   5.771  14.715  2.5231 -0.0378 -0.7478
10321TIP3    H252455   3.500   5.652  14.795  1.0392  2.0281  1.5568
10322TIP3   OH252456   3.916   5.670   4.660  0.6089 -0.0513 -0.0934
10322TIP3    H152457   4.002   5.633   4.642 -0.8907 -3.5737 -0.6863
10322TIP3    H252458   3.868   5.660   4.578 -1.3627 -1.3428  1.1413
10323TIP3   OH252459   5.740   0.124   1.592 -0.5367 -0.2697  0.4619
10323TIP3    H152460   5.818   0.124   1.648 -1.3481  1.5871  1.7090
10323TIP3    H252461   5.767   0.172   1.514  0.4574 -2.4317 -0.5775
10324TIP3   OH252462   4.259   6.104   0.361 -0.1161 -0.2801 -0.9640
10324TIP3    H152463   4.232   6.012   0.361 -0.2901 -0.2370 -1.7720
10324TIP3    H252464   4.320   6.111   0.434 -0.9423 -0.7860 -0.2117
10325TIP3   OH252465   0.317   3.383  17.245 -0.0518 -0.0404 -0.2156
10325TIP3    H152466   0.308   3.288  17.258  1.1992 -0.1979 -0.3324
10325TIP3    H252467   0.364   3.413  17.322  2.4092 -0.0748 -1.5906
10326TIP3   OH252468   6.123   6.372  11.446 -0.0058  0.2310 -0.1979
10326TIP3    H152469   6.098   6.436  11.378  1.1104 -0.4557 -1.3008
10326TIP3    H252470   6.143   6.425  11.523  0.5035  1.1945 -0.9729
10327TIP3   OH252471   2.018   4.017  12.069 -0.1694  0.1769 -0.5174
10327TIP3    H152472   1.996   4.030  12.161 -0.1729  0.9850 -0.6239
10327TIP3    H252473   2.111   3.991  12.070  0.1020  1.1082 -0.3354
10328TIP3   OH252474   3.614   6.050   0.292 -0.5423  0.0181 -0.0445
10328TIP3    H152475   3.542   6.066   0.231 -0.1924 -1.0508 -0.7755
10328TIP3    H252476   3.667   6.130   0.288 -1.7343  0.8582  0.5952
10329TIP3   OH252477   2.108   6.761  13.520 -0.0806  0.1120 -0.0800
10329TIP3    H152478   2.146   6.836  13.475  0.3583  0.7606  1.3305
10329TIP3    H252479   2.046   6.724  13.456  1.4162  0.2250 -1.6770
10330TIP3   OH252480   5.103   4.119  13.330 -0.1297  0.3567  0.1706
10330TIP3    H152481   5.195   4.110  13.307 -0.1223 -0.2510  0.4061
10330TIP3    H252482   5.094   4.071  13.412 -0.6421  0.4534  0.1766
10331TIP3   OH252483   0.100   5.508  13.002 -0.3686 -0.2452 -0.4697
10331TIP3    H152484   0.014   5.517  13.042 -0.2465 -0.1895 -0.2172
10331TIP3    H252485   0.119   5.595  12.966  0.3174  0.2398  0.9731
10332TIP3   OH252486   2.090   1.129   0.689 -0.0126  0.1292 -0.0488
10332TIP3    H152487   2.011   1.172   0.657 -0.6808 -1.8967 -1.2821
10332TIP3    H252488   2.060   1.044   0.722  1.4063  0.0762  1.2487
10333TIP3   OH252489   6.506   1.970   4.923  0.2825  0.1038 -0.4106
10333TIP3    H152490   6.598   1.946   4.936  0.1043  0.0325  0.9389
10333TIP3    H252491   6.508   2.045   4.864  1.0304 -1.3646 -2.3633
10334TIP3   OH252492   4.871   2.139   3.148 -0.0919 -0.1499 -0.2796
10334TIP3    H152493   4.805   2.076   3.118  2.6514 -2.6176 -1.6168
10334TIP3    H252494   4.876   2.204   3.077 -0.2824 -0.6028 -0.7125
10335TIP3   OH252495   6.668   1.397  13.617  0.7316 -0.1509 -0.6668
10335TIP3    H152496   6.611   1.326  13.647 -1.9211  1.8965 -0.4820
10335TIP3    H252497   6.642   1.412  13.526  1.3389  0.5087 -0.7382
10336TIP3   OH252498   3.676   4.908   5.451 -0.4407  0.1734  0.2854
10336TIP3    H152499   3.731   4.960   5.509  1.7575  0.4810 -1.9291
10336TIP3    H252500   3.618   4.971   5.408  0.3158  0.4364 -0.3643
10337TIP3   OH252501   6.700   0.754  14.924  0.2962  0.0518  0.3919
10337TIP3    H152502   6.731   0.742  15.013  0.7142 -1.0032  0.1232
10337TIP3    H252503   6.660   0.670  14.901  0.2785  0.2740 -0.4334
10338TIP3   OH252504   0.851   5.558   3.295  0.6142  0.5631 -1.0920
10338TIP3    H152505   0.771   5.603   3.266  0.2046 -0.5330 -1.7460
10338TIP3    H252506   0.915   5.576   3.226  1.4808  2.7190  0.1501
10339TIP3   OH252507   5.627   1.864  15.990  0.2813  0.1244 -0.3904
10339TIP3    H152508   5.546   1.860  15.938  0.4426 -1.1683 -0.5732
10339TIP3    H252509   5.684   1.799  15.950  0.7968 -0.1527  0.7640
10340TIP3   OH252510   1.016   3.037   1.490  0.4333  0.8339 -0.1145
10340TIP3    H152511   0.992   3.079   1.572 -0.3400 -1.2087  0.7647
10340TIP3    H252512   1.040   3.109   1.432 -2.1868  2.5944  0.8354
10341TIP3   OH252513   1.710   2.027  12.974  0.4433  0.3182 -0.5288
10341TIP3    H152514   1.616   2.009  12.977  0.6068 -0.6209 -0.7743
10341TIP3    H252515   1.744   1.986  13.054  0.7454  0.0238 -0.8097
10342TIP3   OH252516   4.499   6.134  11.208 -0.0326 -0.1281  0.3695
10342TIP3    H152517   4.481   6.074  11.136  0.3108 -1.4769  1.3527
10342TIP3    H252518   4.424   6.124  11.267  0.2899 -0.0274  0.8049
10343TIP3   OH252519   4.679   1.310   5.327  0.0096  0.1585 -0.1298
10343TIP3    H152520   4.661   1.403   5.331 -1.4761 -0.0840 -0.5188
10343TIP3    H252521   4.675   1.289   5.233  1.5357 -0.0939 -0.1610
10344TIP3   OH252522   0.413   1.108  10.935  0.0189  0.2508  0.0882
10344TIP3    H152523   0.385   1.151  11.015  0.2133  3.8953 -1.6006
10344TIP3    H252524   0.370   1.022  10.936  0.7932 -0.2763  4.4201
10345TIP3   OH252525   5.454   5.859  16.749 -0.3058 -0.6659 -0.5608
10345TIP3    H152526   5.499   5.935  16.787  0.0472 -1.4696  0.6784
10345TIP3    H252527   5.365   5.863  16.783 -0.5362 -0.3456 -1.1836
10346TIP3   OH252528   6.264   6.763   1.464 -0.2387  0.2331  0.0942
10346TIP3    H152529   6.327   6.801   1.525 -0.6565 -0.1320  0.7612
10346TIP3    H252530   6.205   6.711   1.519 -0.1575 -0.7265 -0.7022
10347TIP3   OH252531   3.028   4.858  10.734  0.5008 -0.4330 -0.0131
10347TIP3    H152532   2.975   4.873  10.655 -0.8870  1.9360  1.2184
10347TIP3    H252533   3.115   4.839  10.701  0.0659  0.8821 -2.1559
10348TIP3   OH252534   0.467   4.685   4.398  0.1556  0.2178  0.1785
10348TIP3    H152535   0.414   4.691   4.477  2.9053  0.1930  2.1425
10348TIP3    H252536   0.458   4.594   4.370 -1.8312  0.5209 -0.3920
10349TIP3   OH252537   5.566   2.414   2.388  0.0745  0.2395  0.1532
10349TIP3    H152538   5.499   2.478   2.365  3.0469  3.0412 -1.4869
10349TIP3    H252539   5.574   2.360   2.310  0.5239  0.6694 -0.1003
10350TIP3   OH252540   1.296   4.385  15.775 -0.2927  0.6479 -0.0428
10350TIP3    H152541   1.377   4.354  15.735  0.3123  1.4212  0.5452
10350TIP3    H252542   1.298   4.351  15.864 -0.8863  0.2127 -0.1903
10351TIP3   OH252543   5.576   5.484  13.774  0.0206  0.1613 -0.0127
10351TIP3    H152544   5.516   5.504  13.846  0.3480 -0.9425  0.5927
10351TIP3    H252545   5.656   5.455  13.818  1.0457  1.6824 -0.7980
10352TIP3   OH252546   4.074   0.120   1.236  0.0046 -0.2137 -0.6806
10352TIP3    H152547   4.077   0.025   1.222 -0.7141 -0.4020  0.3176
10352TIP3    H252548   3.987   0.146   1.207 -0.5177 -0.1938  0.8226
10353TIP3   OH252549   4.021   1.187   0.972 -0.0337  0.5200  0.1944
10353TIP3    H152550   4.053   1.264   1.019 -0.0228  0.9718 -0.5394
10353TIP3    H252551   4.032   1.115   1.034  0.5444  1.0008  0.6640
10354TIP3   OH252552   3.841   5.094   2.806  0.2650  0.0355  0.3104
10354TIP3    H152553   3.859   5.012   2.851  0.7581 -0.6332 -1.0447
10354TIP3    H252554   3.766   5.132   2.852  0.8472 -0.5315  1.7535
10355TIP3   OH252555   3.793   3.592  15.736 -0.5100  0.1059 -0.2890
10355TIP3    H152556   3.791   3.686  15.752  2.7959  0.6828 -2.3674
10355TIP3    H252557   3.818   3.554  15.821 -3.1938  0.8366  0.9392
10356TIP3   OH252558   6.473   6.618   1.197  0.5759  0.1576  0.4464
10356TIP3    H152559   6.563   6.590   1.182  1.4862  2.1537  1.8113
10356TIP3    H252560   6.478   6.713   1.206 -1.2858  0.1080  2.9385
10357TIP3   OH252561   4.190   5.219   4.465 -0.0637  0.2841 -0.1041
10357TIP3    H152562   4.228   5.131   4.460 -1.4261 -0.3091 -0.6083
10357TIP3    H252563   4.098   5.204   4.487 -0.1298  1.6452  0.6446
10358TIP3   OH252564   4.852   1.733   3.158  0.1597  0.3822  0.0743
10358TIP3    H152565   4.807   1.750   3.075  0.4477  1.6254  0.1508
10358TIP3    H252566   4.784   1.743   3.225  0.5790  2.8362  0.2392
10359TIP3   OH252567   6.087   1.219   2.387  0.4459 -0.3829  0.1430
10359TIP3    H152568   6.161   1.278   2.371  0.0058  0.7760  2.0668
10359TIP3    H252569   6.013   1.278   2.400 -0.2393 -1.4157  0.9967
10360TIP3   OH252570   5.500   0.565   3.423  0.3049  0.2217  0.2335
10360TIP3    H152571   5.461   0.478   3.423  0.6407  0.0251  1.9554
10360TIP3    H252572   5.428   0.623   3.448 -0.0420  0.5233 -1.4048
10361TIP3   OH252573   4.144   0.075  11.930  0.0870  0.6102  0.0478
10361TIP3    H152574   4.060   0.095  11.888  1.0889  0.4895 -2.1556
10361TIP3    H252575   4.148  -0.020  11.931 -0.4065  0.5870  1.4993
10362TIP3   OH252576   2.920   1.920  15.905 -0.8877 -0.1901  0.2516
10362TIP3    H152577   2.941   1.845  15.849 -0.7380 -0.3099  0.4692
10362TIP3    H252578   2.850   1.966  15.858  0.1806  0.4907 -0.7236
10363TIP3   OH252579   4.073   3.653  16.230 -0.2171 -0.3364 -0.1812
10363TIP3    H152580   4.023   3.684  16.306  0.2278  1.6412 -0.6382
10363TIP3    H252581   4.126   3.581  16.265 -1.1732 -0.5111  0.9988
10364TIP3   OH252582   1.022   3.189   2.619 -0.2220  0.1465 -0.2527
10364TIP3    H152583   1.116   3.179   2.601 -0.4287 -0.5636 -0.9675
10364TIP3    H252584   1.010   3.152   2.706  0.4637  1.9147  0.6572
10365TIP3   OH252585   0.888   3.078   3.876 -0.2950 -0.1689 -0.0979
10365TIP3    H152586   0.859   3.099   3.787  1.6796  1.2303 -0.4850
10365TIP3    H252587   0.890   3.163   3.921  0.1221 -0.6630  0.8421
10366TIP3   OH252588   5.949   3.674   2.449  0.3294  0.2984  0.0463
10366TIP3    H152589   5.901   3.637   2.523  0.9700  1.8922  1.3253
10366TIP3    H252590   6.040   3.645   2.462  0.4413  0.5719 -0.1148
10367TIP3   OH252591   1.896   3.330   5.256  0.1556 -0.2209 -0.2746
10367TIP3    H152592   1.910   3.264   5.188 -0.2284  0.2406 -0.8181
10367TIP3    H252593   1.984   3.359   5.280  0.2731  0.3025 -1.2857
10368TIP3   OH252594   4.865   1.868  12.498  0.0826 -0.0301 -0.0666
10368TIP3    H152595   4.914   1.809  12.555  0.6018  0.5596  0.1071
10368TIP3    H252596   4.897   1.956  12.521 -1.5343  0.4427  0.5375
10369TIP3   OH252597   4.920   5.223   0.318 -0.1583 -0.0946 -0.0592
10369TIP3    H152598   4.923   5.183   0.405 -0.5718 -1.1914 -0.5268
10369TIP3    H252599   4.833   5.203   0.285  0.4760 -1.0045 -1.3011
10370TIP3   OH252600   1.931   0.420   1.574 -0.1859  0.1810 -0.2027
10370TIP3    H152601   1.875   0.343   1.580  1.1117 -0.7555  0.3256
10370TIP3    H252602   2.019   0.385   1.566  0.8524  1.5340  3.5376
10371TIP3   OH252603   3.805   0.439   3.447  0.6849  0.2326  0.0081
10371TIP3    H152604   3.781   0.480   3.530  0.8791 -1.5492  1.0048
10371TIP3    H252605   3.804   0.345   3.466 -0.4578 -0.3120 -2.3324
10372TIP3   OH252606   5.957   0.661  10.736  0.3875 -0.5534  0.5473
10372TIP3    H152607   5.913   0.733  10.692  0.8218 -0.7298 -0.2027
10372TIP3    H252608   5.892   0.625  10.796 -0.2639 -0.3858 -0.0535
10373TIP3   OH252609   0.053   4.134   1.830  0.0488 -0.7491 -0.0686
10373TIP3    H152610  -0.021   4.170   1.879  0.0746  1.0579 -1.2404
10373TIP3    H252611   0.130   4.156   1.882  0.1397  1.7707 -1.1024
10374TIP3   OH252612   0.447   0.389  14.326 -0.1153 -0.0603 -0.3831
10374TIP3    H152613   0.361   0.378  14.367 -0.1618  0.9102 -0.1914
10374TIP3    H252614   0.465   0.305  14.286 -2.3878  0.4233 -2.7422
10375TIP3   OH252615   3.222   6.101   2.334 -0.1074 -0.2192 -0.4298
10375TIP3    H152616   3.134   6.063   2.341 -0.6285  1.1944  3.0589
10375TIP3    H252617   3.269   6.064   2.409  1.3379  1.2632 -0.5720
10376TIP3   OH252618   5.395   2.960  12.841  0.1137 -0.2786  0.0952
10376TIP3    H152619   5.343   2.925  12.913  0.2153  1.1380  0.8872
10376TIP3    H252620   5.332   3.000  12.782  0.1193 -0.4618 -0.0336
10377TIP3   OH252621   1.217   0.685  16.895  0.5704  0.0867  0.1759
10377TIP3    H152622   1.124   0.674  16.873  1.1013 -1.3577 -1.5271
10377TIP3    H252623   1.242   0.603  16.936  1.3167  0.1231 -0.1938
10378TIP3   OH252624   5.463   2.545  11.926  0.1273  0.1541  0.2925
10378TIP3    H152625   5.531   2.612  11.916  0.1753  0.0552 -0.0396
10378TIP3    H252626   5.391   2.576  11.871 -1.1411  1.6108  2.5911
10379TIP3   OH252627   3.093   0.789  13.884 -0.7868  0.0281 -0.3758
10379TIP3    H152628   3.001   0.764  13.883 -1.2309  1.5658 -1.5910
10379TIP3    H252629   3.101   0.848  13.959 -1.5278  2.3000 -2.0089
10380TIP3   OH252630   2.569   0.747  17.233 -0.3791  0.9389  0.4657
10380TIP3    H152631   2.628   0.680  17.198  0.8578  2.5185 -0.6307
10380TIP3    H252632   2.516   0.774  17.158 -0.6092  1.4358  0.7967
10381TIP3   OH252633   4.056   2.007  13.286 -0.0190  0.0941 -0.4837
10381TIP3    H152634   3.990   2.059  13.240  1.3457 -0.4296 -3.2246
10381TIP3    H252635   4.137   2.022  13.237  0.9639 -2.6354  0.1375
10382TIP3   OH252636   4.419   2.662  10.609 -0.1998 -0.0945  0.0619
10382TIP3    H152637   4.337   2.625  10.575 -0.7250  1.7014 -0.7840
10382TIP3    H252638   4.396   2.693  10.697  0.1427 -1.3640  0.6242
10383TIP3   OH252639   6.006   6.309   0.155 -0.2514 -0.7485 -0.5144
10383TIP3    H152640   6.083   6.255   0.174 -0.1702 -1.0331 -1.6113
10383TIP3    H252641   6.041   6.395   0.134 -0.3705 -0.2945  1.0409
10384TIP3   OH252642   4.623   5.382  16.715 -0.2979 -0.1488  0.0431
10384TIP3    H152643   4.676   5.441  16.661 -0.5621  1.2817  1.2691
10384TIP3    H252644   4.632   5.417  16.804 -0.8421 -1.7157  0.7441
10385TIP3   OH252645   1.964   0.459  14.335 -0.6122  0.1338 -0.1372
10385TIP3    H152646   1.955   0.519  14.261  1.8084 -0.7974 -1.2976
10385TIP3    H252647   2.009   0.510  14.402 -2.4412  0.8519  0.6152
10386TIP3   OH252648   4.725   1.734  14.482 -0.0008 -0.9401  0.2754
10386TIP3    H152649   4.803   1.784  14.506 -0.3207 -0.6085  0.6319
10386TIP3    H252650   4.754   1.676  14.412  0.4267 -0.4103  0.0145
10387TIP3   OH252651   3.124   1.904  13.965 -0.6697 -0.2285  0.1978
10387TIP3    H152652   3.102   1.816  13.934  1.0115 -0.8338  0.6219
10387TIP3    H252653   3.155   1.949  13.887 -1.4363 -0.0204  0.0009
10388TIP3   OH252654   3.791   2.678  13.131  0.4510  0.5020 -0.7623
10388TIP3    H152655   3.707   2.694  13.172  0.6326 -0.6635  0.1222
10388TIP3    H252656   3.835   2.615  13.189  2.7822  2.5949 -0.0620
10389TIP3   OH252657   4.626   0.122   3.733 -0.6348 -0.2886  0.3187
10389TIP3    H152658   4.707   0.155   3.770  0.5458 -1.0973 -1.4365
10389TIP3    H252659   4.589   0.196   3.685 -0.3511 -0.2315  0.1869
10390TIP3   OH252660   4.020   2.563   5.980 -0.7180 -0.1583  0.6553
10390TIP3    H152661   4.010   2.604   5.894  0.3055 -1.3824 -0.0716
10390TIP3    H252662   3.962   2.613   6.037 -0.1442  1.7461 -0.3715
10391TIP3   OH252663   4.238   2.765   6.262 -0.4991 -0.4365  0.1332
10391TIP3    H152664   4.155   2.811   6.249 -1.6846 -2.0785  1.3807
10391TIP3    H252665   4.215   2.691   6.319  1.3871 -2.2310 -1.2691
10392TIP3   OH252666   1.911   5.813   1.548 -0.1828 -0.2310 -0.6990
10392TIP3    H152667   1.962   5.885   1.586  0.7884 -1.7120  0.9469
10392TIP3    H252668   1.848   5.789   1.616  0.1851 -1.5771 -0.8064
10393TIP3   OH252669   4.521   5.205  13.265 -0.4602  0.1075 -0.4257
10393TIP3    H152670   4.554   5.178  13.180  1.2399 -0.6647  0.4302
10393TIP3    H252671   4.580   5.274  13.294 -0.7447  0.0506  0.3264
10394TIP3   OH252672   5.051   4.589   4.245  0.4460  0.1312 -0.8214
10394TIP3    H152673   4.979   4.630   4.197  1.4038  1.7626 -0.9341
10394TIP3    H252674   5.038   4.618   4.336 -0.4534 -1.6484 -0.3451
10395TIP3   OH252675   0.152   6.106   3.322 -0.2721 -0.3993  0.0830
10395TIP3    H152676   0.097   6.178   3.291  0.3239  0.9128  1.8897
10395TIP3    H252677   0.108   6.073   3.401  0.7370 -0.3055  0.7163
10396TIP3   OH252678   4.636   4.677   1.948 -0.0490  0.0520  0.2064
10396TIP3    H152679   4.575   4.744   1.916  0.6234 -0.3044 -1.9973
10396TIP3    H252680   4.651   4.621   1.872  3.4630  0.4539  0.4768
10397TIP3   OH252681   3.767   1.190   4.621  0.0725 -0.1397  0.6849
10397TIP3    H152682   3.850   1.189   4.573  1.2886  1.0441  2.6164
10397TIP3    H252683   3.721   1.112   4.592  1.4072 -0.2686 -1.2175
10398TIP3   OH252684   2.374   1.264   2.326  0.0608  0.1049  0.0342
10398TIP3    H152685   2.357   1.302   2.412 -0.9175  2.1845 -0.9980
10398TIP3    H252686   2.381   1.340   2.267  2.8834 -1.1230 -1.4041
10399TIP3   OH252687   3.448   2.262   5.877  0.6815  1.0798  0.4291
10399TIP3    H152688   3.526   2.238   5.927  1.4477  0.7475 -0.8923
10399TIP3    H252689   3.475   2.340   5.827 -0.1988  1.6558  0.8330
10400TIP3   OH252690   4.755   4.706   3.141  0.0277  0.3778 -0.4137
10400TIP3    H152691   4.788   4.621   3.112 -1.5801 -1.0218  1.5013
10400TIP3    H252692   4.742   4.695   3.236 -0.4741  2.6780 -0.1537
10401TIP3   OH252693   1.758   3.906   5.307 -0.2046  0.1740 -0.7544
10401TIP3    H152694   1.836   3.850   5.296 -0.0036  0.4493 -0.7441
10401TIP3    H252695   1.719   3.875   5.388  0.5115  0.7502 -0.1674
10402TIP3   OH252696   1.405   1.798  10.302 -0.4540 -0.3993 -0.5457
10402TIP3    H152697   1.330   1.858  10.297 -1.4180 -1.6098 -1.0185
10402TIP3    H252698   1.475   1.845  10.258 -1.3227  0.2121 -1.3381
10403TIP3   OH252699   5.370   1.601  15.243  0.9379  0.2078 -0.4856
10403TIP3    H152700   5.432   1.529  15.242  1.7197  0.8362 -2.2863
10403TIP3    H252701   5.381   1.641  15.329 -0.4242 -2.4879  1.0698
10404TIP3   OH252702   1.097   3.689  13.019  0.2595  0.0455 -0.1577
10404TIP3    H152703   1.146   3.637  13.083  2.4768  0.4952 -1.3844
10404TIP3    H252704   1.124   3.779  13.035  1.3160  0.1100 -2.0574
10405TIP3   OH252705   6.582   5.308   2.664  0.6336  0.1798  1.2321
10405TIP3    H152706   6.513   5.256   2.623  2.0784 -0.8406 -0.0637
10405TIP3    H252707   6.560   5.399   2.645  1.0033 -0.2305 -1.5688
10406TIP3   OH252708   4.540   6.500   5.840 -0.4670  0.4110  0.6553
10406TIP3    H152709   4.459   6.449   5.832  0.2052 -0.6501  0.4504
10406TIP3    H252710   4.511   6.591   5.835 -1.3244  0.0981 -3.1264
10407TIP3   OH252711   3.525   1.144  14.778  0.0362 -0.3727  0.0803
10407TIP3    H152712   3.482   1.141  14.863  1.0732 -0.4264  0.6253
10407TIP3    H252713   3.618   1.135  14.798  0.6331  2.7956 -0.7581
10408TIP3   OH252714   0.246   0.310   0.278  0.8773  0.0574  0.0318
10408TIP3    H152715   0.277   0.221   0.261  0.1147 -0.3202  0.5346
10408TIP3    H252716   0.151   0.304   0.267  0.8365  0.8439 -0.0716
10409TIP3   OH252717   0.600   1.411  11.469  0.9717 -0.3328  0.2513
10409TIP3    H152718   0.572   1.329  11.428  3.5515 -0.4631 -1.4250
10409TIP3    H252719   0.522   1.467  11.464 -0.0212 -1.7275 -1.1064
10410TIP3   OH252720   4.617   5.181  13.031  0.0744 -0.1198 -0.3836
10410TIP3    H152721   4.599   5.267  12.995 -1.1578 -0.1194  0.1836
10410TIP3    H252722   4.711   5.168  13.018 -0.1855  0.1786 -2.8768
10411TIP3   OH252723   5.013   3.865   2.418  0.0982  0.2959  0.4608
10411TIP3    H152724   4.959   3.792   2.446 -0.3801  0.4300 -0.0989
10411TIP3    H252725   5.079   3.825   2.361 -0.7873  0.4192 -0.6844
10412TIP3   OH252726   4.116   0.478   3.557  0.4218 -0.3665  0.5961
10412TIP3    H152727   4.134   0.513   3.644  1.8552  0.1066  0.1361
10412TIP3    H252728   4.074   0.549   3.510  1.0314 -0.1108  0.4370
10413TIP3   OH252729   1.383   0.952   2.336  0.4945 -0.0194  0.5795
10413TIP3    H152730   1.416   1.022   2.281 -1.3152 -0.5203 -1.2816
10413TIP3    H252731   1.325   0.996   2.399 -1.1990  0.2002 -1.0277
10414TIP3   OH252732   4.407   4.597  12.861  0.0549  0.1037 -0.3139
10414TIP3    H152733   4.477   4.597  12.927 -2.3544 -1.6174  2.4651
10414TIP3    H252734   4.428   4.524  12.803  1.0732  0.2878 -0.1997
10415TIP3   OH252735   4.839   4.417   1.985 -0.2166  0.3184  0.5218
10415TIP3    H152736   4.897   4.476   1.937 -1.4361 -1.0141 -2.8947
10415TIP3    H252737   4.897   4.365   2.040  1.6527  0.2526 -1.4129
10416TIP3   OH252738   4.588   5.665   5.851  0.4293  0.0051  0.3837
10416TIP3    H152739   4.607   5.756   5.829  0.9259 -0.6429 -2.1891
10416TIP3    H252740   4.672   5.628   5.876  1.3215 -0.8606 -3.2944
10417TIP3   OH252741   6.125   4.003  16.859 -0.1457  0.3654  0.1195
10417TIP3    H152742   6.182   3.937  16.820 -0.9657  0.1143 -0.6835
10417TIP3    H252743   6.146   4.083  16.813 -0.6207  0.2154 -0.3679
10418TIP3   OH252744   3.219   2.752   4.603  0.2181 -0.3781  0.1268
10418TIP3    H152745   3.250   2.738   4.692  1.1777  0.1068 -0.1170
10418TIP3    H252746   3.255   2.837   4.577  0.0983 -0.5871 -0.7818
10419TIP3   OH252747   0.349   0.188  16.336  0.8760  0.0616 -0.2121
10419TIP3    H152748   0.428   0.144  16.304 -1.1753 -1.7434 -3.3940
10419TIP3    H252749   0.277   0.137  16.298 -1.8127  2.8575  0.7577
10420TIP3   OH252750   4.502   5.845  12.340  0.3547 -0.1042 -0.1052
10420TIP3    H152751   4.501   5.761  12.295  0.1713 -0.8824  1.2808
10420TIP3    H252752   4.574   5.893  12.299  1.9912 -1.8305  0.5846
10421TIP3   OH252753   1.454   1.583  16.474 -0.6553  0.3956  0.4568
10421TIP3    H152754   1.518   1.553  16.539  0.1676 -0.5139 -0.7515
10421TIP3    H252755   1.388   1.629  16.526 -1.0623 -1.9725  2.1933
10422TIP3   OH252756   3.627   5.449   6.756 -0.5900  0.4021 -0.3590
10422TIP3    H152757   3.553   5.501   6.724 -1.2933  0.3660  1.1354
10422TIP3    H252758   3.593   5.359   6.760 -0.3646  0.3294  0.0100
10423TIP3   OH252759   5.294   5.450   2.034 -0.5986  0.2117 -0.0721
10423TIP3    H152760   5.272   5.485   1.948 -2.4578 -1.9041 -0.5723
10423TIP3    H252761   5.270   5.519   2.095 -0.0228  1.4375 -1.1720
10424TIP3   OH252762   0.041   5.503  11.038 -0.3672 -0.7782 -0.4179
10424TIP3    H152763   0.055   5.568  10.969 -1.0228 -1.2028 -0.9687
10424TIP3    H252764   0.052   5.419  10.995 -0.6979 -1.0497  0.0158
10425TIP3   OH252765   1.956   2.686   0.373  0.8230  0.3806 -0.1435
10425TIP3    H152766   1.949   2.754   0.440  1.9191  1.9481 -1.5381
10425TIP3    H252767   2.050   2.680   0.355  0.5842 -0.2564 -1.2809
10426TIP3   OH252768   3.618   0.132  12.068  0.0076  0.2855 -0.2860
10426TIP3    H152769   3.536   0.179  12.086  1.3917  2.2058  1.5971
10426TIP3    H252770   3.633   0.078  12.145  1.6792  1.8866  0.6099
10427TIP3   OH252771   0.359   3.393   1.528 -0.0881 -0.1328  0.1566
10427TIP3    H152772   0.307   3.407   1.449 -1.1026 -0.8046  0.6827
10427TIP3    H252773   0.360   3.299   1.540 -0.5534 -0.0056  1.3320
10428TIP3   OH252774   3.692   0.943  11.735  0.1838  0.9722 -0.0936
10428TIP3    H152775   3.769   1.000  11.729  0.8277  0.3645  1.6155
10428TIP3    H252776   3.673   0.917  11.645  2.2845  0.7712 -0.5242
10429TIP3   OH252777   3.416   6.553   4.488 -0.0658 -0.1078  0.1365
10429TIP3    H152778   3.399   6.584   4.577 -2.2672  0.6340 -0.4873
10429TIP3    H252779   3.376   6.619   4.431  2.9498  0.4691 -1.5445
10430TIP3   OH252780   4.429   4.189  14.786 -0.0548  0.3301 -0.3369
10430TIP3    H152781   4.334   4.189  14.802  0.1042 -2.4417  1.3549
10430TIP3    H252782   4.438   4.162  14.695 -0.9482 -1.0238 -0.0674
10431TIP3   OH252783   2.407   0.823  12.865  0.1050  0.3215  0.0338
10431TIP3    H152784   2.339   0.870  12.816 -0.6341  0.4887  1.1631
10431TIP3    H252785   2.489   0.847  12.822 -0.5741 -0.1668 -1.5917
10432TIP3   OH252786   6.568   6.792  11.441 -0.8806 -0.3708  0.6376
10432TIP3    H152787   6.496   6.854  11.428 -0.6502 -0.0882  0.7037
10432TIP3    H252788   6.543   6.741  11.518  0.5168  1.9541  2.7549
10433TIP3   OH252789   5.599   1.015  16.969 -0.1455 -0.3316 -0.1908
10433TIP3    H152790   5.522   1.030  16.914 -0.2965 -1.6328 -0.3679
10433TIP3    H252791   5.599   0.921  16.984  1.9690 -0.4959 -0.9754
10434TIP3   OH252792   5.660   6.227   0.895  0.3900 -0.1351  0.0660
10434TIP3    H152793   5.623   6.279   0.823 -0.2034 -1.7885 -0.8842
10434TIP3    H252794   5.678   6.291   0.964 -1.1432  1.2062 -0.6983
10435TIP3   OH252795   5.212   1.700  14.833  0.6058  0.0520  0.4193
10435TIP3    H152796   5.127   1.657  14.829  0.7937 -0.3896  1.0766
10435TIP3    H252797   5.199   1.784  14.789  0.0071 -0.2937 -0.0739
10436TIP3   OH252798   3.047   5.371   0.204 -0.3167  0.0553  0.2497
10436TIP3    H152799   3.118   5.402   0.149  0.6009 -2.0880  0.1050
10436TIP3    H252800   3.007   5.450   0.239  0.9230  1.3784 -1.1757
10437TIP3   OH252801   1.372   3.237  13.278  0.6230  0.0458  0.0951
10437TIP3    H152802   1.380   3.300  13.350  0.1561 -0.7244  0.8546
10437TIP3    H252803   1.336   3.159  13.320  1.6754 -0.9074 -0.7262
10438TIP3   OH252804   4.110   0.244   4.438 -0.0287  0.4854  0.4585
10438TIP3    H152805   4.093   0.232   4.344  0.6500  2.1491  0.0926
10438TIP3    H252806   4.036   0.296   4.469 -0.9132 -1.1070  1.1694
10439TIP3   OH252807   6.193   1.997   3.242  0.6696  0.3410 -0.2387
10439TIP3    H152808   6.167   1.983   3.151  0.2667  0.8948 -0.2071
10439TIP3    H252809   6.122   1.961   3.294  1.2229 -0.6222 -0.1293
10440TIP3   OH252810   3.062   6.130  12.141  0.3764 -0.4392 -0.1771
10440TIP3    H152811   3.098   6.041  12.146 -1.6829 -1.6373 -3.3194
10440TIP3    H252812   2.993   6.132  12.207 -0.6025 -1.8093 -1.1001
10441TIP3   OH252813   0.889   0.001  10.542  0.3914 -0.9246 -0.0295
10441TIP3    H152814   0.840  -0.079  10.561 -0.9671 -0.6425 -2.1201
10441TIP3    H252815   0.855   0.065  10.604 -1.0079 -1.0653 -0.6357
10442TIP3   OH252816   3.854   3.156   4.418 -0.8008  0.0102  0.5614
10442TIP3    H152817   3.939   3.163   4.375 -0.9908 -2.1324 -0.2983
10442TIP3    H252818   3.871   3.102   4.495 -0.8125  2.3155  2.2515
10443TIP3   OH252819   5.235   1.327  16.894  0.1131  0.3000  0.0731
10443TIP3    H152820   5.175   1.265  16.853  1.1138 -1.0517  0.5522
10443TIP3    H252821   5.225   1.407  16.843  1.1114 -1.2008 -2.7277
10444TIP3   OH252822   1.592   5.819  16.279  0.3768  0.7141 -0.4037
10444TIP3    H152823   1.567   5.898  16.327 -0.7646  0.7993 -1.0972
10444TIP3    H252824   1.669   5.845  16.229  0.2834  1.2549 -0.2739
10445TIP3   OH252825   6.234   4.251   2.523  0.0818 -0.4330 -0.3071
10445TIP3    H152826   6.305   4.307   2.554  1.7515 -2.7846  0.4683
10445TIP3    H252827   6.186   4.227   2.603 -1.0374  0.3921 -0.7127
10446TIP3   OH252828   2.549   0.555  16.027 -0.4230  0.0059 -0.6260
10446TIP3    H152829   2.576   0.619  16.093  0.6142 -1.4491  0.4551
10446TIP3    H252830   2.510   0.606  15.957 -1.6343  1.6310  1.1426
10447TIP3   OH252831   6.452   5.870   5.372 -0.2153 -0.6441 -0.7334
10447TIP3    H152832   6.381   5.810   5.394  1.2093 -1.4354  2.3671
10447TIP3    H252833   6.512   5.817   5.319  0.2528 -1.5283  0.6187
10448TIP3   OH252834   2.393   1.608   0.631  0.1990  0.0321 -0.2199
10448TIP3    H152835   2.453   1.673   0.668  0.1420  1.9041 -3.0809
10448TIP3    H252836   2.322   1.602   0.695  0.4192  2.5498  0.3789
10449TIP3   OH252837   2.440   0.341  16.779  0.3443 -0.2414 -0.0387
10449TIP3    H152838   2.516   0.317  16.726  0.2118  0.2782 -0.4750
10449TIP3    H252839   2.472   0.409  16.838  0.3343 -0.3699  0.1178
10450TIP3   OH252840   3.274   2.132  17.080 -0.5242 -0.3315  0.0660
10450TIP3    H152841   3.331   2.206  17.101 -1.2574 -0.1062  1.4517
10450TIP3    H252842   3.235   2.155  16.996  0.3799  0.1604 -0.2281
10451TIP3   OH252843   1.996   3.628  14.960 -0.0220  0.1076 -0.0957
10451TIP3    H152844   2.055   3.651  15.031 -0.6582 -2.0684  1.2273
10451TIP3    H252845   1.909   3.642  14.995 -0.3713  1.2999 -1.3277
10452TIP3   OH252846   0.375   4.863  12.762 -0.2024  0.1283  0.0571
10452TIP3    H152847   0.448   4.839  12.819  0.5972  0.2111 -0.8922
10452TIP3    H252848   0.368   4.791  12.700 -1.8520 -0.5401  0.9639
10453TIP3   OH252849   4.844   0.600  10.839  0.3057  0.0044  0.8742
10453TIP3    H152850   4.796   0.545  10.777 -0.0579  1.7167 -0.4138
10453TIP3    H252851   4.935   0.595  10.810  0.6463 -1.5575  2.0539
10454TIP3   OH252852   3.210   0.918   3.830  0.1778 -0.1629 -0.1414
10454TIP3    H152853   3.173   0.856   3.768 -1.2303  1.3906 -0.9217
10454TIP3    H252854   3.150   0.992   3.830  0.5077  0.2377  2.5324
10455TIP3   OH252855   1.522   1.455  14.080 -0.5472 -0.6507  0.2844
10455TIP3    H152856   1.453   1.422  14.023 -1.7322 -0.3803  1.5219
10455TIP3    H252857   1.602   1.413  14.048 -0.9934  0.1615 -2.1344
10456TIP3   OH252858   2.692   4.308   2.631  0.3334  0.0797  0.0122
10456TIP3    H152859   2.670   4.359   2.552 -1.3651 -1.4873 -0.6097
10456TIP3    H252860   2.751   4.240   2.599  0.1687 -0.1561  0.2064
10457TIP3   OH252861   1.508   4.173   6.198  0.2323 -0.4451 -0.0840
10457TIP3    H152862   1.594   4.139   6.176 -0.2520 -0.8295 -1.5785
10457TIP3    H252863   1.451   4.138   6.129 -0.8964  0.7117  0.2162
10458TIP3   OH252864   5.620   1.624  13.240 -0.0766  0.0280 -0.0711
10458TIP3    H152865   5.699   1.622  13.294  0.5006  0.7671 -0.8604
10458TIP3    H252866   5.555   1.575  13.291  0.6858 -0.0157  0.8969
10459TIP3   OH252867   3.093   6.274   4.114 -1.0137 -0.2021 -0.4463
10459TIP3    H152868   3.010   6.236   4.143 -1.9850 -0.0188 -2.7556
10459TIP3    H252869   3.074   6.308   4.026  1.2418  0.7988 -0.6080
10460TIP3   OH252870   1.607   3.716   4.936  0.2372  0.3588 -0.2212
10460TIP3    H152871   1.672   3.648   4.950  0.9821  1.4391  2.0462
10460TIP3    H252872   1.526   3.669   4.920  0.9405 -1.0490  0.1598
10461TIP3   OH252873   1.453   5.594   0.060  0.4979 -0.6805  0.0936
10461TIP3    H152874   1.456   5.620   0.152 -0.8038  1.0435 -0.2985
10461TIP3    H252875   1.366   5.619   0.031  0.8845 -1.2128 -1.6146
10462TIP3   OH252876   6.610   3.072   1.738 -0.1197  0.2545 -0.0758
10462TIP3    H152877   6.518   3.099   1.744 -0.4444 -0.3286 -1.9137
10462TIP3    H252878   6.608   2.990   1.689  1.3674  0.0395  0.1851
10463TIP3   OH252879   6.440   2.036  10.351  0.1079 -0.1312  0.4484
10463TIP3    H152880   6.373   2.046  10.284 -0.6959 -2.4912  0.8111
10463TIP3    H252881   6.411   2.094  10.422  0.0405  1.0649 -0.5372
10464TIP3   OH252882   0.447   6.518   1.994  0.1886  0.5392 -0.1909
10464TIP3    H152883   0.439   6.530   1.900 -0.7227 -0.4300 -0.2537
10464TIP3    H252884   0.369   6.468   2.019  0.8051  0.0971  0.9457
10465TIP3   OH252885   5.525   3.008  14.138 -0.1298  0.2696 -0.1283
10465TIP3    H152886   5.492   3.098  14.135 -0.8682 -0.0083 -0.9232
10465TIP3    H252887   5.470   2.960  14.076 -0.4972 -0.9912  1.1098
10466TIP3   OH252888   0.100   3.186   0.602 -0.2382 -0.3458 -0.6675
10466TIP3    H152889   0.188   3.162   0.574  0.1681 -0.7466  0.8628
10466TIP3    H252890   0.075   3.259   0.545  1.6267  0.6919 -0.1990
10467TIP3   OH252891   3.426   2.381   4.804 -0.3298 -0.2176 -0.0780
10467TIP3    H152892   3.366   2.365   4.877  0.1636 -1.0903  0.1572
10467TIP3    H252893   3.505   2.332   4.828  0.9327  1.8590  0.1768
10468TIP3   OH252894   0.643   5.404  14.097  0.1083  0.0735  1.2956
10468TIP3    H152895   0.614   5.440  14.012 -2.7977  1.5634  2.7561
10468TIP3    H252896   0.705   5.469  14.130  1.7445 -0.8242  0.1128
10469TIP3   OH252897   1.606   5.524  12.092  0.3054 -0.1087 -0.0177
10469TIP3    H152898   1.696   5.492  12.087  1.2974  2.2218  1.2688
10469TIP3    H252899   1.607   5.588  12.163 -1.7691  1.8514 -1.5911
10470TIP3   OH252900   5.163   3.771  10.904 -0.3913 -0.0433 -0.3980
10470TIP3    H152901   5.093   3.706  10.893 -0.7465  0.2737 -0.0278
10470TIP3    H252902   5.211   3.741  10.982 -0.0027 -0.3621 -0.7602
10471TIP3   OH252903   1.599   2.423  13.387  0.6220  0.0886  0.4588
10471TIP3    H152904   1.561   2.354  13.333  0.2202  0.0431  0.8028
10471TIP3    H252905   1.600   2.500  13.330  0.0916  0.0680  0.4253
10472TIP3   OH252906   6.560   1.947   5.221 -0.3016  0.2105  0.1666
10472TIP3    H152907   6.552   1.924   5.129  1.0142  0.6378 -0.0738
10472TIP3    H252908   6.598   2.035   5.221  0.3675 -0.0597  1.1155
10473TIP3   OH252909   1.187   6.438   1.135 -0.1738 -0.1642 -0.1144
10473TIP3    H152910   1.165   6.421   1.226  0.7792  0.6392  0.2843
10473TIP3    H252911   1.254   6.373   1.114 -2.5938 -2.4883 -1.2703
10474TIP3   OH252912   1.290   6.123   0.190 -0.1622  0.0642 -0.8403
10474TIP3    H152913   1.269   6.207   0.231  1.3125 -1.5941  4.0011
10474TIP3    H252914   1.384   6.125   0.176  0.0158 -0.9705  0.0468
10475TIP3   OH252915   2.168   1.411  11.260 -0.5046 -0.0254  0.8990
10475TIP3    H152916   2.075   1.390  11.256 -0.2193 -1.2886  0.7256
10475TIP3    H252917   2.183   1.436  11.352 -0.6818 -1.4598  1.3368
10476TIP3   OH252918   0.746   5.844   3.367  0.1857 -0.4383 -0.3964
10476TIP3    H152919   0.826   5.823   3.319  0.5383  1.6183 -0.8240
10476TIP3    H252920   0.709   5.919   3.321  0.2632  1.3293  2.1746
10477TIP3   OH252921   3.557   2.701  15.864 -0.3875  0.0362  0.5656
10477TIP3    H152922   3.522   2.676  15.949 -0.1947  0.4792  0.7800
10477TIP3    H252923   3.554   2.797  15.864  1.9198  0.1888  1.0851
10478TIP3   OH252924   3.665   1.745   4.646 -0.0221 -0.2407  0.0436
10478TIP3    H152925   3.586   1.697   4.667 -0.9164  0.9262 -0.5480
10478TIP3    H252926   3.733   1.678   4.642 -0.9312 -1.2370  0.7256
10479TIP3   OH252927   2.982   5.869  15.822 -0.1539 -0.0451  0.1480
10479TIP3    H152928   3.009   5.847  15.733  0.0924 -0.4586  0.3260
10479TIP3    H252929   2.961   5.963  15.817  0.5122  0.0923 -0.1842
10480TIP3   OH252930   0.811   2.859   4.800  0.5983 -0.2918 -0.3647
10480TIP3    H152931   0.732   2.854   4.854  0.8458 -0.2500 -0.0034
10480TIP3    H252932   0.816   2.774   4.757  0.7257 -0.5361  0.1294
10481TIP3   OH252933   0.839   2.565   5.616 -0.1967  0.0920 -0.3738
10481TIP3    H152934   0.779   2.509   5.664  0.8617 -0.6999  0.0575
10481TIP3    H252935   0.878   2.508   5.550  0.7198  0.3586 -0.0814
10482TIP3   OH252936   4.139   3.571   2.711  0.0577 -0.5092  0.1665
10482TIP3    H152937   4.193   3.566   2.790 -0.1859  1.7964  0.5415
10482TIP3    H252938   4.059   3.615   2.739 -0.4603 -0.5600 -1.1682
10483TIP3   OH252939   5.543   3.555  17.010  0.0690 -0.2653 -0.4604
10483TIP3    H152940   5.622   3.609  17.013  0.8192 -0.8459 -4.3646
10483TIP3    H252941   5.471   3.617  16.998  0.2513  0.0945  0.2412
10484TIP3   OH252942   6.772   1.673  16.462  0.0864  0.4373  0.1906
10484TIP3    H152943   6.858   1.637  16.482 -0.1154  0.3024  0.8330
10484TIP3    H252944   6.784   1.768  16.468  0.3166  0.4415 -0.2641
10485TIP3   OH252945   1.478   5.777   1.920 -0.3381 -0.4753  0.0511
10485TIP3    H152946   1.392   5.735   1.909  0.5369 -1.9499 -1.6968
10485TIP3    H252947   1.470   5.861   1.877 -0.6946 -0.9394 -0.8123
10486TIP3   OH252948   2.518   3.793   0.250 -0.7517  0.5018 -0.8585
10486TIP3    H152949   2.508   3.729   0.321  0.0271 -0.1979 -1.3500
10486TIP3    H252950   2.470   3.870   0.280  0.3217  0.5605  0.8365
10487TIP3   OH252951   3.019   1.699   4.521  0.7325 -0.9572 -0.0579
10487TIP3    H152952   3.008   1.681   4.614 -0.1959 -0.4297 -0.0560
10487TIP3    H252953   3.075   1.628   4.489  0.9318 -1.2243  0.8661
10488TIP3   OH252954   5.260   3.785   4.582 -0.0362  0.4444  0.1758
10488TIP3    H152955   5.266   3.735   4.664  2.1342  2.4912  1.3931
10488TIP3    H252956   5.173   3.765   4.549 -0.6711 -1.1719  2.5278
10489TIP3   OH252957   5.210   6.815  12.126 -0.5432  0.1220  0.1136
10489TIP3    H152958   5.286   6.820  12.184 -1.7748 -0.2166  1.8569
10489TIP3    H252959   5.200   6.903  12.091 -0.2337  0.5445  1.0600
10490TIP3   OH252960   5.122   4.852   6.165  0.3077 -0.2413  0.6142
10490TIP3    H152961   5.181   4.882   6.234  1.0807  0.1038 -0.1787
10490TIP3    H252962   5.046   4.909   6.172  0.9109  0.5997  0.3985
10491TIP3   OH252963   3.208   1.547  14.940  0.3822 -0.4260 -0.2192
10491TIP3    H152964   3.160   1.628  14.923  0.9685  0.3289  1.4450
10491TIP3    H252965   3.296   1.576  14.965  1.3228 -1.7115 -1.7985
10492TIP3   OH252966   0.386   6.372  13.951  0.4853 -0.7888 -0.3262
10492TIP3    H152967   0.303   6.347  13.911 -0.3743  0.9018  0.2823
10492TIP3    H252968   0.434   6.416  13.881 -0.2372  0.5068 -0.0422
10493TIP3   OH252969   6.041   2.509  10.949  0.2937 -0.1231 -0.1186
10493TIP3    H152970   6.066   2.598  10.974 -4.1739  1.3139  0.0549
10493TIP3    H252971   6.036   2.512  10.854 -2.7202  0.8811 -0.0199
10494TIP3   OH252972   3.553   6.023   5.368  0.0850 -0.3091 -0.4947
10494TIP3    H152973   3.469   6.000   5.327  0.2080 -1.3585 -0.1824
10494TIP3    H252974   3.533   6.101   5.420 -0.0221  1.2163 -2.6790
10495TIP3   OH252975   3.222   1.352   4.716 -0.0239  0.3000  0.1024
10495TIP3    H152976   3.173   1.348   4.634  0.0837  1.0617 -0.0115
10495TIP3    H252977   3.230   1.261   4.744 -0.3803  0.0625 -0.5428
10496TIP3   OH252978   2.454   0.193  13.008  0.1506 -0.8152 -0.5078
10496TIP3    H152979   2.513   0.244  13.064 -1.5222  0.0328  0.5658
10496TIP3    H252980   2.484   0.103  13.017  0.4482 -0.5930  1.1419
10497TIP3   OH252981   2.782   0.792  15.211  0.2864 -0.6425 -0.4161
10497TIP3    H152982   2.865   0.769  15.168  0.2907 -0.9893 -0.2255
10497TIP3    H252983   2.731   0.835  15.143  0.8971  0.2241 -0.3553
10498TIP3   OH252984   1.231   2.421  13.561  0.3267 -0.4499 -0.0462
10498TIP3    H152985   1.150   2.416  13.610  0.7115  1.2273  0.8154
10498TIP3    H252986   1.208   2.391  13.473 -0.7618 -1.8065  0.6667
10499TIP3   OH252987   5.739   2.082  14.361  0.3849 -0.7894 -0.0645
10499TIP3    H152988   5.726   2.022  14.288 -0.1279 -0.6165 -0.1178
10499TIP3    H252989   5.651   2.093  14.399  0.3867  0.2965 -0.3470
10500TIP3   OH252990   1.679   4.876   2.633  0.3147  0.3086 -0.7789
10500TIP3    H152991   1.710   4.964   2.609  0.7161  0.0200 -1.3507
10500TIP3    H252992   1.586   4.887   2.650  0.4112  0.8951 -0.6183
10501TIP3   OH252993   5.076   4.017  10.676 -0.3198 -0.4400 -0.1930
10501TIP3    H152994   5.046   4.074  10.606 -0.2006 -1.4198 -1.0621
10501TIP3    H252995   5.070   4.071  10.755 -0.9904  0.4985 -0.8643
10502TIP3   OH252996   3.875   3.486   0.645 -0.4887 -0.3660  0.5467
10502TIP3    H152997   3.962   3.524   0.633 -0.2054 -0.5554  1.8141
10502TIP3    H252998   3.817   3.561   0.656 -0.8319 -0.1646 -2.0878
10503TIP3   OH252999   1.457   4.433   5.324  0.2727  0.0653  0.2421
10503TIP3    H153000   1.498   4.399   5.403  1.3734 -0.5720 -0.5666
10503TIP3    H253001   1.363   4.431   5.341  0.4637 -0.8178  1.2159
10504TIP3   OH253002   3.224   1.685   0.458  0.1535  0.4597  0.0922
10504TIP3    H153003   3.297   1.623   0.445  0.0467  0.4350 -0.4117
10504TIP3    H253004   3.238   1.719   0.546 -0.2924 -0.9494  0.7409
10505TIP3   OH253005   2.888   4.272   3.694 -0.5900 -0.1548 -0.2817
10505TIP3    H153006   2.919   4.358   3.668 -0.2008  0.0318  0.7759
10505TIP3    H253007   2.922   4.259   3.782 -3.0809 -0.1485  0.7496
10506TIP3   OH253008   2.906   4.418  10.805  0.5738 -0.6128  0.7297
10506TIP3    H153009   2.937   4.353  10.868 -0.0603  0.3236  2.0702
10506TIP3    H253010   2.861   4.367  10.738  2.0091 -1.7096  0.5510
10507TIP3   OH253011   3.720   3.469   6.518 -0.5426 -0.5155  0.3811
10507TIP3    H153012   3.685   3.554   6.494 -0.0565 -0.2879  0.4697
10507TIP3    H253013   3.647   3.408   6.506 -0.9744 -0.0432  0.6030
10508TIP3   OH253014   3.532   4.194   0.037  0.1098 -0.2384  0.4333
10508TIP3    H153015   3.486   4.157  -0.038 -0.4157 -0.5400  0.8934
10508TIP3    H253016   3.624   4.168   0.024  0.0637 -0.0913 -0.2133
10509TIP3   OH253017   5.480   3.567  16.648 -0.2062 -0.7173  0.0081
10509TIP3    H153018   5.500   3.599  16.736 -1.3295 -1.0936  0.4218
10509TIP3    H253019   5.395   3.608  16.628 -0.8187 -2.0385 -0.1629
10510TIP3   OH253020   1.044   0.712  14.914 -0.1273  0.2911 -0.0309
10510TIP3    H153021   0.994   0.792  14.902 -0.9449 -0.1717  0.2003
10510TIP3    H253022   1.064   0.682  14.825 -0.8078  0.1509 -0.1420
10511TIP3   OH253023   4.332   1.706  14.620  0.1559  0.0570  0.2666
10511TIP3    H153024   4.370   1.680  14.537 -0.4641  0.1242 -0.0445
10511TIP3    H253025   4.285   1.628  14.651 -2.2294  0.8914 -0.9654
10512TIP3   OH253026   0.792   1.759  11.824  0.5952 -0.1839 -0.0678
10512TIP3    H153027   0.799   1.739  11.917  2.1525 -0.8727 -0.3124
10512TIP3    H253028   0.809   1.853  11.818  0.5667 -0.1541  0.3291
10513TIP3   OH253029   5.176   6.621   3.933  0.0813 -0.7076 -0.2331
10513TIP3    H153030   5.167   6.579   3.847 -0.0050  0.1260 -0.6418
10513TIP3    H253031   5.091   6.660   3.949  0.2050 -0.5656  0.0786
10514TIP3   OH253032   4.556   4.007  12.607 -0.0824 -0.2361 -0.1823
10514TIP3    H153033   4.523   4.037  12.522 -1.1102 -1.7840 -0.3585
10514TIP3    H253034   4.609   3.930  12.586  0.3443 -0.1360  0.5043
10515TIP3   OH253035   4.762   5.949  15.541 -0.0649 -0.0966 -0.3589
10515TIP3    H153036   4.803   5.927  15.624 -0.8284 -2.8688 -0.6374
10515TIP3    H253037   4.831   5.935  15.476  0.4799  1.9010 -0.2740
10516TIP3   OH253038   1.547   1.486  11.620  0.2982  0.0271 -0.8522
10516TIP3    H153039   1.462   1.530  11.616  0.0701 -0.2027  0.7846
10516TIP3    H253040   1.604   1.547  11.666  0.3663 -0.7532  0.1468
10517TIP3   OH253041   0.415   2.237  15.979  0.2680  0.5905  0.7672
10517TIP3    H153042   0.392   2.327  15.957 -0.4359 -0.0631 -1.4380
10517TIP3    H253043   0.353   2.212  16.047 -1.5835  0.8268 -0.7663
10518TIP3   OH253044   0.186   6.302   0.368 -0.2774 -0.0195 -0.2609
10518TIP3    H153045   0.177   6.385   0.321 -0.0366 -0.7008 -1.5509
10518TIP3    H253046   0.179   6.235   0.300 -2.5939 -1.1704  0.9833
10519TIP3   OH253047   1.257   5.346  12.808  0.5618  0.0107 -0.2255
10519TIP3    H153048   1.268   5.307  12.895 -0.0276 -1.2061 -0.6748
10519TIP3    H253049   1.165   5.370  12.804  0.8848  1.3300 -0.0188
10520TIP3   OH253050   4.907   2.207   4.020 -0.5460 -0.2402  0.9319
10520TIP3    H153051   4.970   2.166   3.961 -1.8878  0.3450 -1.0065
10520TIP3    H253052   4.939   2.297   4.031 -0.9579  0.0351  0.0068
10521TIP3   OH253053   5.851   5.405  15.781  0.6172  0.2160 -0.0823
10521TIP3    H153054   5.830   5.465  15.710  1.7233  2.9765  1.7829
10521TIP3    H253055   5.770   5.396  15.830  0.2585 -0.4844 -0.7677
10522TIP3   OH253056   6.714   5.710  13.097 -0.1838 -0.0898  0.4918
10522TIP3    H153057   6.646   5.768  13.062  0.5643  0.3187 -0.3474
10522TIP3    H253058   6.719   5.731  13.190 -1.2844 -0.2173  0.5868
10523TIP3   OH253059   5.226   4.851  12.961  0.5892  0.5646  0.5101
10523TIP3    H153060   5.313   4.873  12.995 -0.2821 -0.0856  3.4354
10523TIP3    H253061   5.196   4.778  13.015 -1.1397 -0.3494 -1.5274
10524TIP3   OH253062   2.433   6.343   0.673  0.2982 -0.7387  0.0416
10524TIP3    H153063   2.366   6.290   0.629 -1.1620  1.0730 -0.0758
10524TIP3    H253064   2.470   6.285   0.740 -1.7751 -1.6781  0.4570
10525TIP3   OH253065   2.073   6.788  14.178 -0.0011  0.4914  0.4113
10525TIP3    H153066   2.138   6.842  14.134  2.0030  0.6074  3.2517
10525TIP3    H253067   1.995   6.844  14.183  0.1025  0.9036 -1.7431
10526TIP3   OH253068   6.491   1.658   4.883 -0.2565  0.2679 -0.1271
10526TIP3    H153069   6.483   1.747   4.848 -0.0378 -0.0405 -0.9691
10526TIP3    H253070   6.464   1.667   4.975  1.3768  1.5298  0.2857
10527TIP3   OH253071   1.213   6.572  14.049 -0.3707  0.2701  0.9466
10527TIP3    H153072   1.225   6.564  13.954  0.4850 -2.5565  1.2137
10527TIP3    H253073   1.209   6.666  14.064 -2.3465  0.8044 -2.0803
10528TIP3   OH253074   1.638   2.924  11.337  0.2807 -0.4809  0.2916
10528TIP3    H153075   1.671   2.863  11.271  1.0446  0.0030  0.2154
10528TIP3    H253076   1.694   3.001  11.329 -0.4482  0.0987  0.6244
10529TIP3   OH253077   4.892   5.632   6.527  0.1986  0.3794 -0.5048
10529TIP3    H153078   4.827   5.582   6.576  1.4441 -1.3169 -0.4993
10529TIP3    H253079   4.849   5.716   6.510 -1.9782 -0.6426 -0.4834
10530TIP3   OH253080   2.908   5.120  11.309  0.1874 -0.3740 -0.1118
10530TIP3    H153081   2.877   5.093  11.223 -1.0148 -2.0550  0.7967
10530TIP3    H253082   2.979   5.060  11.330  0.6498  0.1938 -0.0284
10531TIP3   OH253083   2.364   2.435  17.019  0.3385  0.0413  0.0099
10531TIP3    H153084   2.290   2.381  17.047  0.1589  0.9030  1.2473
10531TIP3    H253085   2.418   2.375  16.966 -1.0570 -0.6865 -0.6607
10532TIP3   OH253086   2.306   5.485   6.130 -0.2114  0.2785 -0.2026
10532TIP3    H153087   2.222   5.481   6.176  0.3102 -0.4165  0.7408
10532TIP3    H253088   2.356   5.412   6.166  0.0420 -0.6383 -2.2999
10533TIP3   OH253089   1.799   6.076   1.027 -0.3081  0.2049  0.4220
10533TIP3    H153090   1.724   6.030   1.065  0.7002 -1.0573  0.9685
10533TIP3    H253091   1.841   6.118   1.101 -0.0936  0.3594  0.2138
10534TIP3   OH253092   6.023   6.163   3.674 -0.2167 -0.4664 -0.3840
10534TIP3    H153093   6.051   6.220   3.746 -0.1466 -0.9957  0.0230
10534TIP3    H253094   5.930   6.150   3.688 -0.4311  0.3097 -1.0308
10535TIP3   OH253095   0.543   2.694  12.503 -0.6823 -0.2091 -0.6563
10535TIP3    H153096   0.592   2.618  12.535 -0.5170 -0.7467 -2.1337
10535TIP3    H253097   0.451   2.670  12.512 -0.6517 -0.1319 -0.0902
10536TIP3   OH253098   4.416   6.493   1.944 -0.0546  0.2565 -0.0932
10536TIP3    H153099   4.495   6.546   1.956 -0.1832  0.3289  0.4699
10536TIP3    H253100   4.345   6.556   1.936 -0.0338  0.1997 -0.8688
10537TIP3   OH253101   4.428   5.322  17.311 -0.3468 -0.2866  0.3153
10537TIP3    H153102   4.427   5.227  17.303  1.8843 -0.4201  0.8817
10537TIP3    H253103   4.521   5.345  17.308 -0.7565  1.7660  1.4731
10538TIP3   OH253104   5.875   4.842  16.021  0.3606 -0.1702  0.6512
10538TIP3    H153105   5.898   4.758  15.982  0.6511 -0.4268  1.3651
10538TIP3    H253106   5.890   4.906  15.951 -0.5502 -0.7825 -0.1284
10539TIP3   OH253107   2.346   2.691   1.700  0.3507 -0.1055 -0.0849
10539TIP3    H153108   2.355   2.778   1.740 -0.6417  0.6404 -1.4483
10539TIP3    H253109   2.288   2.644   1.760  0.1788  0.4573  0.2048
10540TIP3   OH253110   4.166   4.296   4.136 -0.6451 -0.2701 -0.1612
10540TIP3    H153111   4.258   4.293   4.164 -0.6947 -1.3856 -0.0739
10540TIP3    H253112   4.169   4.285   4.041 -0.7173 -1.1564 -0.0720
10541TIP3   OH253113   4.204   2.990   1.469 -0.2771 -0.3077 -0.2595
10541TIP3    H153114   4.195   2.971   1.563  1.9059 -1.3945 -0.2092
10541TIP3    H253115   4.281   3.047   1.463 -0.4573 -0.1554 -1.3928
10542TIP3   OH253116   1.139   1.163  15.626  0.5558 -0.2346 -0.2511
10542TIP3    H153117   1.125   1.246  15.580  0.6000 -0.4586 -0.6681
10542TIP3    H253118   1.172   1.103  15.559 -1.8256 -1.3102 -0.5513
10543TIP3   OH253119   5.547   6.820  15.230 -0.4157 -0.1448  0.2860
10543TIP3    H153120   5.486   6.845  15.160 -1.3868 -1.8855  0.4692
10543TIP3    H253121   5.617   6.886  15.225 -1.4399  0.8971 -1.0451
10544TIP3   OH253122   5.069   5.197  16.689  0.1936  0.0468  0.2614
10544TIP3    H153123   5.139   5.137  16.659 -0.4920 -1.8361  2.1571
10544TIP3    H253124   4.990   5.144  16.685 -0.8988  1.6755 -0.3615
10545TIP3   OH253125   5.126   4.774   3.368 -0.1941  0.6496 -0.0266
10545TIP3    H153126   5.053   4.802   3.313 -0.3512  0.5620  0.1357
10545TIP3    H253127   5.137   4.844   3.432  0.5587  1.1692 -0.7015
10546TIP3   OH253128   5.010   6.165  12.277 -0.4604 -0.2647 -0.4871
10546TIP3    H153129   4.923   6.139  12.305  0.0844 -0.9535  0.6333
10546TIP3    H253130   4.996   6.213  12.195 -1.7596 -1.6646 -1.1352
10547TIP3   OH253131   2.773   4.402  17.205  0.2590 -0.1643 -0.3704
10547TIP3    H153132   2.756   4.466  17.136 -1.4048 -0.3154 -0.1396
10547TIP3    H253133   2.799   4.322  17.158  0.3647  0.0984 -0.7616
10548TIP3   OH253134   1.754   5.240  14.023 -0.0165 -0.3439  0.3483
10548TIP3    H153135   1.829   5.182  14.009  0.9342  0.1979  2.7331
10548TIP3    H253136   1.773   5.317  13.970  0.0357 -1.0901 -0.7390
10549TIP3   OH253137   0.989   4.407   3.910 -0.8570  0.4174 -0.2855
10549TIP3    H153138   0.944   4.447   3.836 -1.3077  0.9923  0.2900
10549TIP3    H253139   0.977   4.469   3.982  1.6941  1.1060 -0.3503
10550TIP3   OH253140   5.749   4.997   2.084 -1.1291  0.5918 -0.0812
10550TIP3    H153141   5.696   5.016   2.162  0.4234 -1.0674  1.4902
10550TIP3    H253142   5.793   5.079   2.064 -1.7947  1.1359  0.6019
10551TIP3   OH253143   6.071   3.509   6.474  0.4012  1.0520  0.1424
10551TIP3    H153144   6.071   3.603   6.487 -1.0234  1.0459  0.3374
10551TIP3    H253145   6.076   3.472   6.563  1.2728  0.9212  0.0535
10552TIP3   OH253146   1.177   2.471   0.345 -0.4415  0.2784  0.3577
10552TIP3    H153147   1.111   2.495   0.280  0.5785  1.8790 -0.1592
10552TIP3    H253148   1.128   2.461   0.426 -1.5401 -0.2946 -0.3584
10553TIP3   OH253149   3.417   5.571   0.797 -0.2894 -0.1942  0.1201
10553TIP3    H153150   3.331   5.548   0.761 -0.7486  0.7041  0.5992
10553TIP3    H253151   3.446   5.492   0.842 -1.4354 -0.1305  1.0186
10554TIP3   OH253152   4.558   4.192   3.185 -0.4241 -0.2782 -0.4151
10554TIP3    H153153   4.562   4.223   3.275 -0.5441 -1.8178  0.1586
10554TIP3    H253154   4.647   4.164   3.165 -0.8264 -2.0193  0.0488
10555TIP3   OH253155   1.545   5.383  14.933  0.7508 -0.0582 -0.1454
10555TIP3    H153156   1.508   5.447  14.872  2.1255  0.7384 -0.1953
10555TIP3    H253157   1.478   5.315  14.940 -0.2736  0.8201 -0.9794
10556TIP3   OH253158   0.051   1.450  11.543  0.0043 -0.0982 -0.7594
10556TIP3    H153159   0.103   1.385  11.496 -0.6579  0.2736 -2.0545
10556TIP3    H253160   0.010   1.503  11.474  0.2171  1.4509  0.2534
10557TIP3   OH253161   4.856   0.188   3.885 -0.1922 -0.6644 -0.4595
10557TIP3    H153162   4.947   0.159   3.884 -0.4503 -1.5493  0.5347
10557TIP3    H253163   4.861   0.283   3.891  0.6539 -0.6389 -1.2511
10558TIP3   OH253164   3.633   3.039  13.569  0.0567  0.0244  0.4636
10558TIP3    H153165   3.692   3.016  13.641  1.0871 -1.0626 -0.6774
10558TIP3    H253166   3.679   3.108  13.521  0.7853 -1.2850 -0.8171
10559TIP3   OH253167   4.083   0.982   5.606  0.0943  0.1977  0.2575
10559TIP3    H153168   4.040   1.046   5.663  1.2887  0.6193  0.7110
10559TIP3    H253169   4.076   1.021   5.519  1.1006  1.1455  0.5699
10560TIP3   OH253170   2.305   2.562  12.940  0.0372 -0.6336 -0.1243
10560TIP3    H153171   2.373   2.528  12.881 -0.9895  0.1247 -1.8452
10560TIP3    H253172   2.281   2.488  12.995  1.8786 -1.0557  0.1557
10561TIP3   OH253173   0.795   4.976  13.852 -0.2213 -0.3954 -0.1688
10561TIP3    H153174   0.788   4.932  13.936  2.5943 -0.0968  0.3389
10561TIP3    H253175   0.810   5.068  13.874 -2.3532  0.2319 -1.1185
10562TIP3   OH253176   2.758   4.665   6.579  0.0162  0.4657  0.1532
10562TIP3    H153177   2.714   4.679   6.663 -1.1361 -2.6394  0.1824
10562TIP3    H253178   2.825   4.600   6.598 -1.3518 -1.5471 -1.5801
10563TIP3   OH253179   1.198   6.042  14.863  0.0424 -0.2565 -0.2743
10563TIP3    H153180   1.166   6.127  14.893  1.4487  0.1030  0.2699
10563TIP3    H253181   1.244   6.062  14.782  1.2327 -0.3364  0.3698
10564TIP3   OH253182   2.839   4.166  12.276 -0.3837  0.3073 -0.1282
10564TIP3    H153183   2.767   4.218  12.312  0.5030 -0.2097  2.6009
10564TIP3    H253184   2.918   4.212  12.303  0.3795  0.3439 -2.2462
10565TIP3   OH253185   2.146   3.425   3.989  0.0695 -0.2160  0.1595
10565TIP3    H153186   2.136   3.387   3.901  0.9141 -1.2026  0.4769
10565TIP3    H253187   2.240   3.425   4.005 -0.1289 -0.8690  1.4255
10566TIP3   OH253188   4.970   2.057  11.867  0.4375  0.1194  0.5497
10566TIP3    H153189   5.031   2.020  11.931 -0.6285 -0.8300  1.0521
10566TIP3    H253190   5.024   2.114  11.812  1.6987 -0.4253  1.1895
10567TIP3   OH253191   4.189   4.814  15.376 -0.1036  0.8946  0.2114
10567TIP3    H153192   4.121   4.872  15.340  0.1146  0.8815 -0.2256
10567TIP3    H253193   4.152   4.726  15.366  0.4251  0.7886 -1.0669
10568TIP3   OH253194   2.077   1.011  10.886 -0.4087  0.0254 -0.3661
10568TIP3    H153195   1.995   0.969  10.910  0.4724 -1.3411  0.4015
10568TIP3    H253196   2.074   1.019  10.791 -1.5630  0.2984 -0.3094
10569TIP3   OH253197   2.876   3.128   5.910  0.1273  0.1277 -0.9361
10569TIP3    H153198   2.922   3.201   5.868 -0.8824  0.1090 -2.1379
10569TIP3    H253199   2.889   3.142   6.004  0.3374  1.5941 -1.1606
10570TIP3   OH253200   5.722   5.441   5.576  0.4838 -0.3141 -0.5886
10570TIP3    H153201   5.739   5.350   5.549  1.5192 -0.3615  0.1668
10570TIP3    H253202   5.634   5.438   5.614 -0.3498 -0.5604 -2.4571
10571TIP3   OH253203   5.013   6.388  16.804  0.0047  0.5205 -0.5091
10571TIP3    H153204   5.081   6.454  16.820  1.2171 -0.9865  0.9531
10571TIP3    H253205   5.024   6.364  16.712  2.1137 -0.3137 -0.0977
10572TIP3   OH253206   5.034   6.157   5.081  0.3253  1.0385 -0.4908
10572TIP3    H153207   4.988   6.147   4.997 -0.7378  1.6852 -0.0046
10572TIP3    H253208   5.033   6.251   5.097 -0.6904  0.8143  0.9050
10573TIP3   OH253209   5.819   3.846   5.834 -0.1837 -0.3364  0.1175
10573TIP3    H153210   5.781   3.912   5.776  0.5844 -1.4569 -1.7353
10573TIP3    H253211   5.896   3.814   5.787  0.8773 -0.8151  2.0926
10574TIP3   OH253212   3.036   6.677  10.808 -0.4728  0.2459  0.0432
10574TIP3    H153213   2.978   6.639  10.742 -1.6669  0.9272  0.6621
10574TIP3    H253214   3.077   6.601  10.849  1.0099 -0.1594 -2.0626
10575TIP3   OH253215   6.521   2.042  15.714 -0.5270  0.1571 -0.8920
10575TIP3    H153216   6.436   2.065  15.753 -1.0265 -2.0917 -0.5033
10575TIP3    H253217   6.585   2.082  15.771 -1.3191  0.7916 -0.4270
10576TIP3   OH253218   2.890   4.104   1.505  0.0245  0.7120 -0.2504
10576TIP3    H153219   2.795   4.102   1.494  0.1565  0.5920 -1.5047
10576TIP3    H253220   2.907   4.039   1.573 -0.6974 -0.0484 -0.7779
10577TIP3   OH253221   0.116   3.387  12.730 -0.7506  0.0703 -0.1794
10577TIP3    H153222   0.060   3.332  12.675 -2.3664  1.0008  0.4417
10577TIP3    H253223   0.121   3.470  12.682  2.0380 -0.6553 -1.3417
10578TIP3   OH253224   6.371   5.130   3.123  0.5103  0.5646 -0.2026
10578TIP3    H153225   6.403   5.202   3.070  0.6379  1.0181  0.4723
10578TIP3    H253226   6.378   5.162   3.213  0.0853 -0.0974  0.0731
10579TIP3   OH253227   1.188   5.152   1.149  0.3379 -0.1961 -0.0230
10579TIP3    H153228   1.280   5.178   1.141  0.0177  0.8382 -0.5809
10579TIP3    H253229   1.181   5.073   1.096  0.5880  0.5967 -1.2811
10580TIP3   OH253230   3.242   4.466  17.296 -0.2836 -0.3226  0.0320
10580TIP3    H153231   3.235   4.513  17.213  0.7849  0.9925  0.6485
10580TIP3    H253232   3.156   4.476  17.336 -0.0449  1.2651  0.2049
10581TIP3   OH253233   1.102   3.071  16.683 -0.1912  0.0072 -0.4853
10581TIP3    H153234   1.184   3.052  16.727  0.6504 -0.3733 -2.1309
10581TIP3    H253235   1.057   2.987  16.676 -0.8475  0.2447  0.5866
10582TIP3   OH253236   1.032   0.640   4.491  0.3889 -0.1503 -0.1135
10582TIP3    H153237   1.020   0.568   4.429 -1.9300 -0.1660  0.2613
10582TIP3    H253238   1.044   0.598   4.576  3.8652 -0.1392 -0.4490
10583TIP3   OH253239   2.579   2.184  16.044 -0.7621  0.0810  0.1262
10583TIP3    H153240   2.660   2.227  16.017 -0.5728 -0.3484 -0.0042
10583TIP3    H253241   2.596   2.154  16.134 -0.4729 -0.7297 -0.1863
10584TIP3   OH253242   2.702   2.062  15.797  0.2875 -0.4963  0.3471
10584TIP3    H153243   2.696   2.099  15.709  0.0136  0.9226  0.9345
10584TIP3    H253244   2.625   2.096  15.843  0.9154 -0.4364  1.3934
10585TIP3   OH253245   1.646   4.760  11.516 -0.7647  0.3120 -0.1764
10585TIP3    H153246   1.733   4.734  11.548 -1.3138 -1.0630  0.2401
10585TIP3    H253247   1.606   4.804  11.591 -0.5062  0.8169 -0.3227
10586TIP3   OH253248   6.481   2.870   4.763  0.0646  0.2480  0.0986
10586TIP3    H153249   6.543   2.880   4.691  0.6389  0.5652  0.6252
10586TIP3    H253250   6.436   2.955   4.768  1.2795  0.8619  1.2357
10587TIP3   OH253251   6.539   4.411  15.009  0.3945 -0.1138 -0.1065
10587TIP3    H153252   6.528   4.345  15.077 -1.0779  0.0312 -0.1693
10587TIP3    H253253   6.562   4.491  15.056 -1.3968  0.1860  0.3522
10588TIP3   OH253254   1.578   5.897   2.880  0.2921  0.0592 -0.0105
10588TIP3    H153255   1.515   5.950   2.831 -0.8474 -1.2938 -0.1107
10588TIP3    H253256   1.576   5.933   2.969  0.3539  0.8460 -0.3206
10589TIP3   OH253257   1.201   6.232  15.324  0.4432  0.3406 -0.4537
10589TIP3    H153258   1.145   6.308  15.337 -0.1273  0.0191 -0.9846
10589TIP3    H253259   1.290   6.267  15.324  0.2225  0.9045  0.0303
10590TIP3   OH253260   5.236   2.277   1.697  0.1905 -0.6332  0.2409
10590TIP3    H153261   5.155   2.295   1.650 -0.1406  1.2643  1.4219
10590TIP3    H253262   5.222   2.191   1.737 -1.5270 -0.0715  0.9398
10591TIP3   OH253263   5.964   4.296   5.957 -0.3628 -0.1389  0.1180
10591TIP3    H153264   5.963   4.389   5.980 -0.6166 -0.2083  0.3946
10591TIP3    H253265   5.882   4.281   5.911 -0.6194 -0.3640  0.6413
10592TIP3   OH253266   2.394   1.848   4.817  0.4426  0.2770 -0.0716
10592TIP3    H153267   2.384   1.893   4.733  0.2224  0.8663  0.2625
10592TIP3    H253268   2.402   1.919   4.881 -1.4296 -0.1089  0.6587
10593TIP3   OH253269   1.100   4.771   1.513 -0.0759 -0.0958  0.3102
10593TIP3    H153270   1.095   4.863   1.485 -0.5447  0.0021  0.6872
10593TIP3    H253271   1.188   4.743   1.489  0.2195  0.5821  0.5740
10594TIP3   OH253272   3.182   5.162  13.466  0.4898 -0.3434  0.3648
10594TIP3    H153273   3.195   5.253  13.440 -0.5063 -0.3652 -0.2785
10594TIP3    H253274   3.247   5.113  13.416 -0.4871 -0.2244 -1.0936
10595TIP3   OH253275   0.212   5.971   3.093  0.0268 -0.3548  0.2702
10595TIP3    H153276   0.223   6.040   3.027  2.2612 -1.0477 -0.1646
10595TIP3    H253277   0.182   6.017   3.171  0.9784  1.0559 -0.1533
10596TIP3   OH253278   0.410   2.202  11.100  0.2784 -0.2677 -0.1565
10596TIP3    H153279   0.343   2.269  11.090 -1.0936 -1.5515  0.0809
10596TIP3    H253280   0.489   2.251  11.126 -0.7037  1.2248  0.1558
10597TIP3   OH253281   6.069   3.109   0.039 -0.4019 -0.2773 -0.0554
10597TIP3    H153282   5.980   3.075   0.038 -0.3232 -0.5171  0.4421
10597TIP3    H253283   6.124   3.030   0.041 -0.1523 -0.1430 -1.2539
10598TIP3   OH253284   3.307   4.208  15.049 -0.3286 -0.1693  0.4977
10598TIP3    H153285   3.222   4.235  15.015  0.6081  0.9484 -1.1224
10598TIP3    H253286   3.349   4.162  14.977  0.3234 -1.0313  1.3894
10599TIP3   OH253287   1.964   3.400   0.740 -0.9712  0.1980 -0.7302
10599TIP3    H153288   1.943   3.323   0.793  0.5067  1.2719  1.6096
10599TIP3    H253289   1.936   3.474   0.795  1.1721  1.3873 -1.1397
10600TIP3   OH253290   0.095   0.980   0.443  0.9573 -0.2360 -0.4679
10600TIP3    H153291   0.034   1.035   0.492 -0.9330  0.8110 -3.6854
10600TIP3    H253292   0.125   0.915   0.507 -0.1556  1.8196  2.3609
10601TIP3   OH253293   0.259   2.426  11.114  0.0262 -0.6173  0.5108
10601TIP3    H153294   0.321   2.489  11.076 -1.9318 -0.1539 -2.1789
10601TIP3    H253295   0.221   2.472  11.189 -1.1113  1.3838 -1.1881
10602TIP3   OH253296   1.790   6.534  13.561 -0.8366  0.0767  0.1197
10602TIP3    H153297   1.784   6.581  13.644 -0.6994  2.4490 -1.1482
10602TIP3    H253298   1.767   6.598  13.494  4.2022 -0.0241 -2.1679
10603TIP3   OH253299   5.433   6.167  15.269  0.4573 -0.2332 -0.3766
10603TIP3    H153300   5.367   6.235  15.253  0.9088  0.0362 -1.1317
10603TIP3    H253301   5.459   6.138  15.182  1.2344 -0.4301 -0.0839
10604TIP3   OH253302   4.247   3.863  11.444 -0.3871  0.7292  0.4438
10604TIP3    H153303   4.263   3.842  11.536 -0.0724  3.0122  0.9830
10604TIP3    H253304   4.334   3.886  11.410 -0.5956  0.5154 -0.2406
10605TIP3   OH253305   1.524   5.359   2.298  0.3832  0.1655 -0.2435
10605TIP3    H153306   1.597   5.298   2.283  0.6263  0.5786 -0.7725
10605TIP3    H253307   1.463   5.341   2.226  0.4551  0.5365 -0.3998
10606TIP3   OH253308   6.123   3.572  16.089 -0.2436 -0.0102 -0.6114
10606TIP3    H153309   6.143   3.665  16.100 -1.7371  0.1432  1.2757
10606TIP3    H253310   6.082   3.566  16.003  3.4180  0.3484 -2.6299
10607TIP3   OH253311   0.094   6.311  16.046  0.1836 -0.1093 -0.5852
10607TIP3    H153312   0.060   6.397  16.020 -2.2189 -0.4795  1.0705
10607TIP3    H253313   0.167   6.331  16.105  0.6544  0.7667 -1.4518
10608TIP3   OH253314   0.358   3.800   5.261 -0.1977  0.3405  0.1981
10608TIP3    H153315   0.311   3.800   5.345  0.1570 -0.2070  0.4073
10608TIP3    H253316   0.386   3.709   5.250 -1.3802  0.1099 -1.1650
10609TIP3   OH253317   0.710   2.484   2.993 -0.3537  0.5364  0.3057
10609TIP3    H153318   0.796   2.505   2.957 -0.2615  0.1450  0.2921
10609TIP3    H253319   0.687   2.560   3.046  0.3593  0.3148  0.9633
10610TIP3   OH253320   4.481   5.296  15.165 -0.0667 -0.3343  0.4182
10610TIP3    H153321   4.458   5.353  15.091  1.2142 -0.9816 -0.5327
10610TIP3    H253322   4.495   5.356  15.238  2.4592  0.8136 -0.8360
10611TIP3   OH253323   0.336   0.040   0.824  0.3216 -0.3948 -0.1353
10611TIP3    H153324   0.425   0.041   0.790  1.0273 -1.5317  1.5528
10611TIP3    H253325   0.341   0.087   0.907 -1.5539  3.1976 -1.8436
10612TIP3   OH253326   3.311   5.410  12.736 -0.3950 -0.1800  0.0370
10612TIP3    H153327   3.324   5.393  12.643 -1.8946  0.5008 -0.3413
10612TIP3    H253328   3.399   5.425  12.771  0.0686  1.9702 -1.7914
10613TIP3   OH253329   5.462   3.624  14.503 -0.4449 -0.1810  0.1209
10613TIP3    H153330   5.547   3.662  14.480 -0.2509  0.2723  1.5427
10613TIP3    H253331   5.415   3.621  14.420  1.2558 -1.2275 -0.8648
10614TIP3   OH253332   4.873   4.072  12.164 -0.1719  0.3642  0.3781
10614TIP3    H153333   4.818   4.150  12.162 -0.3999  0.1864 -1.6207
10614TIP3    H253334   4.812   3.999  12.168 -0.0658  0.1986 -0.8589
10615TIP3   OH253335   0.849   6.206   1.305 -0.3840  0.1355 -0.5104
10615TIP3    H153336   0.859   6.287   1.354 -1.7683  0.2094 -0.3034
10615TIP3    H253337   0.833   6.139   1.372 -0.8682 -0.0113 -0.7678
10616TIP3   OH253338   2.798   5.499  16.728  0.4177 -0.0503  0.2003
10616TIP3    H153339   2.800   5.439  16.654 -1.4888 -0.7750  0.6962
10616TIP3    H253340   2.742   5.457  16.793  1.9418  0.6039  2.0539
10617TIP3   OH253341   2.704   5.922  12.739  0.5178 -0.7048 -0.2445
10617TIP3    H153342   2.675   5.874  12.817  1.6298 -0.4609  0.3384
10617TIP3    H253343   2.799   5.912  12.739  0.5277 -0.7600 -1.6276
10618TIP3   OH253344   5.369   2.035   3.363  0.4380  0.0221 -0.0592
10618TIP3    H153345   5.306   2.056   3.294  0.7356  2.4327  0.3262
10618TIP3    H253346   5.454   2.037   3.321  0.4268 -1.6816 -0.2421
10619TIP3   OH253347   5.756   3.838  16.467 -0.3391  0.6965 -0.3878
10619TIP3    H153348   5.737   3.796  16.551 -1.0461  1.0385 -0.3665
10619TIP3    H253349   5.704   3.788  16.404  1.5800 -0.7379 -0.9413
10620TIP3   OH253350   0.932   1.048   0.097  0.7111 -0.1796  0.2922
10620TIP3    H153351   0.948   1.107   0.171  1.0354  1.2960 -0.9039
10620TIP3    H253352   0.862   0.990   0.127 -0.4063  1.5339  1.1572
10621TIP3   OH253353   1.709   2.486   5.975  0.3077 -0.1793  0.0089
10621TIP3    H153354   1.727   2.570   6.018 -0.4310  0.0284 -0.0691
10621TIP3    H253355   1.793   2.441   5.975  1.3626  1.5656 -2.1822
10622TIP3   OH253356   6.451   0.313  14.144 -0.0982  0.5864  0.2984
10622TIP3    H153357   6.373   0.303  14.199 -0.6223  2.1467 -0.0852
10622TIP3    H253358   6.506   0.375  14.192  0.6939 -0.1279  0.3299
10623TIP3   OH253359   4.163   4.514   3.561  0.1237  0.5839  0.0653
10623TIP3    H153360   4.148   4.604   3.589  1.2824  0.2550  1.8505
10623TIP3    H253361   4.116   4.461   3.625  0.5449 -0.1174 -0.2007
10624TIP3   OH253362   5.949   2.005  13.196 -0.0164 -0.4241  0.2887
10624TIP3    H153363   5.939   2.095  13.227 -1.9089  0.1273 -1.6068
10624TIP3    H253364   5.916   2.008  13.106  2.0888 -2.5464 -0.6402
10625TIP3   OH253365   0.421   0.548   0.054 -0.4668 -0.3450 -0.5106
10625TIP3    H153366   0.498   0.547  -0.003  0.1007 -1.1631  0.2420
10625TIP3    H253367   0.456   0.549   0.142 -1.3183 -1.2596 -0.1460
10626TIP3   OH253368   6.372   2.764   1.034 -0.0449 -0.0886  0.4436
10626TIP3    H153369   6.427   2.841   1.050  1.4659 -0.8343 -0.8767
10626TIP3    H253370   6.424   2.691   1.067 -1.2089 -0.6264  1.1389
10627TIP3   OH253371   6.529   5.463  14.657  0.3960  0.4996  0.4769
10627TIP3    H153372   6.583   5.538  14.682 -1.1720  1.4241  1.2544
10627TIP3    H253373   6.590   5.389  14.656  2.0938  1.8355 -0.8134
10628TIP3   OH253374   4.651   6.561  13.764  0.3720  0.0572  0.0172
10628TIP3    H153375   4.624   6.470  13.776  1.0558 -0.2663 -0.8388
10628TIP3    H253376   4.746   6.560  13.776  0.4325  0.5944 -0.3847
10629TIP3   OH253377   6.288   5.241   1.886  0.1090  0.6238  0.6342
10629TIP3    H153378   6.218   5.218   1.825  0.8695  0.0600 -0.0488
10629TIP3    H253379   6.353   5.171   1.876  1.2200  1.6254  0.5252
10630TIP3   OH253380   4.429   3.223   2.252 -0.1595  0.0291  0.3962
10630TIP3    H153381   4.360   3.220   2.186  1.5161 -1.0061 -1.3888
10630TIP3    H253382   4.412   3.148   2.309 -2.0614  1.3617  1.7407
10631TIP3   OH253383   5.257   1.571  16.443 -0.1810 -0.2537  0.0913
10631TIP3    H153384   5.249   1.662  16.415 -0.6185 -0.1312  0.6026
10631TIP3    H253385   5.169   1.535  16.434 -0.4898 -0.0286  1.9079
10632TIP3   OH253386   6.169   1.681   1.844  0.9844  0.0927  0.1361
10632TIP3    H153387   6.137   1.759   1.889 -1.4826  0.5020 -2.1031
10632TIP3    H253388   6.242   1.712   1.791  1.2524  0.4482  0.7005
10633TIP3   OH253389   3.908   5.404   2.277  0.0033  0.0724  0.0489
10633TIP3    H153390   3.872   5.316   2.272 -1.7079  0.6724  0.8937
10633TIP3    H253391   3.988   5.401   2.224  0.9190 -2.3934  1.4507
10634TIP3   OH253392   1.096   4.275   3.410 -0.7839  0.4388  0.0243
10634TIP3    H153393   1.128   4.187   3.427  1.1443  1.2084  0.6512
10634TIP3    H253394   1.149   4.306   3.336  0.6543  2.0458  1.6124
10635TIP3   OH253395   5.549   4.575  12.620  0.2545  0.1996  0.1075
10635TIP3    H153396   5.503   4.604  12.699 -0.2861  1.1396 -0.5367
10635TIP3    H253397   5.483   4.530  12.568  0.4833  0.0437 -0.0540
10636TIP3   OH253398   0.929   2.030  14.999 -0.1852  0.9479 -0.2284
10636TIP3    H153399   1.003   2.060  14.946 -0.4082  0.8802 -0.5743
10636TIP3    H253400   0.954   2.053  15.089  1.7942 -2.0058  0.1295
10637TIP3   OH253401   2.261   0.114  15.283 -0.0985  0.6943 -0.2927
10637TIP3    H153402   2.175   0.156  15.289 -1.0395 -1.1954  0.1060
10637TIP3    H253403   2.306   0.142  15.363 -0.8035  0.7640  0.0949
10638TIP3   OH253404   5.703   5.821   1.509  0.1275  0.7298 -0.5105
10638TIP3    H153405   5.734   5.824   1.599  2.5104  0.4848 -1.2385
10638TIP3    H253406   5.765   5.762   1.465 -1.6393 -0.0610 -2.0788
10639TIP3   OH253407   3.380   2.823   1.596 -0.1160  0.0241  0.1141
10639TIP3    H153408   3.468   2.802   1.627  0.2573 -0.6208 -1.2844
10639TIP3    H253409   3.322   2.770   1.651  0.5361 -1.2836 -0.4048
10640TIP3   OH253410   1.803   2.622   5.164  0.0365 -0.1480 -0.4459
10640TIP3    H153411   1.858   2.695   5.134 -1.1947  1.1144  0.2575
10640TIP3    H253412   1.865   2.552   5.184  1.6668  1.8462  2.1444
10641TIP3   OH253413   4.418   1.175  14.199  0.1363 -0.1010  0.8637
10641TIP3    H153414   4.348   1.127  14.155 -1.1477  1.4204  1.1426
10641TIP3    H253415   4.482   1.108  14.223 -0.8137 -1.4269 -0.1512
10642TIP3   OH253416   4.499   1.103  12.603  0.0682  0.6014  0.0254
10642TIP3    H153417   4.575   1.144  12.644 -0.9544  2.1782  0.4484
10642TIP3    H253418   4.470   1.038  12.667  1.5108 -0.6272 -0.5023
10643TIP3   OH253419   4.831   6.195  11.989 -0.0538 -0.1839  0.4767
10643TIP3    H153420   4.885   6.117  11.996  0.9023  0.3580 -0.5644
10643TIP3    H253421   4.889   6.267  12.016 -1.1286  0.1227  2.1473
10644TIP3   OH253422   6.241   2.320   3.877 -0.5198  0.2527 -0.1376
10644TIP3    H153423   6.186   2.370   3.818 -1.1100  0.6075  0.6989
10644TIP3    H253424   6.182   2.287   3.945  0.5199  2.3624  1.9510
10645TIP3   OH253425   4.858   4.803  15.797  0.5114  0.3228 -0.4685
10645TIP3    H153426   4.892   4.741  15.733  1.3161 -0.5907  0.7775
10645TIP3    H253427   4.832   4.748  15.871 -0.9082  1.2955 -0.2192
10646TIP3   OH253428   6.780   4.932  13.176  0.1461  0.0406  0.5566
10646TIP3    H153429   6.829   4.933  13.094  3.3198 -0.7870  2.2916
10646TIP3    H253430   6.755   5.023  13.191 -1.1906  0.0983 -1.6172
10647TIP3   OH253431   3.260   4.454  15.449  0.2472 -0.4935  0.2627
10647TIP3    H153432   3.284   4.545  15.429  2.0125 -0.6863  1.2434
10647TIP3    H253433   3.178   4.461  15.497 -0.8208  0.3882 -1.5956
10648TIP3   OH253434   0.975   0.087  11.635 -0.6286 -0.2801 -0.0302
10648TIP3    H153435   1.056   0.109  11.589  1.5032  0.9264  3.8520
10648TIP3    H253436   0.934   0.172  11.653 -0.9458 -0.6132  0.8935
10649TIP3   OH253437   4.087   6.112   3.973  0.0847 -0.0100 -0.6376
10649TIP3    H153438   4.144   6.186   3.957  0.2039  0.6405  2.3057
10649TIP3    H253439   4.146   6.039   3.992  0.0427  0.3963  1.2966
10650TIP3   OH253440   6.453   6.235  16.501  0.5353  0.1905  0.3942
10650TIP3    H153441   6.527   6.263  16.555  0.9182  0.0945 -0.0708
10650TIP3    H253442   6.412   6.165  16.552  1.7243 -0.8747 -0.0333
10651TIP3   OH253443   0.532   4.631  11.761 -0.7471 -0.0817 -0.3179
10651TIP3    H153444   0.449   4.584  11.773 -1.3730  1.1418  0.3028
10651TIP3    H253445   0.521   4.713  11.810 -0.0052  1.0988 -2.0333
10652TIP3   OH253446   5.773   0.952   5.103  0.5794 -0.2834  0.0537
10652TIP3    H153447   5.747   0.860   5.112 -1.3827  0.0231 -1.7990
10652TIP3    H253448   5.855   0.958   5.153  0.6669 -2.9703  0.3970
10653TIP3   OH253449   1.448   2.056   3.939  0.4490 -0.0764 -0.0874
10653TIP3    H153450   1.428   1.973   3.894 -1.0204 -0.2490  0.8078
10653TIP3    H253451   1.482   2.029   4.024  0.2307  0.2379  0.1008
10654TIP3   OH253452   1.991   0.565  13.905  0.2406 -0.1713 -0.1827
10654TIP3    H153453   2.050   0.632  13.869 -0.8196  1.5280  1.0864
10654TIP3    H253454   1.908   0.611  13.917 -0.4754 -1.6796  0.9379
10655TIP3   OH253455   5.956   1.382   3.506  0.5382  0.0550 -0.5390
10655TIP3    H153456   6.007   1.460   3.529  0.9757 -0.2206 -0.5601
10655TIP3    H253457   5.875   1.416   3.469  0.2376  0.5097  0.5015
10656TIP3   OH253458   5.328   2.196   2.620  0.2479 -0.4401  0.4722
10656TIP3    H153459   5.368   2.157   2.542  0.9061 -0.6534  0.9123
10656TIP3    H253460   5.271   2.128   2.655  1.3696 -1.0227  1.2208
10657TIP3   OH253461   4.836   1.449  14.977  0.1737 -0.0881  0.3311
10657TIP3    H153462   4.838   1.371  14.921  0.7967 -0.8377  1.3605
10657TIP3    H253463   4.840   1.522  14.915  3.0154 -0.8968 -0.6052
10658TIP3   OH253464   1.371   0.096  15.619  0.0397 -0.2927 -0.2353
10658TIP3    H153465   1.345   0.115  15.529 -1.1652 -2.4339 -0.4254
10658TIP3    H253466   1.312   0.025  15.646  1.6429 -1.0275  1.5711
10659TIP3   OH253467   3.151   4.169  15.504 -0.0889 -0.6321  0.4894
10659TIP3    H153468   3.106   4.147  15.422 -0.6416 -1.3821  0.9855
10659TIP3    H253469   3.155   4.265  15.505 -0.9664 -0.5852  0.0620
10660TIP3   OH253470   5.592   5.487  10.557 -0.2375  0.6465 -0.3769
10660TIP3    H153471   5.580   5.401  10.599 -0.7573  0.7331 -0.3465
10660TIP3    H253472   5.624   5.543  10.628 -0.3495  0.5945 -0.2838
10661TIP3   OH253473   6.764   3.317  13.769 -0.3555 -0.3450 -0.3759
10661TIP3    H153474   6.841   3.267  13.794  0.8671  1.8518  0.5276
10661TIP3    H253475   6.737   3.279  13.685  2.2665 -0.6148 -1.1808
10662TIP3   OH253476   3.255   1.683   5.293 -0.0694  0.2119  0.4857
10662TIP3    H153477   3.275   1.591   5.313  0.0644 -0.1461 -1.1409
10662TIP3    H253478   3.314   1.733   5.349  0.1555 -0.6978  1.0956
10663TIP3   OH253479   1.682   6.568   0.258  0.0925 -0.5318 -0.7319
10663TIP3    H153480   1.767   6.596   0.223  2.1953 -0.5256  3.6054
10663TIP3    H253481   1.657   6.639   0.318 -2.9361 -0.6719 -1.6838
10664TIP3   OH253482   2.129   4.626  16.676  0.3466  0.2826  0.4736
10664TIP3    H153483   2.184   4.619  16.754  1.0019  0.0708  0.0070
10664TIP3    H253484   2.106   4.719  16.672  0.6267  0.3667  0.7108
10665TIP3   OH253485   2.894   5.515  14.053  0.1792  0.0522 -0.5079
10665TIP3    H153486   2.863   5.428  14.027 -0.7908 -0.2282  1.3951
10665TIP3    H253487   2.989   5.509  14.048  0.1020 -0.8325 -1.2076
10666TIP3   OH253488   5.453   1.299   3.405  0.3092  0.0163 -0.9274
10666TIP3    H153489   5.459   1.205   3.422  1.0182  0.1355 -0.4661
10666TIP3    H253490   5.455   1.338   3.492 -0.4050  0.4423 -1.0985
10667TIP3   OH253491   1.471   3.013   3.237  0.7681 -0.2937 -0.5738
10667TIP3    H153492   1.520   3.096   3.234  0.3850 -0.0953 -1.7790
10667TIP3    H253493   1.514   2.963   3.307 -1.0068  2.1405  2.5183
10668TIP3   OH253494   0.441   2.489   0.962 -0.0588  0.3586 -0.5316
10668TIP3    H153495   0.502   2.420   0.988 -0.7481  0.2855  0.9625
10668TIP3    H253496   0.394   2.452   0.888 -1.0792 -1.1951  0.8308
10669TIP3   OH253497   1.171   0.602  14.689  0.2407 -0.4050 -0.3087
10669TIP3    H153498   1.225   0.679  14.670  0.2427 -0.3127  0.0666
10669TIP3    H253499   1.154   0.564  14.603 -0.4193  0.4654 -0.5890
10670TIP3   OH253500   2.910   4.909  10.511 -0.1101 -0.2124 -0.2421
10670TIP3    H153501   2.896   4.899  10.417  0.8252 -1.0736 -0.3037
10670TIP3    H253502   2.845   4.973  10.538  1.0173  1.7470 -1.8733
10671TIP3   OH253503   1.888   1.813   2.748  0.0483  0.1297  0.2277
10671TIP3    H153504   1.844   1.781   2.827 -0.3919 -0.3954 -0.2168
10671TIP3    H253505   1.980   1.795   2.762 -0.1395 -0.8873  0.2100
10672TIP3   OH253506   0.074   5.481  14.038  0.0122  0.1206  0.6948
10672TIP3    H153507   0.109   5.407  14.089  1.5874  0.2665 -0.1136
10672TIP3    H253508  -0.016   5.489  14.067  0.3469 -0.9426  2.1580
10673TIP3   OH253509   5.684   4.169  12.134  0.3127  0.4838  0.3493
10673TIP3    H153510   5.612   4.133  12.185 -0.0323 -3.2059 -2.3595
10673TIP3    H253511   5.763   4.141  12.182 -0.0344 -0.2314  0.5247
10674TIP3   OH253512   2.285   3.122  12.441  0.4350  0.2085 -0.0950
10674TIP3    H153513   2.213   3.133  12.502  1.4419  0.8135  1.0172
10674TIP3    H253514   2.317   3.033  12.457 -0.6556 -0.4215 -1.2763
10675TIP3   OH253515   4.540   1.657  11.680 -0.6878  0.4269 -0.2772
10675TIP3    H153516   4.462   1.689  11.635 -1.0190  1.5179  1.0078
10675TIP3    H253517   4.606   1.725  11.668  0.0196 -0.3766 -1.1431
10676TIP3   OH253518   4.873   0.701  11.386  0.0591  0.0312  0.3060
10676TIP3    H153519   4.958   0.708  11.344 -0.6317 -0.1598 -1.1767
10676TIP3    H253520   4.893   0.689  11.479  1.6401 -0.1186 -0.0333
10677TIP3   OH253521   0.778   2.616   4.107  0.4134  0.0433  0.3028
10677TIP3    H153522   0.733   2.547   4.156 -0.1687 -0.4135 -0.8282
10677TIP3    H253523   0.856   2.573   4.071 -0.5730 -0.4244 -1.4243
10678TIP3   OH253524   4.418   3.994  14.181  0.2488 -0.5740  0.3783
10678TIP3    H153525   4.366   4.062  14.224  0.3241 -0.4639  0.2972
10678TIP3    H253526   4.360   3.958  14.114 -0.2510 -1.4943  1.2742
10679TIP3   OH253527   6.795   2.647   2.713 -0.2550 -0.2828  0.0127
10679TIP3    H153528   6.781   2.674   2.622 -1.5156  0.3324  0.3612
10679TIP3    H253529   6.716   2.596   2.734 -0.6732  0.8169  1.2033
10680TIP3   OH253530   1.698   1.824  15.747  0.0565  0.3009  0.5938
10680TIP3    H153531   1.632   1.785  15.805 -0.8239  0.7702 -0.0792
10680TIP3    H253532   1.678   1.918  15.747 -0.1220  0.2822 -0.6634
10681TIP3   OH253533   4.547   4.307   3.807  0.1689 -0.5076  0.4778
10681TIP3    H153534   4.550   4.219   3.845  1.1648 -0.8030 -0.2253
10681TIP3    H253535   4.605   4.301   3.731 -2.3726 -0.1920 -1.6219
10682TIP3   OH253536   0.369   6.040  11.625  0.5835  0.0127  0.5008
10682TIP3    H153537   0.412   6.043  11.539 -0.0976 -0.2909  0.1341
10682TIP3    H253538   0.395   6.121  11.668  1.5852 -0.2055  0.3305
10683TIP3   OH253539   3.377   3.930   6.321  0.9643  0.1792  0.4233
10683TIP3    H153540   3.415   3.866   6.381  1.4034  0.3973  0.3795
10683TIP3    H253541   3.333   3.877   6.254 -1.4147 -0.0958  2.0647
10684TIP3   OH253542   6.496   2.446  14.375 -0.1529  0.3095 -0.2516
10684TIP3    H153543   6.578   2.479  14.338  0.9697 -0.7941  1.1142
10684TIP3    H253544   6.474   2.370  14.323  0.1622  0.1080 -0.0918
10685TIP3   OH253545   6.464   1.307  12.172  0.2502 -0.3061 -0.4677
10685TIP3    H153546   6.416   1.227  12.150 -0.6004  0.1352 -0.2556
10685TIP3    H253547   6.546   1.276  12.209  1.2384 -1.0792 -3.1194
10686TIP3   OH253548   2.726   1.541  12.715  0.1784  0.1172  0.2704
10686TIP3    H153549   2.642   1.495  12.719 -0.9541  2.1486  2.3685
10686TIP3    H253550   2.772   1.514  12.795 -0.2200  1.9241  1.1813
10687TIP3   OH253551   5.216   1.718  12.395 -0.5690  0.1793 -0.3763
10687TIP3    H153552   5.196   1.809  12.372 -2.4806 -0.4204 -1.2929
10687TIP3    H253553   5.173   1.704  12.479  0.5749  0.3735  0.2675
10688TIP3   OH253554   5.227   5.599   5.644  0.6188  0.0935 -0.3363
10688TIP3    H153555   5.222   5.602   5.548  1.1132  1.1350 -0.3384
10688TIP3    H253556   5.236   5.690   5.670 -0.4773 -0.0958  0.7699
10689TIP3   OH253557   2.171   3.334   5.194 -0.3066 -0.3423 -0.4742
10689TIP3    H153558   2.203   3.312   5.107 -2.6088 -1.5929 -1.0832
10689TIP3    H253559   2.210   3.268   5.252  0.3874 -0.1500 -0.7154
10690TIP3   OH253560   6.044   5.026   4.604  0.3140  0.3280 -0.0005
10690TIP3    H153561   5.997   5.015   4.521 -0.1218 -1.1023  0.4135
10690TIP3    H253562   6.015   5.111   4.637 -0.0139  0.6153 -0.9783
10691TIP3   OH253563   1.321   2.899   2.795 -0.3132  0.3699  0.1086
10691TIP3    H153564   1.245   2.880   2.851 -1.6794  1.5933 -1.2120
10691TIP3    H253565   1.320   2.829   2.729 -1.8750  1.6868 -1.3709
10692TIP3   OH253566   5.854   3.477   2.873 -0.4733 -0.0370 -0.0855
10692TIP3    H153567   5.839   3.387   2.844 -1.5164  0.5346 -1.3889
10692TIP3    H253568   5.932   3.471   2.929  0.0612 -1.5896 -0.9352
10693TIP3   OH253569   1.955   0.424   3.584 -0.2917 -0.1552 -0.2070
10693TIP3    H153570   2.037   0.438   3.630 -0.2710  2.1271 -0.7753
10693TIP3    H253571   1.949   0.330   3.570  0.6654 -0.7067  2.6162
10694TIP3   OH253572   5.818   4.534  16.468 -0.2120 -0.4950  0.4644
10694TIP3    H153573   5.810   4.486  16.551 -0.2879 -0.3210  0.5600
10694TIP3    H253574   5.728   4.559  16.446  0.0270  1.6789  1.6666
10695TIP3   OH253575   2.228   6.210   0.549 -0.5505 -0.4562 -0.1015
10695TIP3    H153576   2.200   6.266   0.476 -2.1127 -1.1608 -0.0815
10695TIP3    H253577   2.168   6.233   0.620  0.9720  0.2436  1.0018
10696TIP3   OH253578   2.744   1.953  11.585 -0.0560 -0.4119  0.0191
10696TIP3    H153579   2.754   1.876  11.529 -1.9238  0.2252 -1.2914
10696TIP3    H253580   2.684   1.925  11.654  1.0136 -0.7427  0.8348
10697TIP3   OH253581   0.328   6.770  17.194  0.5276  0.2774  0.0376
10697TIP3    H153582   0.246   6.764  17.145  1.1785 -0.6225 -0.9954
10697TIP3    H253583   0.390   6.807  17.132  0.6367  2.1636  1.2041
10698TIP3   OH253584   4.079   4.552   4.067  0.1723 -0.3590  0.1297
10698TIP3    H153585   4.052   4.521   3.981  0.8007 -0.5912  0.0061
10698TIP3    H253586   4.112   4.473   4.111  1.6509  0.0695 -0.1281
10699TIP3   OH253587   5.484   1.911   5.741  0.3673  0.0311  0.2034
10699TIP3    H153588   5.423   1.838   5.729 -0.6547  0.5606  1.9035
10699TIP3    H253589   5.528   1.919   5.656 -0.3784 -1.7577 -0.3953
10700TIP3   OH253590   2.739   2.926   1.706  0.1644  0.4789  0.0977
10700TIP3    H153591   2.647   2.912   1.729  0.6553 -1.5857  1.0664
10700TIP3    H253592   2.752   2.874   1.626  0.8539 -0.6487  0.9111
10701TIP3   OH253593   3.565   0.712   1.713  0.0778 -0.3263  0.2795
10701TIP3    H153594   3.508   0.771   1.664  1.3159  0.9459  0.3022
10701TIP3    H253595   3.515   0.631   1.722 -1.6125  0.6750  0.1369
10702TIP3   OH253596   4.097   6.746  12.848  0.6050 -0.1157  0.1088
10702TIP3    H153597   4.152   6.703  12.783 -2.2058 -1.3951 -1.6532
10702TIP3    H253598   4.106   6.840  12.829  1.1270 -0.3816 -1.0308
10703TIP3   OH253599   4.744   2.362   3.796  0.2781 -0.3645  0.3699
10703TIP3    H153600   4.755   2.430   3.730  2.0819 -0.4517  0.5420
10703TIP3    H253601   4.804   2.386   3.866  0.1913 -1.5785  0.8914
10704TIP3   OH253602   1.998   4.178  16.597  0.2746  0.3815  0.1445
10704TIP3    H153603   1.907   4.179  16.628 -0.0181  2.2762 -0.6350
10704TIP3    H253604   2.049   4.153  16.673 -0.7719  0.7712  0.9987
10705TIP3   OH253605   4.499   6.723   5.172  0.1496 -0.0299 -0.1328
10705TIP3    H153606   4.490   6.775   5.252 -0.3209  1.6289 -1.2205
10705TIP3    H253607   4.584   6.748   5.137 -0.7267  1.2150 -1.4618
10706TIP3   OH253608   4.376   3.307  13.742  0.7743  0.4542 -0.1121
10706TIP3    H153609   4.386   3.399  13.766 -0.3470  1.6542 -3.6899
10706TIP3    H253610   4.461   3.282  13.704  1.1627 -0.1241  1.0845
10707TIP3   OH253611   2.601   6.628  15.032  0.1735 -0.2120 -0.3904
10707TIP3    H153612   2.673   6.578  14.993  1.0089  0.4088  0.2946
10707TIP3    H253613   2.575   6.578  15.109  0.0836 -0.2777 -0.4634
10708TIP3   OH253614   2.395   3.130  16.295 -0.2182 -0.3682  0.1157
10708TIP3    H153615   2.450   3.059  16.328 -0.6084 -0.8700 -0.2852
10708TIP3    H253616   2.322   3.135  16.357 -0.0699 -0.1567  0.2737
10709TIP3   OH253617   2.568   4.864   4.078  0.1720  0.2764  0.3866
10709TIP3    H153618   2.597   4.841   3.990  0.9501  0.3961  0.6109
10709TIP3    H253619   2.603   4.951   4.093  0.9972 -0.1819  1.2335
10710TIP3   OH253620   3.323   0.421   3.653  0.2667  0.0643  0.2836
10710TIP3    H153621   3.319   0.457   3.565  0.2558 -0.2225  0.1636
10710TIP3    H253622   3.259   0.471   3.703  0.8781  0.8040  0.3461
10711TIP3   OH253623   2.356   1.744   2.169 -0.3962 -0.0920  0.1908
10711TIP3    H153624   2.431   1.795   2.139 -1.0277  0.3252 -0.7265
10711TIP3    H253625   2.282   1.804   2.162 -0.9444 -0.7397  0.3323
10712TIP3   OH253626   2.753   1.719  16.996 -0.2371  0.0920  0.1142
10712TIP3    H153627   2.711   1.647  17.044 -0.4472  0.1717  0.0483
10712TIP3    H253628   2.841   1.686  16.977 -0.2152 -0.0115  0.3929
10713TIP3   OH253629   1.181   1.755   2.810 -0.4082  0.0178  0.3095
10713TIP3    H153630   1.132   1.834   2.835  0.4661  0.5228  0.4844
10713TIP3    H253631   1.163   1.692   2.879 -1.4124 -0.0663 -0.0223
10714TIP3   OH253632   1.484   4.937  16.076  0.0426  0.5766  0.1783
10714TIP3    H153633   1.484   5.025  16.114  1.2289 -0.2800  2.3595
10714TIP3    H253634   1.553   4.891  16.123 -2.4138 -2.3621  1.1995
10715TIP3   OH253635   4.325   0.425   2.684 -0.4339  0.0881  0.4138
10715TIP3    H153636   4.321   0.492   2.752 -0.0060  0.8881 -0.3248
10715TIP3    H253637   4.373   0.466   2.612  2.1463 -1.8278  0.8661
10716TIP3   OH253638   4.587   0.582  13.280  0.3917 -0.0443  0.0288
10716TIP3    H153639   4.511   0.614  13.232 -0.1190 -2.0090 -0.5721
10716TIP3    H253640   4.552   0.558  13.366  0.6546  0.4554  0.2805
10717TIP3   OH253641   6.491   5.764  10.496  0.1873  0.0214 -1.0250
10717TIP3    H153642   6.574   5.796  10.460  0.7059 -0.5139 -0.3333
10717TIP3    H253643   6.467   5.828  10.563  1.2540 -0.9976  0.3973
10718TIP3   OH253644   6.501   1.035   6.384  0.1087  0.4318  0.0493
10718TIP3    H153645   6.584   1.057   6.341  0.7887 -1.0193  0.5553
10718TIP3    H253646   6.515   0.947   6.419 -1.9338 -0.1499 -0.5061
10719TIP3   OH253647   2.948   1.302  15.108  0.1944  0.3883 -0.5410
10719TIP3    H153648   2.963   1.382  15.159 -0.4425  2.0386 -2.7814
10719TIP3    H253649   2.916   1.334  15.024 -1.9627 -2.3368 -0.8660
10720TIP3   OH253650   4.507   6.548  16.370  0.1157  0.7176  0.1647
10720TIP3    H153651   4.527   6.541  16.463  0.1681  0.3664  0.1292
10720TIP3    H253652   4.588   6.578  16.330  0.8104 -1.3314 -0.0600
10721TIP3   OH253653   6.281   3.711   4.565  0.9270 -0.3384  0.1563
10721TIP3    H153654   6.244   3.657   4.635 -0.3140  0.2970  0.0137
10721TIP3    H253655   6.225   3.788   4.562  0.2298 -0.8471 -2.2947
10722TIP3   OH253656   3.785   0.789   5.813 -0.0795 -0.3151 -0.2781
10722TIP3    H153657   3.717   0.797   5.880 -0.3490  0.9289 -0.6748
10722TIP3    H253658   3.853   0.736   5.855  0.2703  1.3633  1.4068
10723TIP3   OH253659   3.345   3.783   6.596 -0.0379 -0.0548  0.4138
10723TIP3    H153660   3.434   3.789   6.564 -0.1132  0.0957  0.2329
10723TIP3    H253661   3.336   3.692   6.627  0.4569  0.1775  1.2729
10724TIP3   OH253662   1.175   1.296  13.010  0.3323 -0.1524  0.2092
10724TIP3    H153663   1.232   1.291  12.933  0.1962  0.2925  0.0763
10724TIP3    H253664   1.215   1.363  13.065  0.7919 -0.9220  0.8337
10725TIP3   OH253665   5.740   0.051  13.788  0.2590 -0.2084 -0.0651
10725TIP3    H153666   5.817   0.081  13.836 -0.3031  0.8370  0.2309
10725TIP3    H253667   5.731   0.114  13.716 -1.4810  0.9438  1.0964
10726TIP3   OH253668   4.343   3.196  16.081 -0.2855 -0.1307  0.4065
10726TIP3    H153669   4.375   3.280  16.047 -1.5858  0.1529 -0.1956
10726TIP3    H253670   4.352   3.136  16.007 -0.7333 -0.1490  0.3650
10727TIP3   OH253671   2.603   5.770   6.822  0.1447 -0.6258  0.2346
10727TIP3    H153672   2.543   5.813   6.761 -1.3403 -0.5601  1.6591
10727TIP3    H253673   2.546   5.720   6.880  1.7309 -4.0032 -0.8787
10728TIP3   OH253674   1.654   6.670   1.089  0.1324 -0.8636  0.0828
10728TIP3    H153675   1.649   6.766   1.093 -4.2314 -0.8972 -0.4586
10728TIP3    H253676   1.677   6.651   0.998 -1.3046 -0.3012 -0.4142
10729TIP3   OH253677   6.745   3.372  16.082  0.2295 -0.2229 -0.2535
10729TIP3    H153678   6.659   3.395  16.047  0.3935 -1.6099 -1.6867
10729TIP3    H253679   6.805   3.434  16.041 -0.0029  0.3714  0.2926
10730TIP3   OH253680   1.049   6.139  15.958  0.4889  0.1304  0.2750
10730TIP3    H153681   1.018   6.065  16.011 -0.6387 -0.3209 -0.9396
10730TIP3    H253682   1.119   6.102  15.904  1.1608  0.4196  0.9260
10731TIP3   OH253683   5.975   0.467   4.931  0.0809 -0.1347  0.3984
10731TIP3    H153684   5.921   0.409   4.878  1.5501 -1.7464  0.5675
10731TIP3    H253685   6.055   0.479   4.878  0.9895 -0.6356  1.6048
10732TIP3   OH253686   3.084   6.711   4.904 -0.0669 -0.2430  0.1395
10732TIP3    H153687   3.096   6.647   4.974 -1.9352 -0.2663  0.4919
10732TIP3    H253688   3.166   6.708   4.854  1.0558 -0.6914  1.9261
10733TIP3   OH253689   4.041   2.282   6.230 -0.1740 -0.4309 -0.3794
10733TIP3    H153690   4.063   2.192   6.207  0.8286 -0.0741 -0.8648
10733TIP3    H253691   3.968   2.274   6.292 -1.8410 -1.4755 -2.3746
10734TIP3   OH253692   2.860   1.378  13.861  0.8983 -0.2534 -0.4565
10734TIP3    H153693   2.874   1.304  13.920 -1.6974 -1.4059 -1.1044
10734TIP3    H253694   2.772   1.364  13.826  0.5506  2.8256 -1.1330
10735TIP3   OH253695   3.662   5.315   3.734  0.2729  0.1425  0.3665
10735TIP3    H153696   3.708   5.384   3.686 -1.6926  0.5171 -1.1380
10735TIP3    H253697   3.642   5.249   3.667 -0.3740 -0.5220  1.1921
10736TIP3   OH253698   2.191   4.365  14.880 -0.0758  0.3657  0.1161
10736TIP3    H153699   2.131   4.383  14.952 -1.7045  0.0184 -1.0882
10736TIP3    H253700   2.154   4.288  14.836  0.7144  0.7173 -1.2389
10737TIP3   OH253701   5.449   0.022  11.091 -0.4630 -0.3378  0.0630
10737TIP3    H153702   5.393   0.091  11.056  1.2830  0.4055 -1.3869
10737TIP3    H253703   5.516   0.009  11.025  1.4534 -0.7590  1.9794
10738TIP3   OH253704   3.341   0.385  12.871  0.1598  0.2941  0.4949
10738TIP3    H153705   3.323   0.298  12.836  0.3947  0.2930  0.3766
10738TIP3    H253706   3.383   0.432  12.799 -1.0010  0.8730  0.1840
10739TIP3   OH253707   4.342   3.854  14.877 -0.7560 -0.1840 -0.2190
10739TIP3    H153708   4.299   3.775  14.911  1.6728 -1.7018 -0.4006
10739TIP3    H253709   4.386   3.825  14.797  0.8948  1.0964  0.1616
10740TIP3   OH253710   4.040   4.988   4.783 -0.0760 -0.0172  0.3122
10740TIP3    H153711   3.948   5.006   4.806  0.4857 -1.1735  4.1233
10740TIP3    H253712   4.073   5.073   4.752 -2.3645  0.4237 -1.2320
10741TIP3   OH253713   5.317   3.892  10.457  0.0656 -0.2916  0.7544
10741TIP3    H153714   5.337   3.977  10.419 -1.6611  1.5292  3.5129
10741TIP3    H253715   5.403   3.853  10.475  0.8857  0.4109 -1.3963
10742TIP3   OH253716   3.530   3.753  13.999  0.1929 -0.0448  0.0865
10742TIP3    H153717   3.565   3.726  13.914  0.2914 -0.0301  0.1226
10742TIP3    H253718   3.546   3.678  14.056  0.6743  0.1797  0.2461
10743TIP3   OH253719   1.726   3.127   1.151 -0.4019 -0.0031  0.2151
10743TIP3    H153720   1.704   3.217   1.129 -0.3266 -0.6209 -2.8787
10743TIP3    H253721   1.650   3.076   1.123 -0.6476 -0.9319  2.3576
10744TIP3   OH253722   6.182   4.401  11.787 -0.5518  0.1315 -0.1504
10744TIP3    H153723   6.273   4.428  11.800 -1.1004  1.8993  0.3421
10744TIP3    H253724   6.188   4.320  11.738  1.2485  1.5781 -2.5342
10745TIP3   OH253725   1.152   2.959  14.125  0.0876  0.0381  0.0460
10745TIP3    H153726   1.145   2.906  14.204  0.3353 -0.5327 -0.3165
10745TIP3    H253727   1.235   2.934  14.085 -0.7549 -0.8410 -1.2301
10746TIP3   OH253728   1.072   5.920  17.007  0.2984  0.4122  0.2041
10746TIP3    H153729   1.024   5.987  16.958 -0.4634 -0.8232 -0.7860
10746TIP3    H253730   1.163   5.948  17.003 -0.0584  1.6792  0.2985
10747TIP3   OH253731   2.878   4.272  15.485  0.0226 -0.4136  0.4308
10747TIP3    H153732   2.815   4.218  15.533 -1.2531 -0.5031 -1.2645
10747TIP3    H253733   2.865   4.360  15.520 -0.7592 -0.5024  0.3819
10748TIP3   OH253734   2.815   0.822   3.438 -0.1922 -0.6334  0.0278
10748TIP3    H153735   2.799   0.735   3.475  1.2141 -0.7124  0.5000
10748TIP3    H253736   2.794   0.812   3.345 -1.5258 -1.0510  0.3574
10749TIP3   OH253737   3.816   3.456  15.495  0.2432 -0.0452  0.0458
10749TIP3    H153738   3.806   3.501  15.579 -0.3864 -2.0911  1.1288
10749TIP3    H253739   3.735   3.474  15.449 -0.3082 -0.6531  0.7658
10750TIP3   OH253740   1.105   0.955  17.233  0.4469  0.9786 -0.1071
10750TIP3    H153741   1.089   0.860  17.229  1.4050  0.6633  1.9234
10750TIP3    H253742   1.032   0.989  17.285  1.1915  0.9821  0.9869
10751TIP3   OH253743   0.177   4.707   3.518  0.2866  0.0088  0.3353
10751TIP3    H153744   0.125   4.635   3.482  1.4317 -0.7433  0.1263
10751TIP3    H253745   0.165   4.779   3.456 -0.0104 -0.3556 -0.0351
10752TIP3   OH253746   2.050   2.084   3.315 -0.4929 -0.3056 -0.2987
10752TIP3    H153747   2.045   2.162   3.259  0.6145  0.1364  0.1808
10752TIP3    H253748   2.119   2.031   3.277  0.6062  0.2210  0.8625
10753TIP3   OH253749   1.741   3.016   5.579  0.9102  0.5264  0.0395
10753TIP3    H153750   1.729   2.934   5.531  2.2507 -0.1802  0.8429
10753TIP3    H253751   1.659   3.063   5.568  0.4369 -0.5344 -1.1833
10754TIP3   OH253752   6.584   5.490  11.873  0.1104  0.2216 -0.3535
10754TIP3    H153753   6.561   5.564  11.817  1.7775  0.1097 -1.2538
10754TIP3    H253754   6.554   5.515  11.960 -0.3111  1.4920 -0.8415
10755TIP3   OH253755   2.749   5.020  16.115 -0.4279  0.9972 -0.3293
10755TIP3    H153756   2.728   5.023  16.022  0.8117 -0.2799 -0.6746
10755TIP3    H253757   2.683   4.961  16.152  0.3633 -0.1914 -0.7856
10756TIP3   OH253758   1.696   5.795  13.669  0.2803  0.1311  0.0148
10756TIP3    H153759   1.638   5.783  13.744 -1.1533  0.1659 -1.0422
10756TIP3    H253760   1.737   5.710  13.657 -0.1465 -0.1235  0.3092
10757TIP3   OH253761   0.987   5.384  12.878 -0.7911 -0.4357  0.1228
10757TIP3    H153762   0.960   5.406  12.968  2.0687  1.8238  0.5850
10757TIP3    H253763   0.951   5.454  12.824  0.3578  0.1771  0.1071
10758TIP3   OH253764   0.494   4.838  13.146 -0.0373 -0.4687 -0.0923
10758TIP3    H153765   0.399   4.821  13.150  0.1218 -1.5111 -0.5335
10758TIP3    H253766   0.533   4.752  13.137  0.9467 -0.0111 -0.2822
10759TIP3   OH253767   1.283   2.400  15.968 -0.1094 -0.9230  0.1352
10759TIP3    H153768   1.283   2.494  15.986  0.1007 -0.9488  0.2718
10759TIP3    H253769   1.341   2.363  16.034  1.1854 -0.9554 -0.9807
10760TIP3   OH253770   5.677   4.451   4.536 -0.1966  0.2549  0.0139
10760TIP3    H153771   5.651   4.455   4.628  0.2433  0.3262  0.1385
10760TIP3    H253772   5.639   4.530   4.497 -3.0923 -1.2937 -0.6064
10761TIP3   OH253773   1.238   1.261   1.699  0.1730  0.2845  0.1055
10761TIP3    H153774   1.283   1.292   1.777 -0.0851 -3.0276  1.7332
10761TIP3    H253775   1.187   1.336   1.669 -0.2788  1.5091  3.5427
10762TIP3   OH253776   4.553   5.951  13.288 -0.2255 -0.0562  0.2681
10762TIP3    H153777   4.501   5.935  13.367 -0.2317 -0.0938  0.2563
10762TIP3    H253778   4.626   5.889  13.294 -0.0125  0.2043  0.4409
10763TIP3   OH253779   6.226   1.770   3.900 -0.4119  0.4385  0.2094
10763TIP3    H153780   6.253   1.764   3.991 -0.0811 -1.3938  0.0157
10763TIP3    H253781   6.266   1.851   3.869 -0.2073  0.8851  1.5707
10764TIP3   OH253782   0.138   3.099  16.749 -0.4362  0.4683 -0.6755
10764TIP3    H153783   0.154   3.023  16.693  1.5168  1.2477 -1.2538
10764TIP3    H253784   0.050   3.085  16.784  0.2308 -2.5622  0.0460
10765TIP3   OH253785   3.236   0.787   0.090  0.0215 -0.2831 -1.2149
10765TIP3    H153786   3.219   0.869   0.043  1.2830 -1.3301 -3.7128
10765TIP3    H253787   3.173   0.725   0.052  1.0548 -1.1579 -1.5360
10766TIP3   OH253788   0.264   3.696  13.921 -0.6653  0.7961  0.0374
10766TIP3    H153789   0.223   3.698  13.835  0.6112  0.8327 -0.5913
10766TIP3    H253790   0.340   3.753  13.913 -0.5983  0.9051  1.2360
10767TIP3   OH253791   6.689   5.797   6.129 -0.2910  0.3122  0.0459
10767TIP3    H153792   6.677   5.766   6.040 -1.5949  1.7552 -0.3143
10767TIP3    H253793   6.683   5.718   6.183  2.8004 -0.9677 -1.2128
10768TIP3   OH253794   6.387   1.469   4.044 -0.7748  0.2291 -0.7895
10768TIP3    H153795   6.293   1.452   4.039 -0.5647 -1.7480  0.8305
10768TIP3    H253796   6.428   1.383   4.036  0.7655  0.7685  0.7538
10769TIP3   OH253797   6.115   1.397   4.019  0.7640 -0.3626 -0.1691
10769TIP3    H153798   6.103   1.305   3.996 -1.1422 -0.3037  0.4296
10769TIP3    H253799   6.134   1.440   3.936 -0.2708 -1.0064 -0.7506
10770TIP3   OH253800   0.934   4.271  12.479  0.5066  0.5715  0.1054
10770TIP3    H153801   0.852   4.222  12.489 -0.3108  2.0514  1.1713
10770TIP3    H253802   0.970   4.277  12.568  0.1977  2.4356  0.1607
10771TIP3   OH253803   5.860   3.804  13.207  0.1146 -0.1326  0.2741
10771TIP3    H153804   5.807   3.743  13.258  1.3648 -0.4869  1.2139
10771TIP3    H253805   5.837   3.786  13.116 -0.2499 -1.3354  0.5873
10772TIP3   OH253806   2.614   0.486   5.068  0.2686  0.0347 -0.0722
10772TIP3    H153807   2.582   0.525   4.986  1.7115  1.0089 -0.2197
10772TIP3    H253808   2.677   0.420   5.040  0.3156 -0.0521  0.2403
10773TIP3   OH253809   1.165   3.898   3.904 -0.4779 -0.0472  0.5817
10773TIP3    H153810   1.232   3.936   3.961  1.5666 -1.9652 -0.4200
10773TIP3    H253811   1.114   3.840   3.961 -0.6146  0.5868  1.1171
10774TIP3   OH253812   5.963   4.370   5.352  0.4047  0.4214  0.4057
10774TIP3    H153813   5.934   4.318   5.277  0.0449  0.7324  0.3258
10774TIP3    H253814   5.885   4.418   5.380  0.5332  0.2953  0.9917
10775TIP3   OH253815   4.434   1.071  15.132 -0.1634 -0.2848  0.1939
10775TIP3    H153816   4.524   1.057  15.160  0.2127 -0.2645 -0.9517
10775TIP3    H253817   4.383   1.006  15.181  0.2678  0.6051  1.8714
10776TIP3   OH253818   0.946   2.864  12.557 -0.6433 -0.6646  0.0375
10776TIP3    H153819   0.989   2.949  12.546  0.6059 -1.3865 -0.7809
10776TIP3    H253820   0.852   2.884  12.551 -0.3239  0.3907 -2.2037
10777TIP3   OH253821   2.713   1.679   5.633 -0.0837 -1.1924 -0.2882
10777TIP3    H153822   2.807   1.696   5.629 -0.2268 -0.5245 -1.1644
10777TIP3    H253823   2.695   1.663   5.726  0.3251  2.2425  0.5047
10778TIP3   OH253824   5.925   0.423  12.839  0.4960  0.1123  0.6459
10778TIP3    H153825   5.850   0.398  12.895  0.7689  0.1115  1.0157
10778TIP3    H253826   5.891   0.415  12.750  0.4358 -1.1798  0.7589
10779TIP3   OH253827   1.287   5.546  11.651  0.3874 -0.5003  0.3528
10779TIP3    H153828   1.291   5.610  11.722  1.1123  1.4606 -1.3585
10779TIP3    H253829   1.375   5.511  11.646  0.0220 -1.6151  1.2040
10780TIP3   OH253830   5.669   0.680  15.442 -0.2978  0.1865  0.0863
10780TIP3    H153831   5.607   0.752  15.428  0.1705  0.4779 -0.5296
10780TIP3    H253832   5.698   0.692  15.532 -0.3738  0.6573  0.0543
10781TIP3   OH253833   0.314   5.780   6.182 -0.3458  0.3357 -0.3314
10781TIP3    H153834   0.321   5.855   6.241  3.2062 -1.0732  1.3815
10781TIP3    H253835   0.255   5.720   6.227 -2.5575  1.6695 -1.3186
10782TIP3   OH253836   0.297   6.326  11.700 -0.3815 -0.0473  0.6156
10782TIP3    H153837   0.292   6.411  11.743  1.1517  0.3308  0.0941
10782TIP3    H253838   0.357   6.339  11.627 -1.0559 -1.2828 -0.2033
10783TIP3   OH253839   3.985   6.670   4.098  0.3422  0.0941  0.6869
10783TIP3    H153840   4.006   6.624   4.179  1.4773  0.0445  0.3756
10783TIP3    H253841   4.059   6.653   4.040  0.4568  1.7258  0.3146
10784TIP3   OH253842   0.975   5.135  16.949  0.3804 -0.3668 -0.0250
10784TIP3    H153843   1.022   5.210  16.987  0.4685  1.0946 -2.7939
10784TIP3    H253844   0.882   5.153  16.968  0.5619 -0.9121  1.5015
10785TIP3   OH253845   5.914   4.856  12.650 -0.2749  0.5017 -0.4096
10785TIP3    H153846   5.928   4.880  12.742 -1.5977  0.2937 -0.1346
10785TIP3    H253847   5.984   4.901  12.603  0.4707  0.5526  0.7030
10786TIP3   OH253848   5.683   1.258   5.798 -0.3181 -0.0527  0.4299
10786TIP3    H153849   5.623   1.314   5.846 -0.5233 -0.9814  1.2943
10786TIP3    H253850   5.700   1.305   5.716 -2.1927  0.2502  0.1709
10787TIP3   OH253851   3.125   5.465   2.049 -0.0497  0.1556 -0.0662
10787TIP3    H153852   3.141   5.449   2.142  1.0042  1.4473  0.0029
10787TIP3    H253853   3.184   5.404   2.004  0.1014  0.1567  0.1262
10788TIP3   OH253854   2.711   5.961   1.541  0.0383 -0.0466 -0.6039
10788TIP3    H153855   2.663   6.026   1.490 -1.1993 -1.3678 -1.2013
10788TIP3    H253856   2.781   5.932   1.483 -0.2259 -0.2012 -0.8501
10789TIP3   OH253857   0.900   0.045  15.665  0.0742  0.2561 -0.2120
10789TIP3    H153858   0.843   0.080  15.734  1.8455  1.8339  0.5334
10789TIP3    H253859   0.972   0.003  15.713  2.6262  3.4632 -0.8858
10790TIP3   OH253860   5.608   4.559   1.576 -0.0050  0.0701  0.2444
10790TIP3    H153861   5.641   4.578   1.487 -1.2080  0.6956 -0.0917
10790TIP3    H253862   5.611   4.464   1.583  0.7267  0.0519 -0.2207
10791TIP3   OH253863   0.935   2.464  12.856 -0.0130 -0.4080  0.9340
10791TIP3    H153864   0.983   2.539  12.892  2.9516 -1.7106  0.0480
10791TIP3    H253865   0.940   2.475  12.761 -1.9664 -0.3596  0.8083
10792TIP3   OH253866   5.685   5.138  17.299  0.0666 -0.3357 -0.1465
10792TIP3    H153867   5.732   5.188  17.233  0.7293 -0.2255  0.4072
10792TIP3    H253868   5.751   5.082  17.340 -0.0599  0.5236  1.3117
10793TIP3   OH253869   6.577   0.412  13.142 -0.1780 -0.3256  0.2292
10793TIP3    H153870   6.663   0.444  13.114 -0.0289 -1.6552 -0.9832
10793TIP3    H253871   6.569   0.439  13.233  1.6009 -0.3081  0.4024
10794TIP3   OH253872   6.479   0.905   5.638 -0.4668 -0.0079 -0.4331
10794TIP3    H153873   6.443   0.982   5.683  0.9864  1.0761 -1.0488
10794TIP3    H253874   6.492   0.840   5.708 -1.2473  0.4774  0.1783
10795TIP3   OH253875   5.380   1.526   4.303 -0.4848  0.1855  0.1210
10795TIP3    H153876   5.438   1.579   4.248  0.4842 -0.1797  0.7585
10795TIP3    H253877   5.363   1.580   4.379  0.9448 -0.5664  1.0282
10796TIP3   OH253878   2.208   1.735   2.391  0.4278 -0.4172  0.1354
10796TIP3    H153879   2.163   1.814   2.362  1.6431  1.1056  2.1539
10796TIP3    H253880   2.256   1.705   2.313 -1.5069 -0.3149 -1.1787
10797TIP3   OH253881   0.716   6.334  12.422  0.1572 -0.4148  0.6505
10797TIP3    H153882   0.755   6.398  12.363 -0.0286 -0.9515 -0.0766
10797TIP3    H253883   0.787   6.272  12.440  0.0182 -0.6513  0.3999
10798TIP3   OH253884   0.397   2.414  12.873 -0.1259  0.3888 -0.1116
10798TIP3    H153885   0.390   2.353  12.799 -0.5728 -0.3379  0.5156
10798TIP3    H253886   0.324   2.391  12.930  0.2806  0.8690  0.6197
10799TIP3   OH253887   1.771   1.965   0.068  0.1368  0.0528 -0.1460
10799TIP3    H153888   1.700   1.909   0.098  0.5526 -0.4287 -0.0634
10799TIP3    H253889   1.841   1.905   0.043  1.0613  0.5486  1.1198
10800TIP3   OH253890   0.078   4.603  13.869 -0.1877  0.0779 -0.4915
10800TIP3    H153891   0.006   4.546  13.895 -0.0143 -1.0633 -2.3431
10800TIP3    H253892   0.065   4.618  13.775  1.6503  0.3106 -0.7562
10801TIP3   OH253893   4.095   4.441   0.488 -0.5201  0.4324  0.5517
10801TIP3    H153894   4.053   4.360   0.517  2.1247 -1.2474  0.0860
10801TIP3    H253895   4.167   4.454   0.550  0.2913  1.2983 -0.5322
10802TIP3   OH253896   5.136   1.088  12.343 -0.2364 -0.0637  0.1569
10802TIP3    H153897   5.065   1.150  12.326  1.7676  2.1273 -0.9012
10802TIP3    H253898   5.163   1.058  12.256  0.4664 -0.4361  0.4936
10803TIP3   OH253899   5.010   5.394   2.558 -0.4674 -0.2145  0.8506
10803TIP3    H153900   4.949   5.384   2.484  0.2408 -1.7836  0.4313
10803TIP3    H253901   5.072   5.322   2.547 -0.2185 -0.3552  2.8654
10804TIP3   OH253902   3.048   4.979  14.537 -0.2886  0.2269  0.4375
10804TIP3    H153903   3.057   5.074  14.544  0.5424  0.1511  0.4406
10804TIP3    H253904   3.136   4.948  14.515 -0.6215 -0.5134  0.1270
10805TIP3   OH253905   4.884   2.976  13.767 -0.3451 -0.0413 -0.0251
10805TIP3    H153906   4.811   2.922  13.736  0.2422 -0.5577 -0.5450
10805TIP3    H253907   4.856   3.010  13.852  0.0015 -2.7466  1.2625
10806TIP3   OH253908   6.275   1.441  12.012  0.8696  0.5840  0.2908
10806TIP3    H153909   6.329   1.368  12.041  0.7707  0.3087 -0.1975
10806TIP3    H253910   6.318   1.474  11.933  0.1393  0.1120 -0.3298
10807TIP3   OH253911   0.324   1.741  16.863  0.0634  1.7062  0.1493
10807TIP3    H153912   0.263   1.814  16.862 -0.5898  1.1740  0.5693
10807TIP3    H253913   0.292   1.682  16.795 -0.9926  0.5601  1.5789
10808TIP3   OH253914   0.826   4.280   3.274 -0.3100  0.1298 -0.1168
10808TIP3    H153915   0.840   4.207   3.215 -2.0956 -0.2481 -0.1357
10808TIP3    H253916   0.904   4.283   3.329  0.4466 -0.8222 -1.1207
10809TIP3   OH253917   0.162   5.981  16.311  0.2998  0.0708 -0.3816
10809TIP3    H153918   0.218   5.934  16.373  0.7103 -0.3680 -1.0733
10809TIP3    H253919   0.181   6.073  16.327 -1.6657  0.1343  2.0770
10810TIP3   OH253920   2.178   1.227   5.882  0.1419  0.1981 -0.0546
10810TIP3    H153921   2.261   1.200   5.842 -0.4058 -0.3120 -0.8760
10810TIP3    H253922   2.192   1.317   5.908  1.3820 -0.2731  0.9832
10811TIP3   OH253923   6.359   1.916   5.959  0.1160  0.3629  0.1011
10811TIP3    H153924   6.432   1.855   5.953 -1.0756 -1.0289 -1.1071
10811TIP3    H253925   6.282   1.864   5.936 -1.2635  1.7956  1.1811
10812TIP3   OH253926   4.146   3.296   5.346  0.9318 -0.0563  0.4658
10812TIP3    H153927   4.095   3.256   5.276  0.2667  0.6670  0.5228
10812TIP3    H253928   4.127   3.390   5.339  1.7257  0.1542  0.9187
10813TIP3   OH253929   4.363   2.155  12.056  0.3191 -0.5121 -0.6895
10813TIP3    H153930   4.319   2.146  12.140 -1.0790  0.6843 -1.2487
10813TIP3    H253931   4.296   2.132  11.991  0.6550  0.8025 -1.5512
10814TIP3   OH253932   4.277   3.338  14.619 -0.0138  0.1287  0.1667
10814TIP3    H153933   4.200   3.347  14.563  0.8649 -0.1336 -1.1185
10814TIP3    H253934   4.312   3.427  14.625 -0.0716  0.1460  0.2529
10815TIP3   OH253935   1.171   5.196   3.976  0.4435  0.1713  0.1420
10815TIP3    H153936   1.124   5.122   3.937  0.9464  0.0880 -0.3238
10815TIP3    H253937   1.262   5.165   3.982  0.4963  0.4427  0.7348
10816TIP3   OH253938   2.802   5.105   4.882  0.3647 -0.4765 -0.4388
10816TIP3    H153939   2.744   5.181   4.890  1.1054  0.4440 -2.8517
10816TIP3    H253940   2.765   5.040   4.941 -2.1611  0.6389 -0.6755
10817TIP3   OH253941   5.234   3.514  16.080  0.6498  0.3139 -0.1018
10817TIP3    H153942   5.270   3.531  15.993  2.0411  2.2135  0.7751
10817TIP3    H253943   5.307   3.477  16.130  0.0577 -0.1390  0.4589
10818TIP3   OH253944   5.670   6.530   0.436 -0.1513 -0.1096 -0.5620
10818TIP3    H153945   5.576   6.517   0.427  0.1373 -1.7419 -1.6469
10818TIP3    H253946   5.708   6.444   0.418  1.5051  0.2667  0.8469
10819TIP3   OH253947   2.017   5.133  13.990  0.0129 -0.5076 -0.0874
10819TIP3    H153948   2.065   5.134  13.907  0.4338  0.1059  0.1530
10819TIP3    H253949   2.031   5.045  14.024 -0.0378 -0.7182 -0.5970
10820TIP3   OH253950   2.747   5.093  14.207  0.0025 -0.0471 -0.6436
10820TIP3    H153951   2.752   5.039  14.286 -2.1938 -1.4308 -1.3569
10820TIP3    H253952   2.748   5.183  14.240 -0.0788 -0.5765  0.9024
10821TIP3   OH253953   2.783   2.405   6.433  0.1035  0.0595 -0.0335
10821TIP3    H153954   2.861   2.363   6.396  0.2995  1.9123 -1.9527
10821TIP3    H253955   2.785   2.494   6.397 -1.8872  0.7549  1.4157
10822TIP3   OH253956   0.970   5.734  12.903 -0.1653  0.5559 -0.0453
10822TIP3    H153957   0.899   5.676  12.931  0.6727 -0.3864  0.1774
10822TIP3    H253958   1.028   5.740  12.978  0.9438 -0.1761 -0.8140
10823TIP3   OH253959   2.062   0.113   1.756 -0.3277 -0.2331  0.6008
10823TIP3    H153960   2.121   0.101   1.682  0.4843 -0.2848  1.2438
10823TIP3    H253961   2.054   0.025   1.794 -3.9056 -1.1359 -1.6982
10824TIP3   OH253962   5.353   6.311   4.625 -0.2121 -0.2862  0.4351
10824TIP3    H153963   5.268   6.311   4.582 -0.4136 -2.4297  0.7215
10824TIP3    H253964   5.344   6.248   4.697  1.2431  0.3852  1.2561
10825TIP3   OH253965   3.149   3.429  13.145  0.4880 -0.3660  0.5351
10825TIP3    H153966   3.129   3.351  13.198 -2.8116 -1.2418 -1.6381
10825TIP3    H253967   3.169   3.394  13.058  1.1616  1.1748  0.0426
10826TIP3   OH253968   4.256   4.375  13.059  0.4962  0.5754  0.5523
10826TIP3    H153969   4.251   4.326  12.977 -1.7876  1.4088  0.1084
10826TIP3    H253970   4.309   4.321  13.116 -0.7290 -1.7591 -0.3813
10827TIP3   OH253971   3.749   3.271  14.172 -0.5513 -0.2185 -0.6734
10827TIP3    H153972   3.697   3.286  14.093  0.0942 -1.0474 -1.2823
10827TIP3    H253973   3.724   3.342  14.231  0.3280  1.5865 -2.3368
10828TIP3   OH253974   1.151   3.729  17.284  0.2567  0.2048 -0.5153
10828TIP3    H153975   1.063   3.762  17.270 -0.8855 -1.5511  1.7744
10828TIP3    H253976   1.186   3.783  17.354 -0.0933 -0.7866  0.4597
10829TIP3   OH253977   0.938   4.628  13.435  0.0973 -0.4415  0.1485
10829TIP3    H153978   0.881   4.703  13.418 -1.1783 -1.4461 -0.1962
10829TIP3    H253979   0.979   4.609  13.350  0.0858 -0.4059  0.1349
10830TIP3   OH253980   3.411   6.376  12.961 -0.5026  0.1726  0.5024
10830TIP3    H153981   3.385   6.337  12.877 -0.1613  1.6460 -0.3348
10830TIP3    H253982   3.482   6.436  12.938  0.2671 -0.1289  2.0173
10831TIP3   OH253983   1.494   5.104  12.528  0.1628 -0.1764  0.5609
10831TIP3    H153984   1.484   5.188  12.572  1.1538  1.3396 -1.8683
10831TIP3    H253985   1.576   5.113  12.479 -0.2201 -2.1889 -0.5597
10832TIP3   OH253986   1.068   3.305  12.221  0.2865  0.3879  0.2665
10832TIP3    H153987   1.053   3.366  12.293  0.2398  1.6490 -0.7753
10832TIP3    H253988   1.021   3.344  12.147 -0.2716 -1.2455 -0.2815
10833TIP3   OH253989   1.024   1.136   5.629  0.1418 -0.0275  0.2671
10833TIP3    H153990   1.047   1.095   5.712  1.5646  0.3980  0.1147
10833TIP3    H253991   0.930   1.118   5.618  0.4899 -2.4408  0.6338
10834TIP3   OH253992   0.539   5.423  11.366 -0.0547 -0.4187 -0.8447
10834TIP3    H153993   0.568   5.438  11.456 -1.8056 -1.1545 -0.1117
10834TIP3    H253994   0.604   5.467  11.312  1.0542  0.0157  0.7785
10835TIP3   OH253995   6.436   2.272   0.481  0.0162 -0.1932  0.2703
10835TIP3    H153996   6.520   2.319   0.477  0.4975 -0.8944  1.6054
10835TIP3    H253997   6.376   2.333   0.522  0.6754 -0.7127  2.1335
10836TIP3   OH253998   5.965   2.373   1.678  0.6230  0.0810  0.5054
10836TIP3    H153999   6.007   2.430   1.743 -1.8611  2.4592  0.2151
10836TIP3    H254000   5.960   2.427   1.599  0.1251 -1.3537 -0.4881
10837TIP3   OH254001   6.222   1.755   2.390  0.2709  0.0974 -0.1883
10837TIP3    H154002   6.302   1.739   2.340  0.1928  2.0375 -1.0346
10837TIP3    H254003   6.154   1.764   2.324 -0.6081 -1.2000  0.5118
10838TIP3   OH254004   5.090   2.789  15.905  0.3167 -0.2332  0.2254
10838TIP3    H154005   5.062   2.850  15.837  1.2330  0.0517  0.0845
10838TIP3    H254006   5.048   2.821  15.985 -0.3372 -0.2554 -0.1072
10839TIP3   OH254007   5.506   2.115   6.164 -0.2929  0.5480 -0.1237
10839TIP3    H154008   5.563   2.081   6.095 -0.2252  0.1686  0.1133
10839TIP3    H254009   5.562   2.116   6.242 -0.7427 -0.2902  0.2222
10840TIP3   OH254010   5.367   2.918  15.207 -0.5299  0.1203 -0.0076
10840TIP3    H154011   5.426   2.875  15.144 -1.1856  1.7394 -1.7991
10840TIP3    H254012   5.376   3.011  15.189 -2.4349  0.5000  0.7818
10841TIP3   OH254013   6.195   6.454   0.575  0.1205 -0.1796 -0.2767
10841TIP3    H154014   6.281   6.488   0.551 -0.2658  0.5423 -0.6760
10841TIP3    H254015   6.199   6.360   0.557  0.0636  0.1986 -2.5951
10842TIP3   OH254016   3.275   1.202  12.389 -0.0784  0.4916  0.0444
10842TIP3    H154017   3.190   1.224  12.427  0.0404 -0.0889  0.6571
10842TIP3    H254018   3.256   1.189  12.296 -0.8040 -0.3838  0.3006
10843TIP3   OH254019   6.206   4.082   0.056  0.1165  0.8388  0.3527
10843TIP3    H154020   6.282   4.053   0.106  0.1474  0.9503  0.3698
10843TIP3    H254021   6.180   4.005   0.005 -0.4544  0.4510  1.1997
10844TIP3   OH254022   4.128   6.342   1.976 -0.6438  0.2196 -0.0034
10844TIP3    H154023   4.160   6.432   1.981  0.0266 -0.0697  1.3345
10844TIP3    H254024   4.055   6.345   1.914  0.0064  1.4874 -0.7343
10845TIP3   OH254025   0.452   2.666  15.014  0.3888 -0.2773  0.0918
10845TIP3    H154026   0.420   2.604  15.080  0.4066  2.1026  2.5585
10845TIP3    H254027   0.519   2.717  15.061  0.2699  1.6747 -1.7305
10846TIP3   OH254028   1.304   6.710   3.805  0.1408 -0.2037 -0.5236
10846TIP3    H154029   1.373   6.723   3.869  0.6615 -1.3828 -0.8135
10846TIP3    H254030   1.262   6.796   3.796  0.3705  0.0902  1.0149
10847TIP3   OH254031   4.475   0.909  11.878  0.1665  0.2857  0.6706
10847TIP3    H154032   4.533   0.895  11.803  0.8805  0.2101  1.2187
10847TIP3    H254033   4.533   0.939  11.948 -0.2692 -0.8131  1.5522
10848TIP3   OH254034   2.893   5.179  13.418 -0.3254 -0.1565  0.3994
10848TIP3    H154035   2.859   5.218  13.338 -0.0923 -1.2450 -0.2541
10848TIP3    H254036   2.969   5.128  13.389 -0.7052 -1.2021  1.1869
10849TIP3   OH254037   5.179   1.890  14.220 -0.2217 -0.2271 -0.1270
10849TIP3    H154038   5.175   1.838  14.300  0.9635 -0.0428  0.0698
10849TIP3    H254039   5.252   1.853  14.170  0.7892  1.3374  0.1148
10850TIP3   OH254040   5.664   1.299  10.867  0.0157  0.3738 -0.4157
10850TIP3    H154041   5.712   1.219  10.889  0.0054  0.4797 -0.0123
10850TIP3    H254042   5.614   1.275  10.789 -1.6251 -0.6894  0.8922
10851TIP3   OH254043   5.596   0.017   0.425  0.3684 -0.7814 -0.2302
10851TIP3    H154044   5.541  -0.061   0.417 -0.4438 -0.4774  1.7944
10851TIP3    H254045   5.685  -0.015   0.418  0.0369 -1.8668  0.2707
10852TIP3   OH254046   3.112   3.576   1.392 -0.0328 -0.2247 -0.2933
10852TIP3    H154047   3.087   3.485   1.372 -0.9460 -0.1478  0.4066
10852TIP3    H254048   3.200   3.569   1.430 -0.6922 -1.0160  1.1914
10853TIP3   OH254049   1.072   4.985  14.560 -0.0627 -0.2275  0.3522
10853TIP3    H154050   1.068   5.067  14.512  0.0660  0.3884  1.3745
10853TIP3    H254051   1.120   5.006  14.640 -0.1625 -1.2612  0.6965
10854TIP3   OH254052   0.565   5.523   4.050 -0.3490  0.3158 -0.5592
10854TIP3    H154053   0.651   5.523   4.091 -0.6029 -0.0296 -0.0076
10854TIP3    H254054   0.513   5.462   4.103 -0.6190 -0.3329 -1.5448
10855TIP3   OH254055   4.096   2.160  12.711 -1.1103  0.5955 -0.4646
10855TIP3    H154056   4.167   2.179  12.650 -0.2262 -0.7726  0.1032
10855TIP3    H254057   4.041   2.097  12.665  0.0796 -1.1841  0.4484
10856TIP3   OH254058   6.338   3.103   4.728  0.0359  0.5381 -0.2399
10856TIP3    H154059   6.256   3.135   4.765  0.1912  0.2365  0.3718
10856TIP3    H254060   6.355   3.161   4.654 -0.4294  0.9653 -0.0175
10857TIP3   OH254061   1.931   3.037   5.768 -0.1069 -0.1145 -0.3921
10857TIP3    H154062   1.861   3.022   5.705  0.5084  0.2341 -1.1664
10857TIP3    H254063   1.967   3.122   5.745  0.0092  0.1007  0.5488
10858TIP3   OH254064   1.977   3.934   4.372 -0.3894 -0.0168  0.4759
10858TIP3    H154065   2.063   3.898   4.350  0.2700  1.8250 -0.1229
10858TIP3    H254066   1.920   3.904   4.302 -0.1540 -0.8586  0.6257
10859TIP3   OH254067   1.690   3.590  15.932 -0.1534  0.1453 -0.0729
10859TIP3    H154068   1.649   3.539  16.002 -0.1385  2.3298  1.6359
10859TIP3    H254069   1.627   3.587  15.860 -1.4872  0.1278  1.0516
10860TIP3   OH254070   4.611   0.829   1.753  0.2220 -0.1833  0.1224
10860TIP3    H154071   4.601   0.918   1.787 -0.2116  0.5858 -1.8861
10860TIP3    H254072   4.521   0.801   1.733  0.5052 -0.2812 -1.0878
10861TIP3   OH254073   4.331   4.979   3.912 -0.1331 -0.0101  0.1650
10861TIP3    H154074   4.404   4.991   3.973 -0.3085  0.3215  0.3121
10861TIP3    H254075   4.253   4.986   3.966 -0.2800 -0.1016 -0.0345
10862TIP3   OH254076   4.951   5.265   2.943  0.6568 -0.5095 -0.2952
10862TIP3    H154077   4.940   5.358   2.924  1.6735 -0.6318 -1.5936
10862TIP3    H254078   4.915   5.254   3.031  1.1026  1.2258  0.1397
10863TIP3   OH254079   1.876   4.475   0.710 -0.3180 -0.3931  0.4073
10863TIP3    H154080   1.793   4.496   0.754  0.6814  0.1169  2.1440
10863TIP3    H254081   1.917   4.560   0.695 -0.4608 -0.5800 -1.2745
10864TIP3   OH254082   1.152   1.838  11.946  0.6010 -0.4373  0.5045
10864TIP3    H154083   1.223   1.790  11.988 -0.2313 -2.1430  0.0622
10864TIP3    H254084   1.097   1.770  11.907 -1.4501  0.7839  1.1057
10865TIP3   OH254085   2.229   3.208  17.175  0.2717  0.4330  0.7972
10865TIP3    H154086   2.232   3.112  17.171 -2.3317  0.1663  2.4208
10865TIP3    H254087   2.186   3.234  17.094  0.5383  0.1705  0.5709
10866TIP3   OH254088   2.036   0.501  15.086 -0.6202 -0.2564 -0.1262
10866TIP3    H154089   2.058   0.590  15.115 -1.4007 -0.6011  1.7130
10866TIP3    H254090   2.030   0.451  15.167 -1.5732 -1.6707 -1.0311
10867TIP3   OH254091   2.512   3.264   2.386  0.4276 -0.0615 -0.9030
10867TIP3    H154092   2.440   3.203   2.401 -0.0250  0.4413 -0.9868
10867TIP3    H254093   2.580   3.212   2.344  0.8500 -0.9927  0.8395
10868TIP3   OH254094   3.539   4.757  12.589 -0.1516 -0.7034 -0.4182
10868TIP3    H154095   3.541   4.747  12.684  1.1679 -2.6921 -0.6017
10868TIP3    H254096   3.453   4.725  12.563 -0.9219  0.8043  0.1509
10869TIP3   OH254097   3.595   5.271   4.948 -0.3251  0.0707  0.0030
10869TIP3    H154098   3.619   5.313   5.030 -1.7349 -0.1502  0.5582
10869TIP3    H254099   3.505   5.299   4.932  0.2570  0.9616 -2.0351
10870TIP3   OH254100   1.174   3.041  15.768 -0.1087  0.8073 -0.5581
10870TIP3    H154101   1.235   3.064  15.838 -1.2784  0.9801  0.4428
10870TIP3    H254102   1.206   2.958  15.734 -0.7955 -0.5113  1.7855
10871TIP3   OH254103   0.843   6.295  16.112  0.2171  0.2481 -0.4535
10871TIP3    H154104   0.911   6.260  16.054  1.3325  1.5574  0.0072
10871TIP3    H254105   0.891   6.331  16.186 -0.8883  2.1419 -0.5898
10872TIP3   OH254106   2.549   4.566   0.538  0.4990  0.0717 -0.2070
10872TIP3    H154107   2.576   4.611   0.459 -2.0405  0.7934 -0.7512
10872TIP3    H254108   2.516   4.635   0.596  2.5753 -0.4053  1.6565
10873TIP3   OH254109   1.612   0.346   1.783 -0.1462  0.4355  0.3312
10873TIP3    H154110   1.541   0.328   1.845  0.0628 -0.7329  0.2380
10873TIP3    H254111   1.684   0.290   1.811  0.9177  1.9124  0.6816
10874TIP3   OH254112   1.793   3.082   3.299  0.3347 -0.4699 -0.2056
10874TIP3    H154113   1.818   3.174   3.299 -0.5683 -0.1962  1.2787
10874TIP3    H254114   1.779   3.061   3.206 -1.7757  1.5671 -0.4427
10875TIP3   OH254115   6.354   3.874   0.263  0.8400 -0.3526  0.0787
10875TIP3    H154116   6.448   3.874   0.285  0.5506  1.4028  1.5272
10875TIP3    H254117   6.310   3.892   0.346 -1.0354 -4.0278  0.0946
10876TIP3   OH254118   5.835   5.021   3.690  0.4816  0.7353 -0.0748
10876TIP3    H154119   5.865   4.968   3.616 -1.2774  1.7397 -1.5927
10876TIP3    H254120   5.760   5.070   3.656  0.4061  2.2214  2.0200
10877TIP3   OH254121   6.762   2.257  14.376 -0.5573  0.0335  0.1941
10877TIP3    H154122   6.695   2.219  14.318  0.9098 -1.8283 -0.3701
10877TIP3    H254123   6.715   2.275  14.458 -1.7903 -1.1091 -0.2260
10878TIP3   OH254124   0.638   1.434   6.318 -0.2837  0.5089 -0.4718
10878TIP3    H154125   0.569   1.369   6.331  0.3359  0.0203  0.4900
10878TIP3    H254126   0.719   1.384   6.324  0.2071  1.3812  0.3722
10879TIP3   OH254127   2.257   0.822   3.691 -0.1367  0.6772  0.3952
10879TIP3    H154128   2.305   0.770   3.756  0.1264  0.7562  0.2648
10879TIP3    H254129   2.323   0.847   3.626 -0.5297 -0.0143 -0.2972
10880TIP3   OH254130   5.035   4.285  12.171 -0.1680  0.3930 -0.3992
10880TIP3    H154131   5.007   4.358  12.115  0.2543  1.0853  0.2759
10880TIP3    H254132   4.971   4.216  12.153 -0.2680  0.7292 -1.4429
10881TIP3   OH254133   2.286   1.188   3.440 -0.3900 -0.4434  0.0890
10881TIP3    H154134   2.264   1.281   3.434 -0.1677 -0.4605 -1.8686
10881TIP3    H254135   2.266   1.164   3.530 -0.4794  1.4884  0.6282
10882TIP3   OH254136   5.265   6.701  15.358 -0.9087  0.6742  0.4223
10882TIP3    H154137   5.278   6.743  15.443  1.3750  0.8830  0.0284
10882TIP3    H254138   5.338   6.731  15.304 -1.1670 -1.0145 -0.9938
10883TIP3   OH254139   0.027   4.209  17.058 -0.6031 -0.0769  0.3935
10883TIP3    H154140   0.064   4.121  17.070 -1.5559 -0.7664 -1.2629
10883TIP3    H254141   0.097   4.259  17.017 -0.4486 -0.4492  0.1949
10884TIP3   OH254142   4.819   4.577  14.079  0.3893 -0.3598 -0.1146
10884TIP3    H154143   4.844   4.485  14.093  0.6351 -0.1856  0.6742
10884TIP3    H254144   4.892   4.627  14.116  0.7877  0.1627 -1.5587
10885TIP3   OH254145   0.775   6.263   4.912 -0.1154  0.3316 -0.2602
10885TIP3    H154146   0.722   6.328   4.866 -0.7550  0.6928  0.9430
10885TIP3    H254147   0.747   6.269   5.004  0.3131 -1.1508  0.0030
10886TIP3   OH254148   4.922   5.963  13.797 -0.2902  0.6965 -0.0530
10886TIP3    H154149   4.875   5.986  13.878 -0.8975  0.5142 -0.3432
10886TIP3    H254150   4.999   6.019  13.798 -0.9653  1.6621  0.0001
10887TIP3   OH254151   6.567   6.559  14.540  0.1327  0.2665 -0.6514
10887TIP3    H154152   6.641   6.619  14.530  1.7527 -1.6822 -1.0784
10887TIP3    H254153   6.599   6.491  14.598 -1.3740 -0.5820 -0.7664
10888TIP3   OH254154   5.505   3.192  10.248  0.1017  0.1571 -0.0243
10888TIP3    H154155   5.449   3.211  10.173  1.1508 -0.4948 -1.0125
10888TIP3    H254156   5.532   3.101  10.235 -0.0943 -0.1243  1.4231
10889TIP3   OH254157   1.371   1.512   1.703  0.5092 -0.0235  0.7731
10889TIP3    H154158   1.314   1.556   1.640  0.7311  1.3451  1.4745
10889TIP3    H254159   1.415   1.443   1.652  2.9362  2.8636 -1.4420
10890TIP3   OH254160   4.018   2.520  13.012 -0.1514 -0.3798 -0.5740
10890TIP3    H154161   3.942   2.576  13.028 -0.3673 -0.8045 -0.0882
10890TIP3    H254162   3.984   2.448  12.959  0.0675 -0.2087 -0.9560
10891TIP3   OH254163   2.392   5.843   6.647  0.5047  0.0944  0.5021
10891TIP3    H154164   2.346   5.759   6.638 -3.4215  2.1431 -0.9436
10891TIP3    H254165   2.405   5.874   6.557 -0.2684  2.0281  1.0094
10892TIP3   OH254166   5.697   4.775   4.502 -0.2755 -0.3696 -0.6417
10892TIP3    H154167   5.702   4.767   4.597 -3.3308 -0.9216 -0.4447
10892TIP3    H254168   5.758   4.846   4.481  0.5639 -0.3163  1.6701
10893TIP3   OH254169   3.427   1.577  17.015  0.9422 -0.9884  0.1061
10893TIP3    H154170   3.455   1.510  16.952  2.9699  0.9489 -1.1901
10893TIP3    H254171   3.470   1.657  16.985 -0.8777  0.7817  1.9732
10894TIP3   OH254172   3.772   6.049   5.182  0.2661 -0.8622  0.0135
10894TIP3    H154173   3.683   6.017   5.201  0.4377 -0.9286  0.7290
10894TIP3    H254174   3.809   6.068   5.267  0.7352 -0.2531 -0.3181
10895TIP3   OH254175   3.504   2.740   4.288  0.4742  0.5815  0.5959
10895TIP3    H154176   3.592   2.711   4.266  0.2704  0.6656 -0.3825
10895TIP3    H254177   3.463   2.758   4.204 -1.2034 -1.5173  0.8792
10896TIP3   OH254178   5.820   3.545  12.300  0.0792 -0.4458  0.0215
10896TIP3    H154179   5.788   3.633  12.320 -3.3711 -1.1316 -1.6433
10896TIP3    H254180   5.913   3.557  12.285 -0.1026  2.7770  0.6328
10897TIP3   OH254181   5.586   5.112   1.292 -0.6177  0.0102  0.3475
10897TIP3    H154182   5.492   5.110   1.311 -0.2012 -1.9716  2.7812
10897TIP3    H254183   5.620   5.033   1.335  2.3010  1.1901  0.4003
10898TIP3   OH254184   0.964   5.522   0.942  0.4808 -0.2951  0.1516
10898TIP3    H154185   0.920   5.461   0.883  1.4424  1.0709 -2.1139
10898TIP3    H254186   0.931   5.608   0.917  0.0780  0.3054  2.4376
10899TIP3   OH254187   2.817   1.157  16.378  0.0718  0.1710 -0.3415
10899TIP3    H154188   2.844   1.226  16.318 -0.3275 -0.9073 -1.8199
10899TIP3    H254189   2.731   1.184  16.408  0.1540  0.5918 -0.4769
10900TIP3   OH254190   1.004   2.189  16.307 -0.0349  0.0102 -0.4348
10900TIP3    H154191   1.048   2.197  16.222  0.1177  3.0301 -0.1788
10900TIP3    H254192   0.911   2.196  16.287 -0.0435 -0.1277 -0.4400
10901TIP3   OH254193   2.745   6.190  16.673 -0.1498  0.2244  0.2042
10901TIP3    H154194   2.799   6.224  16.745  0.9352  1.9488 -1.3312
10901TIP3    H254195   2.707   6.110  16.708  1.1746  0.4335  2.3351
10902TIP3   OH254196   1.282   5.142  13.817  0.3193 -0.5372  1.0444
10902TIP3    H154197   1.323   5.066  13.858  2.0661 -0.3998 -0.2944
10902TIP3    H254198   1.191   5.117  13.805  0.3779 -1.5822  2.5429
10903TIP3   OH254199   3.325   6.722  15.366  0.0714 -0.1864  0.2366
10903TIP3    H154200   3.279   6.670  15.432 -0.1161  0.7349  0.8418
10903TIP3    H254201   3.370   6.790  15.416  0.3114  0.2411 -0.5483
10904TIP3   OH254202   1.876   6.483  15.688  0.2728  0.6374 -0.4548
10904TIP3    H154203   1.922   6.424  15.748  0.9272  1.7506  0.1612
10904TIP3    H254204   1.796   6.436  15.666  1.5363 -1.2260 -1.3186
10905TIP3   OH254205   1.730   0.439  16.934  0.1567  0.1328  0.2278
10905TIP3    H154206   1.733   0.487  17.017  2.3363 -0.8390  0.7855
10905TIP3    H254207   1.807   0.469  16.887  0.7865 -1.7177 -0.0090
10906TIP3   OH254208   5.603   1.933  16.599  0.3201 -0.5070  0.0795
10906TIP3    H154209   5.668   2.003  16.589 -1.9857  1.9706  1.1512
10906TIP3    H254210   5.585   1.932  16.693 -2.8341  0.6025 -0.4158
10907TIP3   OH254211   0.906   2.583  12.562  0.4388  0.3321 -0.2517
10907TIP3    H154212   0.826   2.578  12.509  0.2694  0.3151 -0.0009
10907TIP3    H254213   0.910   2.675  12.591 -1.1225 -0.2437  2.1665
10908TIP3   OH254214   5.384   4.500  11.306  0.1464  0.0932 -0.3192
10908TIP3    H154215   5.367   4.508  11.400  0.8405  1.0670 -0.2616
10908TIP3    H254216   5.343   4.417  11.281  0.7406 -0.6213  1.0221
10909TIP3   OH254217   4.721   5.731  12.925 -0.5824  0.5209 -0.1703
10909TIP3    H154218   4.768   5.727  13.008 -1.3070 -0.2234  0.2249
10909TIP3    H254219   4.657   5.801  12.937 -0.7581  0.3431 -0.0539
10910TIP3   OH254220   4.570   1.625  11.005  0.1294 -0.2151  0.1763
10910TIP3    H154221   4.554   1.709  11.050  2.7559 -0.5766  2.0278
10910TIP3    H254222   4.543   1.559  11.069 -0.2899 -0.8028 -0.5942
10911TIP3   OH254223   4.661   3.176  16.554  0.4071 -0.3417 -0.1477
10911TIP3    H154224   4.682   3.202  16.644 -0.1969  2.3627 -0.6964
10911TIP3    H254225   4.588   3.115  16.563  0.8787 -0.7279  1.2287
10912TIP3   OH254226   5.010   6.314  12.736 -0.8128 -0.2640  0.0227
10912TIP3    H154227   4.917   6.313  12.712 -0.4474  2.8717 -2.1233
10912TIP3    H254228   5.031   6.223  12.755 -3.7599 -1.4692 -1.8211
10913TIP3   OH254229   4.007   2.971   3.508  0.2661 -0.5339 -0.0140
10913TIP3    H154230   4.095   2.936   3.524  0.0181 -1.3231 -0.3719
10913TIP3    H254231   3.965   2.970   3.594 -0.4580 -3.1269 -0.3164
10914TIP3   OH254232   2.295   3.124   2.488 -0.2504  0.4220 -0.1243
10914TIP3    H154233   2.260   3.087   2.569 -0.9546  2.0863  0.3535
10914TIP3    H254234   2.231   3.101   2.421  0.1780 -0.6832 -0.1789
10915TIP3   OH254235   3.269   5.325  16.172  0.7507 -0.6306  0.1056
10915TIP3    H154236   3.271   5.404  16.119 -0.6459 -0.1844  0.6708
10915TIP3    H254237   3.263   5.254  16.109 -0.8497 -0.1117 -0.3815
10916TIP3   OH254238   5.582   3.752  13.595  0.4090 -0.8506  0.2958
10916TIP3    H154239   5.574   3.728  13.688 -1.4668  0.2581  0.4724
10916TIP3    H254240   5.552   3.843  13.591  1.0071 -0.6994 -1.3272
10917TIP3   OH254241   0.823   4.595  16.860 -0.0372 -0.0553  0.4012
10917TIP3    H154242   0.770   4.578  16.782 -1.5661  0.7234  1.2147
10917TIP3    H254243   0.850   4.687  16.850  1.4548 -0.5428 -0.1613
10918TIP3   OH254244   4.031   5.535   3.115 -0.0721 -0.2978 -0.0642
10918TIP3    H154245   4.088   5.564   3.186  0.7532  0.3495 -0.9605
10918TIP3    H254246   3.968   5.476   3.157  2.7918 -3.1635  0.6115
10919TIP3   OH254247   3.238   5.119  14.083  0.4160 -0.0666 -0.4420
10919TIP3    H154248   3.281   5.196  14.048  1.0945 -1.4647 -2.9048
10919TIP3    H254249   3.260   5.120  14.177  0.1810  2.7931 -0.3468
10920TIP3   OH254250   2.073   4.157  10.694  0.4337 -0.3860 -0.1347
10920TIP3    H154251   2.003   4.187  10.752  0.2746 -0.6932 -0.1683
10920TIP3    H254252   2.111   4.081  10.739 -0.1589 -1.0637 -0.7659
10921TIP3   OH254253   6.683   5.107   3.257 -0.1464  0.1793  0.5053
10921TIP3    H154254   6.599   5.129   3.299  0.1112 -0.2970  1.2995
10921TIP3    H254255   6.742   5.176   3.284 -0.4808  0.9781 -0.7464
10922TIP3   OH254256   5.235   4.022   4.383 -0.3503  0.2037  0.1361
10922TIP3    H154257   5.167   4.028   4.316 -1.7977  0.5715  1.5660
10922TIP3    H254258   5.231   4.105   4.429  1.2328  0.3049  0.1279
10923TIP3   OH254259   5.402   6.784   5.057  0.4008  0.2802  0.0362
10923TIP3    H154260   5.364   6.779   5.145 -0.2021  0.0229 -0.2356
10923TIP3    H254261   5.362   6.862   5.018 -0.4825 -0.4528 -0.5446
10924TIP3   OH254262   2.346   6.508   2.945 -0.4707  0.6174  0.5317
10924TIP3    H154263   2.267   6.560   2.956 -0.5936  0.4609  0.4016
10924TIP3    H254264   2.381   6.535   2.860 -0.1789  0.9571  0.7547
10925TIP3   OH254265   3.886   0.798   1.250  0.2781  0.6513 -0.1648
10925TIP3    H154266   3.803   0.753   1.268  0.2246 -0.2009 -2.1933
10925TIP3    H254267   3.911   0.837   1.333 -3.1733  2.6675  0.1091
10926TIP3   OH254268   6.032   0.754  16.128  0.3837 -0.2041 -0.0810
10926TIP3    H154269   6.029   0.659  16.139 -0.0584 -0.2973 -0.9292
10926TIP3    H254270   6.051   0.767  16.035 -1.7329  0.5209 -0.4723
10927TIP3   OH254271   2.200   1.089  11.482 -0.1534  0.6356  0.2320
10927TIP3    H154272   2.183   1.053  11.569 -1.5679 -1.3447 -0.7889
10927TIP3    H254273   2.117   1.079  11.436  0.7216  1.1366 -1.5278
10928TIP3   OH254274   6.381   1.907   3.568  0.3695 -0.0871 -0.0635
10928TIP3    H154275   6.453   1.850   3.595  0.1169 -1.0464 -1.3017
10928TIP3    H254276   6.415   1.952   3.490 -0.6857 -1.3510 -1.3141
10929TIP3   OH254277   5.954   5.301  13.002 -0.7439  0.2395  0.6036
10929TIP3    H154278   5.938   5.235  12.935  1.5461  1.1914 -1.0162
10929TIP3    H254279   6.008   5.257  13.067 -1.7482 -0.2855  1.0991
10930TIP3   OH254280   5.935   5.826  17.027 -0.0652  0.5010  0.5130
10930TIP3    H154281   6.028   5.824  17.050  0.0310 -0.6692  0.0976
10930TIP3    H254282   5.920   5.916  16.996  0.6100  1.0762  1.7813
10931TIP3   OH254283   2.668   0.149  12.615  0.1283  0.6321 -0.3730
10931TIP3    H154284   2.722   0.071  12.600 -2.0902 -0.6993 -1.9849
10931TIP3    H254285   2.663   0.191  12.529  0.6697  2.1933  0.3198
10932TIP3   OH254286   6.181   6.572   3.013  0.0810 -0.2644  0.3389
10932TIP3    H154287   6.110   6.562   2.949  0.0508 -2.7906  0.6753
10932TIP3    H254288   6.139   6.563   3.098  0.9624 -4.2533  0.5289
10933TIP3   OH254289   0.459   3.352  13.410 -0.0696 -0.4268  0.2818
10933TIP3    H154290   0.443   3.443  13.433 -0.0002 -0.4554  0.4417
10933TIP3    H254291   0.553   3.348  13.392 -0.1286 -0.3954 -0.0488
10934TIP3   OH254292   0.339   4.825  13.609  0.5028 -0.0546  0.3709
10934TIP3    H154293   0.400   4.889  13.647 -0.4986  0.1983  1.6387
10934TIP3    H254294   0.394   4.753  13.579  1.4740  0.4535  0.9028
10935TIP3   OH254295   6.611   4.633   0.022 -0.2010  0.5038 -0.2627
10935TIP3    H154296   6.611   4.714   0.074 -1.3009  0.6151 -0.4030
10935TIP3    H254297   6.519   4.622  -0.004 -0.2266 -1.2126  0.4275
10936TIP3   OH254298   2.546   6.144  16.062 -0.2613  0.2162  0.1967
10936TIP3    H154299   2.450   6.142  16.059 -0.2502 -1.9016 -1.4461
10936TIP3    H254300   2.568   6.107  16.147 -0.9480 -0.9649 -0.1054
10937TIP3   OH254301   5.764   0.170   5.295  0.3673  0.0468 -0.0040
10937TIP3    H154302   5.855   0.165   5.322  0.0918 -2.8504  0.8128
10937TIP3    H254303   5.767   0.182   5.200  1.5839  0.0638  0.0232
10938TIP3   OH254304   5.332   0.093  13.320  0.5466  0.7247 -0.2140
10938TIP3    H154305   5.351   0.144  13.398  0.5967 -0.2734  0.4410
10938TIP3    H254306   5.267   0.029  13.348 -1.0537  1.7042 -1.5163
10939TIP3   OH254307   5.889   0.788   6.118  0.0552 -0.4287  0.0285
10939TIP3    H154308   5.806   0.741   6.133 -0.4059  0.5815  0.8313
10939TIP3    H254309   5.867   0.853   6.051  0.2017 -0.1632  0.2399
10940TIP3   OH254310   0.014   0.659  14.682 -0.0015  0.1032  0.1308
10940TIP3    H154311  -0.069   0.701  14.706 -1.7219 -1.2687 -2.7642
10940TIP3    H254312   0.010   0.573  14.723  0.0307  0.0691  0.0625
10941TIP3   OH254313   2.939   3.828  11.967 -0.2421  0.3927 -0.4476
10941TIP3    H154314   3.018   3.813  11.915 -0.2623 -0.2331 -0.3027
10941TIP3    H254315   2.868   3.789  11.915 -0.3727  0.4211 -0.2924
10942TIP3   OH254316   3.096   6.713   3.927  0.0452 -0.1181 -0.4687
10942TIP3    H154317   3.079   6.789   3.983 -0.5713 -0.3688 -0.3088
10942TIP3    H254318   3.186   6.725   3.897 -0.4565  1.4219 -1.5533
10943TIP3   OH254319   0.156   5.555   0.354 -0.0659 -0.1213  0.6193
10943TIP3    H154320   0.066   5.578   0.378  0.0385  2.1620 -0.8590
10943TIP3    H254321   0.149   5.522   0.264  0.4891 -0.8141  0.8229
10944TIP3   OH254322   5.656   0.822   0.763 -0.4067 -0.4240 -0.4479
10944TIP3    H154323   5.749   0.842   0.767 -0.4333 -0.4826  1.2315
10944TIP3    H254324   5.652   0.733   0.728  0.2935 -1.0416  0.9555
10945TIP3   OH254325   4.484   1.177   1.903 -0.1700  0.8249 -0.0117
10945TIP3    H154326   4.421   1.106   1.891 -1.0345  1.1370  2.1941
10945TIP3    H254327   4.430   1.254   1.924  0.8566  1.6316 -0.2248
10946TIP3   OH254328   1.643   3.524  16.758 -0.6272  0.1428 -0.7523
10946TIP3    H154329   1.574   3.557  16.816 -0.4941  1.2970 -1.2139
10946TIP3    H254330   1.632   3.429  16.759 -0.7285  0.1376  1.0232
10947TIP3   OH254331   5.830   3.814   4.498  0.9578  0.1847  0.0260
10947TIP3    H154332   5.914   3.858   4.510  0.8991  0.1165  0.7253
10947TIP3    H254333   5.809   3.779   4.585  0.2856  0.0635 -0.1832
10948TIP3   OH254334   4.397   5.622   2.097  0.1963 -0.1270 -0.3081
10948TIP3    H154335   4.344   5.545   2.080  1.5309 -0.6523 -2.6337
10948TIP3    H254336   4.377   5.681   2.024  1.1660  0.5806 -0.0235
10949TIP3   OH254337   6.365   5.281  13.212  0.3004 -0.3412  0.3281
10949TIP3    H154338   6.396   5.203  13.257  0.2527  0.4147  1.7180
10949TIP3    H254339   6.373   5.260  13.119 -1.4631 -2.7117  0.6210
10950TIP3   OH254340   3.469   5.660   4.754 -0.0377 -0.9134  0.0499
10950TIP3    H154341   3.503   5.740   4.795  0.4703 -0.6501 -0.8496
10950TIP3    H254342   3.531   5.592   4.780  0.7200 -0.6021 -0.8642
10951TIP3   OH254343   2.105   4.357   3.057  0.0411  0.4329  0.1048
10951TIP3    H154344   2.124   4.418   3.129 -0.4561  0.4792  0.2015
10951TIP3    H254345   2.014   4.376   3.034 -0.2299 -0.5036  0.3655
10952TIP3   OH254346   2.131   3.757   6.513 -0.2084  0.3432 -0.1977
10952TIP3    H154347   2.058   3.707   6.476 -0.2300  0.8234 -0.8314
10952TIP3    H254348   2.089   3.832   6.555  0.0016  2.4088 -3.3395
10953TIP3   OH254349   3.903   2.545  17.285  0.1112 -0.5975 -0.0319
10953TIP3    H154350   3.847   2.554  17.362  0.1121 -0.9086  0.0063
10953TIP3    H254351   3.861   2.477  17.232  0.8415 -1.3741  0.3555
10954TIP3   OH254352   4.939   4.907   0.929 -0.1681 -0.4494  0.4525
10954TIP3    H154353   4.996   4.978   0.900 -0.2928  0.3413  2.0341
10954TIP3    H254354   4.978   4.828   0.892  1.7012  0.1282  1.1006
10955TIP3   OH254355   0.585   3.886  10.595 -0.2703  0.6780  0.2012
10955TIP3    H154356   0.600   3.831  10.518 -0.1540  1.8064 -0.5991
10955TIP3    H254357   0.521   3.951  10.567 -1.2550  0.3048  1.4644
10956TIP3   OH254358   6.329   0.536  15.846  0.1240 -0.9324  0.0145
10956TIP3    H154359   6.418   0.506  15.865  0.8971 -0.0117 -1.8454
10956TIP3    H254360   6.302   0.485  15.770 -1.3603 -1.8910  1.1304
10957TIP3   OH254361   3.968   4.659  17.076 -0.2321 -0.0601  0.3832
10957TIP3    H154362   3.900   4.592  17.074 -1.6010  1.2682  0.3570
10957TIP3    H254363   4.034   4.625  17.136 -0.2797 -1.9527 -0.5806
10958TIP3   OH254364   2.081   0.664  13.095  0.1074  0.3438  0.2431
10958TIP3    H154365   2.114   0.602  13.160  0.9668  0.7704  0.2262
10958TIP3    H254366   1.988   0.672  13.115  0.0798 -0.5916  0.5397
10959TIP3   OH254367   2.563   3.792   1.653  0.0885  0.5793 -0.1116
10959TIP3    H154368   2.606   3.707   1.645  0.7239  0.8943 -0.1270
10959TIP3    H254369   2.472   3.776   1.626  0.6500  0.2910 -2.0138
10960TIP3   OH254370   3.335   6.034   2.587 -0.5343  0.1443 -1.0795
10960TIP3    H154371   3.291   6.074   2.662 -0.8020 -2.1029  0.0219
10960TIP3    H254372   3.425   6.068   2.592 -0.3788 -0.4229  0.6434
10961TIP3   OH254373   3.879   1.876   0.167  0.2149  0.1604  0.2292
10961TIP3    H154374   3.834   1.960   0.179  0.0628  0.1117  0.0236
10961TIP3    H254375   3.959   1.883   0.218 -0.0606  0.2276  0.6536
10962TIP3   OH254376   6.407   5.934  12.152 -0.3834 -0.4333 -0.4314
10962TIP3    H154377   6.500   5.948  12.169 -0.5260  1.3605 -0.8955
10962TIP3    H254378   6.395   5.839  12.157  1.3444 -0.6520  0.2083
10963TIP3   OH254379   6.803   6.124   2.928  0.6648 -0.0118 -0.5165
10963TIP3    H154380   6.865   6.145   2.858  2.1737  1.8228  1.2449
10963TIP3    H254381   6.806   6.200   2.986 -2.9070 -0.0836 -0.0543
10964TIP3   OH254382   1.701   3.346   5.641  0.3160 -0.2325  0.7980
10964TIP3    H154383   1.652   3.428   5.645 -1.2853 -0.9447 -1.8001
10964TIP3    H254384   1.650   3.285   5.694 -0.0741 -0.2582  0.3971
10965TIP3   OH254385   4.560   5.931  14.232 -0.1202  0.0306 -0.4976
10965TIP3    H154386   4.637   5.914  14.177 -0.4461  2.1192 -1.7107
10965TIP3    H254387   4.486   5.914  14.173 -0.5380  0.2044 -0.0228
10966TIP3   OH254388   4.839   2.713  13.931 -0.3400 -0.4320  0.9437
10966TIP3    H154389   4.746   2.732  13.938 -0.2170 -0.0566  1.6433
10966TIP3    H254390   4.861   2.670  14.013 -0.2702 -2.1798  0.0572
10967TIP3   OH254391   5.575   3.349  13.710  0.2144 -0.2044  0.2444
10967TIP3    H154392   5.646   3.284  13.704 -0.1644 -0.8904  2.2870
10967TIP3    H254393   5.618   3.433  13.693  1.0057 -0.8268 -1.0099
10968TIP3   OH254394   2.763   5.734  16.170 -0.0580  0.0122 -0.5105
10968TIP3    H154395   2.826   5.790  16.215 -1.3125  0.3556  0.8846
10968TIP3    H254396   2.817   5.680  16.112  1.6481 -0.4988  1.4469
10969TIP3   OH254397   4.338   0.769  16.691  0.3176  0.0187  0.3551
10969TIP3    H154398   4.269   0.813  16.741 -0.0460  0.7769 -0.7818
10969TIP3    H254399   4.311   0.776  16.600  1.0839 -1.1341  0.0064
10970TIP3   OH254400   6.128   6.814  11.618 -0.0633 -0.0254  0.4059
10970TIP3    H154401   6.182   6.853  11.687 -2.7699  0.8421  2.1577
10970TIP3    H254402   6.076   6.886  11.584 -0.7157 -0.9711 -0.6818
10971TIP3   OH254403   0.608   1.004  13.587 -0.1183  0.0955 -0.8692
10971TIP3    H154404   0.610   0.918  13.545 -0.4506 -1.0435  1.3005
10971TIP3    H254405   0.525   1.005  13.636  0.2923  1.2856 -0.1436
10972TIP3   OH254406   0.323   6.554  13.315  0.4312  0.0027  0.4138
10972TIP3    H154407   0.247   6.597  13.354 -0.2627 -1.3029  0.5600
10972TIP3    H254408   0.286   6.486  13.259  1.4879 -0.1155 -0.1787
10973TIP3   OH254409   0.230   1.408  14.895 -0.1255  0.3372 -0.7359
10973TIP3    H154410   0.155   1.401  14.954  0.0762  4.4344  0.3341
10973TIP3    H254411   0.263   1.318  14.887 -2.5260 -0.9893  2.2115
10974TIP3   OH254412   3.734   3.794   0.740  0.3158  0.4389 -0.0754
10974TIP3    H154413   3.782   3.767   0.818  0.3522 -0.9837 -0.5744
10974TIP3    H254414   3.647   3.817   0.772  0.5381  0.5479  0.4651
10975TIP3   OH254415   5.002   4.323   1.117 -0.0513 -0.2400 -0.2525
10975TIP3    H154416   4.911   4.299   1.100 -0.4266 -0.1344  1.4430
10975TIP3    H254417   5.010   4.413   1.085 -0.8101  0.0760  0.4368
10976TIP3   OH254418   2.957   6.718   0.982  0.3864 -0.2433 -0.3947
10976TIP3    H154419   2.897   6.792   0.977  1.6075  0.8906  1.0028
10976TIP3    H254420   3.028   6.741   0.922  1.9037  0.8635  1.7218
10977TIP3   OH254421   4.465   3.052  10.880 -0.2062 -0.2292  0.1712
10977TIP3    H154422   4.463   3.033  10.786  0.4781  0.6717 -0.0377
10977TIP3    H254423   4.393   3.113  10.894  1.3737  1.8521 -0.3116
10978TIP3   OH254424   6.642   5.411  13.075  0.4851 -0.3315  0.0976
10978TIP3    H154425   6.589   5.446  13.147  1.5457 -1.2858  1.3890
10978TIP3    H254426   6.609   5.322  13.062 -2.0270  0.8595 -2.9989
10979TIP3   OH254427   4.932   1.620   3.717  0.1326 -0.2539  0.3931
10979TIP3    H154428   4.884   1.674   3.780 -0.2874 -0.1950  0.0188
10979TIP3    H254429   4.922   1.665   3.634  0.5399 -0.4311  0.2474
10980TIP3   OH254430   0.537   5.117   5.566 -0.1722  0.1827  0.3198
10980TIP3    H154431   0.598   5.073   5.625 -2.1385 -3.4081 -0.0835
10980TIP3    H254432   0.584   5.123   5.482  1.1688  1.6941  1.1122
10981TIP3   OH254433   3.930   2.746   3.979  0.4902 -0.1136 -0.1021
10981TIP3    H154434   3.840   2.717   3.964  0.7033 -0.1192 -1.4396
10981TIP3    H254435   3.972   2.739   3.894  1.5798  0.5436  0.3648
10982TIP3   OH254436   5.408   5.447  14.986 -0.4225  0.6419 -0.3967
10982TIP3    H154437   5.460   5.451  15.066  0.2679 -0.7816 -0.7426
10982TIP3    H254438   5.438   5.368  14.942 -1.5891  0.7971 -1.5224
10983TIP3   OH254439   1.559   4.681   5.245  0.0480 -0.2732 -0.2774
10983TIP3    H154440   1.520   4.593   5.242  0.1195 -0.3199  0.1394
10983TIP3    H254441   1.503   4.730   5.305 -0.2794  0.1105 -0.8850
10984TIP3   OH254442   5.486   3.946  17.089  0.0225  0.0825  0.6922
10984TIP3    H154443   5.418   3.939  17.022 -1.2736  1.9719  1.7308
10984TIP3    H254444   5.555   3.886  17.059 -0.6123  0.6210 -2.1546
10985TIP3   OH254445   2.499   1.387   3.902  0.2309 -0.0435 -0.1604
10985TIP3    H154446   2.505   1.330   3.825  0.8114 -0.9482  0.5354
10985TIP3    H254447   2.411   1.423   3.899  0.9381  1.7246 -2.4904
10986TIP3   OH254448   1.079   1.454   2.850  0.6029  0.0431  0.5655
10986TIP3    H154449   1.171   1.461   2.875  0.1835 -0.6672  2.5257
10986TIP3    H254450   1.047   1.378   2.898 -0.8241 -0.2462 -0.7484
10987TIP3   OH254451   5.611   3.474   2.180 -0.0442 -0.1681  0.1401
10987TIP3    H154452   5.577   3.491   2.092 -2.1579 -0.2925  0.8631
10987TIP3    H254453   5.564   3.536   2.236 -0.0760 -1.2702  1.4010
10988TIP3   OH254454   2.042   1.015  11.754 -0.2977  0.3760 -0.0311
10988TIP3    H154455   2.014   0.929  11.724 -0.1308  0.6732 -1.0820
10988TIP3    H254456   2.039   1.010  11.850  0.2921 -0.9794 -0.0675
10989TIP3   OH254457   1.296   2.991  16.081  0.0694  0.2889  0.0749
10989TIP3    H154458   1.224   2.966  16.024  2.1780 -2.6255 -1.5597
10989TIP3    H254459   1.370   3.004  16.022  0.7685  4.6123  1.5193
10990TIP3   OH254460   4.977   5.905   3.742  0.3109  0.2208  0.4947
10990TIP3    H154461   4.991   5.914   3.836 -0.1455  2.3855  0.4175
10990TIP3    H254462   4.914   5.975   3.721  1.4085  0.6418 -1.6061
10991TIP3   OH254463   1.382   0.340   0.775  0.0933 -0.1234  0.2749
10991TIP3    H154464   1.314   0.382   0.828 -1.0264 -0.4856 -0.8046
10991TIP3    H254465   1.397   0.401   0.703  0.5874 -0.2526  0.2684
10992TIP3   OH254466   0.087   6.436   3.829  0.0214 -0.5471 -0.4203
10992TIP3    H154467   0.060   6.399   3.744  2.8264 -0.9552 -1.2429
10992TIP3    H254468   0.106   6.528   3.810  2.5617 -1.0776 -0.8138
10993TIP3   OH254469   0.698   4.409  14.664 -0.0303  0.0589  0.2743
10993TIP3    H154470   0.628   4.387  14.726  0.4901 -1.5591  0.3177
10993TIP3    H254471   0.748   4.478  14.709 -0.0896 -0.5760  1.3597
10994TIP3   OH254472   1.738   1.891  12.121  0.6253  0.8198 -0.2538
10994TIP3    H154473   1.726   1.796  12.119  2.4831  0.3824  2.5120
10994TIP3    H254474   1.825   1.905  12.083  1.1381  1.1482  0.9787
10995TIP3   OH254475   2.405   0.821   2.439 -0.2779  0.4788 -0.1695
10995TIP3    H154476   2.417   0.893   2.501 -1.4715  1.2831 -0.8363
10995TIP3    H254477   2.491   0.808   2.400  0.1052  1.0777  0.4492
10996TIP3   OH254478   1.870   1.006   0.899 -0.1717 -0.0146  0.4106
10996TIP3    H154479   1.907   0.920   0.882 -1.8351 -0.6220 -0.3671
10996TIP3    H254480   1.836   1.001   0.988 -0.9560 -0.4512  0.0983
10997TIP3   OH254481   6.482   0.047   0.082  0.2560 -0.1063 -0.1597
10997TIP3    H154482   6.445   0.010   0.163 -2.0795  1.8388 -0.1915
10997TIP3    H254483   6.498   0.139   0.104  4.1835 -0.5355 -0.5858
10998TIP3   OH254484   6.189   2.043   5.617  0.3848  0.1841 -0.1357
10998TIP3    H154485   6.161   2.100   5.546  0.9594 -1.8981 -2.1475
10998TIP3    H254486   6.112   2.036   5.674 -0.3257  1.3632 -0.9100
10999TIP3   OH254487   5.506   1.764  14.258 -0.0760 -0.0002 -0.4256
10999TIP3    H154488   5.569   1.825  14.220  0.6249 -0.8925 -0.7281
10999TIP3    H254489   5.530   1.759  14.351 -0.5119  0.6331 -0.2750
11000TIP3   OH254490   1.374   2.003   2.464  0.3811  0.1149 -0.0010
11000TIP3    H154491   1.311   2.041   2.525  0.6025  1.0403 -0.3274
11000TIP3    H254492   1.425   2.078   2.432  1.0788 -0.5046 -0.3899
11001TIP3   OH254493   1.314   4.710  11.293 -0.1090 -0.0459  0.3226
11001TIP3    H154494   1.229   4.720  11.251  1.2792  2.1005 -2.2277
11001TIP3    H254495   1.318   4.781  11.358  0.3537  0.9691 -0.7828
11002TIP3   OH254496   4.867   6.049   4.856  0.3174  0.1589  0.8522
11002TIP3    H154497   4.876   5.961   4.893 -1.8240 -2.8510 -4.6955
11002TIP3    H254498   4.774   6.068   4.864  0.1243  0.1942 -1.1071
11003TIP3   OH254499   0.847   3.425  16.523 -0.3667 -0.1463  0.2831
11003TIP3    H154500   0.798   3.361  16.473 -1.2179  1.1102 -0.5491
11003TIP3    H254501   0.815   3.416  16.613 -3.1293  1.4623 -0.4293
11004TIP3   OH254502   3.980   6.388   6.305  0.3886 -0.0992  0.5893
11004TIP3    H154503   4.021   6.418   6.387  0.9544  1.0417 -0.0888
11004TIP3    H254504   3.888   6.377   6.327  0.3950  0.9535  1.1979
11005TIP3   OH254505   1.997   2.395  10.561  0.0425  0.4503 -0.1591
11005TIP3    H154506   1.926   2.383  10.498 -0.7263 -0.5989  0.8690
11005TIP3    H254507   2.061   2.328  10.537 -0.8334 -0.8339  0.9109
11006TIP3   OH254508   2.912   1.976   1.902  0.0975 -0.2400  0.1837
11006TIP3    H154509   2.920   1.995   1.995 -0.8893 -1.9062  0.6449
11006TIP3    H254510   2.999   1.948   1.876  0.0454 -1.1870  0.9707
11007TIP3   OH254511   0.200   1.307   3.344  0.7020 -0.2969  0.1757
11007TIP3    H154512   0.249   1.349   3.415  0.1472 -0.9841  0.9795
11007TIP3    H254513   0.109   1.326   3.363  0.5839  0.4595 -0.9877
11008TIP3   OH254514   3.980   5.328   6.484 -0.4863  0.2527 -0.2024
11008TIP3    H154515   4.057   5.364   6.440  0.1911 -0.7123  0.1429
11008TIP3    H254516   4.013   5.250   6.529 -1.8552 -0.7295 -0.8241
11009TIP3   OH254517   3.902   2.655   2.651  0.4058  0.4298  0.2053
11009TIP3    H154518   3.968   2.693   2.710 -0.4964 -0.1112  1.6350
11009TIP3    H254519   3.934   2.566   2.634  1.2463  0.9533 -1.0987
11010TIP3   OH254520   6.416   4.526  11.840  0.1962 -0.0825 -0.5312
11010TIP3    H154521   6.404   4.615  11.872  3.2218  0.8681 -1.7313
11010TIP3    H254522   6.454   4.479  11.915 -1.0499 -0.3319 -0.0210
11011TIP3   OH254523   1.094   0.197   2.336  0.3636  0.0899  0.6138
11011TIP3    H154524   1.014   0.230   2.294  0.5229  0.1118  0.3257
11011TIP3    H254525   1.076   0.104   2.352 -0.3951  0.4652  2.1544
11012TIP3   OH254526   0.677   2.906  12.615  0.4234 -0.5209 -0.4217
11012TIP3    H154527   0.668   2.949  12.700 -0.2923  0.0919 -0.7901
11012TIP3    H254528   0.608   2.839  12.615  2.1645 -2.4471  0.5559
11013TIP3   OH254529   4.376   4.770  13.183  0.2707  0.8083  0.1142
11013TIP3    H154530   4.434   4.694  13.190  0.4264  0.9822  0.7550
11013TIP3    H254531   4.288   4.734  13.197  0.4240  0.8770  1.3286
11014TIP3   OH254532   1.950   0.535   5.193  0.3065 -0.0290 -0.2677
11014TIP3    H154533   1.856   0.518   5.182  0.3402 -2.2694  2.0455
11014TIP3    H254534   1.964   0.534   5.288  2.9828 -1.8040 -0.5778
11015TIP3   OH254535   4.231   2.684   1.543 -0.5043  0.0563  0.1388
11015TIP3    H154536   4.321   2.712   1.531 -0.4414 -0.6126 -1.2163
11015TIP3    H254537   4.228   2.646   1.631  0.6175 -0.2318  0.0601
11016TIP3   OH254538   2.382   4.774  17.297 -0.2386 -0.3326  0.9708
11016TIP3    H154539   2.464   4.765  17.248  0.0668 -1.4011  1.6414
11016TIP3    H254540   2.354   4.864  17.281  1.5298  0.3341  1.4592
11017TIP3   OH254541   2.876   5.672  12.433 -0.5885  0.0107  0.1718
11017TIP3    H154542   2.934   5.735  12.474 -1.7918  0.8297  0.6954
11017TIP3    H254543   2.892   5.680  12.340 -1.2823  1.7192  0.1634
11018TIP3   OH254544   3.164   6.810   5.956  0.1410 -0.0221 -0.1355
11018TIP3    H154545   3.180   6.775   5.869  0.5769 -0.9032  0.2899
11018TIP3    H254546   3.180   6.904   5.947 -0.2821 -0.0325 -1.1078
11019TIP3   OH254547   5.884   2.717   1.798  1.0192  0.5473 -0.4264
11019TIP3    H154548   5.864   2.797   1.846 -0.0485 -0.1955  0.3881
11019TIP3    H254549   5.922   2.658   1.863  0.3177 -0.1780 -0.6579
11020TIP3   OH254550   4.560   0.582   0.756 -0.4225  0.2868  0.2714
11020TIP3    H154551   4.591   0.596   0.845  1.2362  0.1741 -0.2517
11020TIP3    H254552   4.497   0.653   0.740  1.2206  1.8883  0.6514
11021TIP3   OH254553   5.999   5.648  11.274 -0.7069  0.2756 -0.0667
11021TIP3    H154554   6.014   5.643  11.180  0.1036  1.0038  0.0139
11021TIP3    H254555   6.059   5.715  11.305 -2.1717  1.2717  0.7304
11022TIP3   OH254556   4.592   0.893  15.804  0.4587 -0.4443  0.1616
11022TIP3    H154557   4.567   0.806  15.834  2.3447 -0.1327  3.0175
11022TIP3    H254558   4.510   0.942  15.801 -0.5744 -2.1168 -1.0994
11023TIP3   OH254559   3.346   3.171   0.978 -0.1801 -0.1179 -0.2915
11023TIP3    H154560   3.311   3.260   0.983 -0.6567 -0.3646  1.7981
11023TIP3    H254561   3.319   3.130   1.060  0.9465 -1.8673 -0.7330
11024TIP3   OH254562   4.386   5.929   2.171 -0.2735 -0.0281 -0.6747
11024TIP3    H154563   4.393   5.981   2.091 -1.4831 -0.5956 -1.1732
11024TIP3    H254564   4.463   5.872   2.170  0.2588  0.6855 -0.8987
11025TIP3   OH254565   6.725   3.523  15.524 -0.2068  0.1554 -0.5772
11025TIP3    H154566   6.667   3.497  15.452  0.5970  0.0416 -1.2039
11025TIP3    H254567   6.736   3.617  15.514 -0.5348  0.2270 -0.2670
11026TIP3   OH254568   5.104   0.429  12.289  0.1011 -0.2233  0.3181
11026TIP3    H154569   5.157   0.473  12.222  2.9060 -0.1037  2.4889
11026TIP3    H254570   5.118   0.336  12.273 -1.5102 -0.3248 -0.8871
11027TIP3   OH254571   6.270   5.133   3.612 -0.2173 -0.4240 -0.8752
11027TIP3    H154572   6.201   5.164   3.672  0.3791  1.3206 -1.0492
11027TIP3    H254573   6.278   5.039   3.632 -1.0448 -0.1871  0.7519
11028TIP3   OH254574   5.611   5.154  12.985  0.4336  0.4483  0.6666
11028TIP3    H154575   5.613   5.192  13.073 -0.7681  0.7342  0.5869
11028TIP3    H254576   5.610   5.230  12.926 -0.0167  0.2777  0.4472
11029TIP3   OH254577   5.144   0.945   3.027  0.4687  0.5490 -0.0523
11029TIP3    H154578   5.165   1.036   3.004 -2.0699  0.7935 -1.7667
11029TIP3    H254579   5.057   0.949   3.066  0.1619 -1.1708 -0.4596
11030TIP3   OH254580   6.038   0.338  17.239 -0.4828 -0.3739  0.2546
11030TIP3    H154581   6.017   0.367  17.328 -1.3706 -0.4449  0.0812
11030TIP3    H254582   5.988   0.257  17.228 -0.8747 -0.0431 -0.5122
11031TIP3   OH254583   6.053   0.064  13.629 -0.0925 -0.3014  0.4627
11031TIP3    H154584   5.997   0.078  13.705 -0.8862 -1.6339  0.1527
11031TIP3    H254585   6.123   0.006  13.662 -0.5223 -1.0043  0.1562
11032TIP3   OH254586   5.267   4.080  15.939  0.1674  0.1185 -0.6618
11032TIP3    H154587   5.331   4.092  15.869  1.6751  1.7152  0.9072
11032TIP3    H254588   5.193   4.135  15.914  0.8283  0.9359 -0.8777
11033TIP3   OH254589   5.192   2.067  15.085 -0.2264  0.4218  0.0287
11033TIP3    H154590   5.133   2.117  15.141  0.6023  1.2170  0.2213
11033TIP3    H254591   5.248   2.018  15.146 -0.6743 -0.3418 -0.1513
11034TIP3   OH254592   0.688   0.303  17.029 -0.1130  0.2413  0.5893
11034TIP3    H154593   0.751   0.265  16.969  0.6952 -0.2179  1.6863
11034TIP3    H254594   0.659   0.383  16.986  0.3734 -0.1181 -0.4399
11035TIP3   OH254595   3.033   2.406  16.202 -0.1113  0.1113 -0.5609
11035TIP3    H154596   3.112   2.445  16.166  0.6350 -0.8935 -0.0656
11035TIP3    H254597   3.062   2.365  16.283 -0.9319 -1.1266 -0.8698
11036TIP3   OH254598   4.604   2.863  14.497 -0.8361  0.3575  0.0270
11036TIP3    H154599   4.575   2.821  14.578 -2.5372  0.3782 -0.5137
11036TIP3    H254600   4.631   2.951  14.525 -1.9046  0.5481  0.5333
11037TIP3   OH254601   3.392   2.986  12.461  0.2169  0.0978  0.1368
11037TIP3    H154602   3.307   2.953  12.431 -0.4063  1.2539  0.5866
11037TIP3    H254603   3.413   3.057  12.401 -0.1451  1.1822  1.2516
11038TIP3   OH254604   2.952   2.054  16.483 -0.1058 -0.1838  0.1863
11038TIP3    H154605   2.886   1.988  16.504  0.0077 -0.4040 -0.1468
11038TIP3    H254606   2.922   2.133  16.528  0.8806 -0.9891  2.3538
11039TIP3   OH254607   6.349   2.257   1.248  0.3948 -0.1962 -0.0230
11039TIP3    H154608   6.372   2.318   1.318 -2.0850 -0.6450  1.3117
11039TIP3    H254609   6.368   2.171   1.285 -0.5593 -0.4175 -0.0274
11040TIP3   OH254610   2.866   2.258  11.798  0.0550  0.9180  0.1825
11040TIP3    H154611   2.782   2.287  11.763 -1.1930 -3.9383 -1.7009
11040TIP3    H254612   2.849   2.243  11.891 -0.7454  1.2523  0.0971
11041TIP3   OH254613   6.101   1.861  16.819  0.0156 -0.0812 -0.1521
11041TIP3    H154614   6.031   1.829  16.876 -1.3904 -0.6848 -2.1097
11041TIP3    H254615   6.100   1.956  16.832  0.4392 -0.2859  1.5684
11042TIP3   OH254616   3.994   6.581  16.827 -0.5044  0.2817 -0.2265
11042TIP3    H154617   4.046   6.524  16.770 -1.4704 -0.5754 -0.2730
11042TIP3    H254618   4.037   6.666  16.820  0.6797 -0.3131 -0.5348
11043TIP3   OH254619   3.886   3.624   0.937 -0.2589 -0.5212 -0.1722
11043TIP3    H154620   3.821   3.636   1.006 -1.8950 -0.7543 -1.6097
11043TIP3    H254621   3.905   3.530   0.937  1.1715 -0.2718  1.1474
11044TIP3   OH254622   2.986   0.485   0.292  0.4319 -0.0432  0.3711
11044TIP3    H154623   2.990   0.501   0.198  0.9935 -0.3896  0.3324
11044TIP3    H254624   2.932   0.556   0.326 -2.4032 -1.5937 -0.5926
11045TIP3   OH254625   2.446   5.728   2.469 -0.3913  0.1283  0.0869
11045TIP3    H154626   2.532   5.720   2.427 -0.2057  1.1852  0.2355
11045TIP3    H254627   2.460   5.696   2.558 -0.9444 -2.7735 -0.7651
11046TIP3   OH254628   1.052   6.513  15.309  0.2379 -0.0417 -0.2279
11046TIP3    H154629   0.987   6.495  15.378 -0.0449 -0.3330 -0.5691
11046TIP3    H254630   1.066   6.608  15.315  0.2940 -0.0771  0.3002
11047TIP3   OH254631   2.739   0.143   3.544 -0.4288  0.0621  0.0662
11047TIP3    H154632   2.789   0.067   3.572 -0.6650  0.1018  0.6288
11047TIP3    H254633   2.738   0.200   3.621  0.0294  0.7820 -0.4509
11048TIP3   OH254634   0.329   0.700  13.164 -0.3969 -0.5726 -0.7617
11048TIP3    H154635   0.253   0.643  13.163 -0.2843 -0.7228 -1.4652
11048TIP3    H254636   0.329   0.740  13.251 -1.2844 -0.5540 -0.7654
11049TIP3   OH254637   2.617   5.569  14.338 -0.1673  0.1653 -0.3235
11049TIP3    H154638   2.524   5.564  14.361 -0.5428  0.0782 -1.7468
11049TIP3    H254639   2.619   5.553  14.243  1.3526 -0.3527 -0.2307
11050TIP3   OH254640   6.705   5.607   1.276  0.7728  0.0983  0.2645
11050TIP3    H154641   6.779   5.616   1.217  1.9300 -0.0659  1.6470
11050TIP3    H254642   6.666   5.522   1.254  0.1108  0.7894 -1.3942
11051TIP3   OH254643   5.555   6.324  11.785 -0.2453 -0.5130 -0.7680
11051TIP3    H154644   5.625   6.369  11.832 -2.6543  1.4050  1.2539
11051TIP3    H254645   5.529   6.387  11.717  0.6377 -1.6772 -2.2476
11052TIP3   OH254646   4.604   2.880  12.315  0.6598  0.5912 -0.2177
11052TIP3    H154647   4.544   2.888  12.389  0.4369  2.5374 -0.5653
11052TIP3    H254648   4.675   2.825  12.349 -0.6083 -0.6026  0.6322
11053TIP3   OH254649   2.693   1.174  15.275  0.1847 -0.5026  0.4165
11053TIP3    H154650   2.771   1.228  15.262 -0.3847  0.4428  0.8786
11053TIP3    H254651   2.676   1.179  15.369 -1.3950  0.6623  0.0969
11054TIP3   OH254652   3.935   1.026  13.630 -0.2277 -0.5507 -0.3576
11054TIP3    H154653   3.943   1.055  13.539 -1.9434 -0.9743 -0.6703
11054TIP3    H254654   3.874   1.088  13.670 -0.3862 -1.0419  0.1825
11055TIP3   OH254655   6.179   3.164   3.630  0.0167  0.0242 -0.9311
11055TIP3    H154656   6.192   3.126   3.544 -1.8716  1.0037 -1.7031
11055TIP3    H254657   6.151   3.254   3.613 -1.3351 -0.0447  0.6452
11056TIP3   OH254658   3.465   0.849  16.017  0.1059 -0.0090  0.8263
11056TIP3    H154659   3.475   0.938  15.985 -1.6010  0.4297  1.4072
11056TIP3    H254660   3.539   0.836  16.076 -0.3299  1.5056  1.7453
11057TIP3   OH254661   5.151   5.489   3.117 -0.2796 -0.9047 -0.1832
11057TIP3    H154662   5.174   5.506   3.209 -0.6948 -0.0957 -0.2158
11057TIP3    H254663   5.105   5.406   3.119 -1.7245 -0.1314  0.5946
11058TIP3   OH254664   0.528   4.091   0.138  0.4040 -0.0295 -0.4016
11058TIP3    H154665   0.619   4.063   0.149  0.7477  1.2854  0.3892
11058TIP3    H254666   0.528   4.141   0.057  1.2823  3.1151  1.3745
11059TIP3   OH254667   5.896   4.918   5.885 -0.0621 -0.1104 -0.6389
11059TIP3    H154668   5.919   4.894   5.975  0.5999  1.0920 -0.4702
11059TIP3    H254669   5.958   4.988   5.863  0.3024 -0.9270 -2.3109
11060TIP3   OH254670   6.301   6.561   5.697  0.1623 -0.1275 -0.2211
11060TIP3    H154671   6.316   6.649   5.732  2.3435 -0.1461 -0.9413
11060TIP3    H254672   6.283   6.507   5.774 -1.0375  0.8962  0.2443
11061TIP3   OH254673   0.566   0.122   3.947  0.2268  0.4810  0.4623
11061TIP3    H154674   0.570   0.030   3.972  0.9263 -0.0361 -1.3660
11061TIP3    H254675   0.641   0.162   3.992  0.1866  0.0496  0.9132
11062TIP3   OH254676   4.141   1.565  11.442  0.1202 -0.0222  0.0098
11062TIP3    H154677   4.139   1.642  11.385  3.1501 -1.5823 -2.5052
11062TIP3    H254678   4.080   1.503  11.401  2.2009 -1.0939 -1.6861
11063TIP3   OH254679   1.148   5.564  14.637 -0.3950 -0.4778 -0.2061
11063TIP3    H154680   1.070   5.591  14.685 -2.2892 -1.3742 -2.5975
11063TIP3    H254681   1.162   5.634  14.574 -0.8754 -1.5110 -1.5039
11064TIP3   OH254682   5.039   1.182  11.639  0.1356  0.3240 -0.2190
11064TIP3    H154683   5.050   1.249  11.571  1.9256  1.2023  0.8713
11064TIP3    H254684   4.995   1.110  11.594 -1.5801  2.0605 -1.5319
11065TIP3   OH254685   6.036   5.177  13.679  0.1661  0.1362  0.3298
11065TIP3    H154686   6.074   5.180  13.767 -0.4434 -1.0427  0.6513
11065TIP3    H254687   5.995   5.090  13.673  0.6498 -0.0119 -1.3094
11066TIP3   OH254688   0.431   4.152  15.888 -0.3219 -0.3995  0.0551
11066TIP3    H154689   0.450   4.166  15.980  0.2674  0.4525 -0.1819
11066TIP3    H254690   0.416   4.057  15.880 -1.4549 -0.3392  1.2007
11067TIP3   OH254691   6.635   6.793  10.830  0.0833  0.1884  0.0532
11067TIP3    H154692   6.603   6.883  10.836  1.7599  0.7019  3.0267
11067TIP3    H254693   6.730   6.800  10.836  0.3000 -1.7651 -0.2247
11068TIP3   OH254694   6.772   6.285   4.007  0.6673  0.3399 -0.4209
11068TIP3    H154695   6.811   6.359   4.054 -1.6063  0.6255  1.1702
11068TIP3    H254696   6.750   6.222   4.076  0.6204 -0.9220 -1.5389
11069TIP3   OH254697   1.968   4.819  13.560 -0.1643  0.3040  0.1209
11069TIP3    H154698   2.049   4.806  13.610 -0.3121  1.3414  0.6430
11069TIP3    H254699   1.924   4.733  13.564  2.0569 -1.0972 -2.3429
11070TIP3   OH254700   3.770   0.991   1.995  0.3288 -0.1617  0.1477
11070TIP3    H154701   3.703   1.050   2.030  2.4322  2.2450  0.4668
11070TIP3    H254702   3.790   1.027   1.908 -0.0211 -1.9476 -0.7230
11071TIP3   OH254703   3.890   6.567  15.283  0.4880  0.1434  0.6403
11071TIP3    H154704   3.935   6.643  15.322 -1.9044  1.5015  0.9388
11071TIP3    H254705   3.831   6.605  15.219 -0.7119 -1.4840  0.7357
11072TIP3   OH254706   0.470   4.172   0.899 -0.5357  0.8777 -0.0467
11072TIP3    H154707   0.560   4.204   0.897 -0.6481  1.2477  0.6392
11072TIP3    H254708   0.439   4.180   0.808  0.5233 -0.4460 -0.5638
11073TIP3   OH254709   3.811   6.053  16.285 -0.0236 -0.6509 -0.3249
11073TIP3    H154710   3.892   6.007  16.306  0.3733  0.2435  0.1537
11073TIP3    H254711   3.834   6.112  16.213 -0.0944  0.0131  0.1810
11074TIP3   OH254712   5.292   4.479   4.010  0.4847 -0.9259 -0.3338
11074TIP3    H154713   5.325   4.420   4.079  0.3236  1.4233  1.8791
11074TIP3    H254714   5.371   4.516   3.971  0.5473 -1.2537 -0.5288
11075TIP3   OH254715   2.601   6.239  14.736  0.3038 -0.5679  0.2077
11075TIP3    H154716   2.555   6.309  14.783  1.5111  0.2536  0.2266
11075TIP3    H254717   2.668   6.285  14.685 -0.0171 -1.5675 -1.1713
11076TIP3   OH254718   5.584   0.011  13.515  0.4720  0.1710  0.4244
11076TIP3    H154719   5.569   0.080  13.580  0.1353 -0.7503  1.3644
11076TIP3    H254720   5.537  -0.065  13.550 -0.3515 -0.1446 -1.3030
11077TIP3   OH254721   3.471   3.186  14.483  0.1097  0.1363 -0.0824
11077TIP3    H154722   3.549   3.210  14.534  0.4241 -1.7498  0.3988
11077TIP3    H254723   3.403   3.173  14.549 -0.4184  0.9978 -0.4440
11078TIP3   OH254724   4.014   6.097   1.349  0.3808  0.4068 -0.4468
11078TIP3    H154725   4.027   6.115   1.256  0.4257 -1.0739 -0.7450
11078TIP3    H254726   3.976   6.178   1.384 -0.1300  0.8038 -1.8604
11079TIP3   OH254727   5.479   0.367  15.670  0.5325 -0.6037  0.5891
11079TIP3    H154728   5.446   0.403  15.588 -1.3614 -0.0890  1.5317
11079TIP3    H254729   5.481   0.272  15.655  1.9185 -0.4190 -0.6163
11080TIP3   OH254730   5.331   2.746   1.286 -0.2682  0.4162 -0.7022
11080TIP3    H154731   5.240   2.775   1.280 -0.3677  0.5805  1.2178
11080TIP3    H254732   5.376   2.797   1.219 -1.3380  1.3600 -0.7365
11081TIP3   OH254733   1.875   0.807  11.474  0.1525  0.0929 -0.1378
11081TIP3    H154734   1.809   0.872  11.500 -0.5262  0.4898 -2.5738
11081TIP3    H254735   1.938   0.856  11.421  1.5086 -0.6207  0.7610
11082TIP3   OH254736   4.132   3.195  16.567  0.0959  0.0745  0.2056
11082TIP3    H154737   4.152   3.140  16.492 -1.8415  1.0540 -1.1137
11082TIP3    H254738   4.126   3.134  16.641  0.5795 -1.1117 -0.7087
11083TIP3   OH254739   2.249   5.834  13.314  0.9270 -0.3985  0.6621
11083TIP3    H154740   2.184   5.882  13.366 -0.1868 -2.5661  1.4057
11083TIP3    H254741   2.334   5.864  13.349  0.2733  0.4195  1.6194
11084TIP3   OH254742   3.916   5.690   0.077  0.2735 -0.2227  0.2103
11084TIP3    H154743   3.962   5.641   0.145 -0.2381 -0.2005  0.5780
11084TIP3    H254744   3.934   5.642  -0.003  0.3781 -0.6003  0.4540
11085TIP3   OH254745   6.147   0.935  11.646  0.1439  0.0570  0.8356
11085TIP3    H154746   6.064   0.976  11.670  0.2687  0.3606  0.7496
11085TIP3    H254747   6.126   0.882  11.569  0.4579  1.7937 -0.5049
11086TIP3   OH254748   5.850   1.452  11.489 -0.1625 -0.1133  0.2227
11086TIP3    H154749   5.856   1.511  11.564  1.6961 -0.7080  0.6100
11086TIP3    H254750   5.917   1.385  11.506 -1.3969 -1.6601 -0.7806
11087TIP3   OH254751   6.208   3.115   1.414 -0.1607  0.0821  0.0051
11087TIP3    H154752   6.287   3.128   1.361 -0.0894  1.1528  0.3322
11087TIP3    H254753   6.137   3.150   1.360 -0.3581 -0.5181 -0.1275
11088TIP3   OH254754   4.379   5.590  14.735 -0.0431  0.0939 -0.0469
11088TIP3    H154755   4.423   5.511  14.768 -2.3205 -0.6662  1.3683
11088TIP3    H254756   4.375   5.649  14.809 -0.0537  0.7711 -0.5775
11089TIP3   OH254757   6.726   4.243  12.540  0.6440 -0.3449  0.1174
11089TIP3    H154758   6.722   4.149  12.557 -0.8446 -0.7241 -1.8526
11089TIP3    H254759   6.738   4.283  12.626 -1.4350 -2.1951  1.3646
11090TIP3   OH254760   2.611   5.481  15.643  0.1015 -0.6197  0.1653
11090TIP3    H154761   2.679   5.545  15.665 -0.9427  1.8108 -2.9237
11090TIP3    H254762   2.657   5.412  15.595  0.5804  0.7213 -1.4049
11091TIP3   OH254763   6.412   5.699  10.218  0.0085 -0.3371 -0.4510
11091TIP3    H154764   6.480   5.721  10.282 -0.3442  2.3400 -0.9011
11091TIP3    H254765   6.334   5.745  10.249  0.2401  2.5011 -3.6081
11092TIP3   OH254766   4.151   6.814  13.894  0.6149 -0.8111 -0.3220
11092TIP3    H154767   4.168   6.904  13.921 -2.7992 -0.0187 -0.3719
11092TIP3    H254768   4.169   6.761  13.972  0.9343  0.1402  0.2545
11093TIP3   OH254769   0.202   4.576  16.477  0.3243 -0.0105  0.1323
11093TIP3    H154770   0.111   4.547  16.471  0.7713 -1.2920 -1.3256
11093TIP3    H254771   0.215   4.630  16.399  1.3266 -1.5260 -0.8137
11094TIP3   OH254772   0.838   5.554  11.449 -0.3689  0.3290  0.0237
11094TIP3    H154773   0.900   5.499  11.497 -0.4264 -1.7429 -2.1310
11094TIP3    H254774   0.755   5.541  11.495 -0.1905 -0.6985  0.0716
11095TIP3   OH254775   1.144   3.617   2.489  0.0754 -0.4727 -0.1371
11095TIP3    H154776   1.168   3.693   2.436  0.4435 -0.1717  0.4369
11095TIP3    H254777   1.219   3.558   2.482  1.6400  0.9735  2.5906
11096TIP3   OH254778   6.239   4.533   6.191 -0.8503 -0.4552  0.2724
11096TIP3    H154779   6.299   4.460   6.171 -1.2574 -0.8215  0.3627
11096TIP3    H254780   6.197   4.507   6.273 -2.1039 -0.8284 -0.4681
11097TIP3   OH254781   4.516   2.394  12.066  0.1450  0.1185  0.0710
11097TIP3    H154782   4.583   2.353  12.012  0.7878  0.5423  0.5353
11097TIP3    H254783   4.442   2.332  12.064  0.3214 -0.0785 -0.9152
11098TIP3   OH254784   4.620   3.594   1.136  0.7687  0.2670  0.0443
11098TIP3    H154785   4.664   3.546   1.206 -3.2609 -1.7180  1.5414
11098TIP3    H254786   4.582   3.527   1.080 -1.8758  1.6638 -0.0018
11099TIP3   OH254787   1.874   3.413   3.854 -0.3195  0.2364  0.2283
11099TIP3    H154788   1.954   3.372   3.822  0.1319  0.3650  1.1655
11099TIP3    H254789   1.890   3.429   3.947 -1.3373  0.4967  0.3756
11100TIP3   OH254790   0.440   1.004  14.189  0.0392  0.0848  0.0545
11100TIP3    H154791   0.414   0.965  14.273 -1.7642 -0.2826 -0.6346
11100TIP3    H254792   0.535   0.994  14.187  0.0207 -0.7821  1.6160
11101TIP3   OH254793   5.400   1.526  13.411 -0.3370  0.0063 -0.0993
11101TIP3    H154794   5.397   1.434  13.382 -1.3578 -0.1614  0.4869
11101TIP3    H254795   5.327   1.534  13.473  1.3955  0.4946  2.0122
11102TIP3   OH254796   4.782   5.822  16.377 -0.3101  0.0076 -0.5522
11102TIP3    H154797   4.800   5.913  16.355 -0.2758 -0.1132 -1.0511
11102TIP3    H254798   4.859   5.794  16.427  0.6809 -0.3337 -2.1685
11103TIP3   OH254799   2.992   5.175   2.278 -0.3669 -0.1967  0.3670
11103TIP3    H154800   3.062   5.238   2.295  0.5935 -0.9843 -0.5418
11103TIP3    H254801   3.010   5.142   2.190 -2.7333  0.6365 -0.5048
11104TIP3   OH254802   5.883   4.787   2.217 -0.4328 -0.3392  0.2849
11104TIP3    H154803   5.860   4.875   2.187  0.1446  0.2066  1.3773
11104TIP3    H254804   5.977   4.792   2.235  0.0673 -1.7815 -1.6263
11105TIP3   OH254805   0.857   4.466   0.240  0.1526  0.0502  0.0852
11105TIP3    H154806   0.842   4.426   0.154 -0.6955  1.8118 -0.6408
11105TIP3    H254807   0.876   4.558   0.220 -0.8226  0.6650  1.8170
11106TIP3   OH254808   3.696   0.479   5.901 -0.4088 -0.1318 -0.3491
11106TIP3    H154809   3.791   0.487   5.905 -0.4660  0.0515  1.6997
11106TIP3    H254810   3.670   0.537   5.830  1.0980 -1.3715 -1.9945
11107TIP3   OH254811   6.812   4.368   5.960  0.0355  0.7749 -0.5321
11107TIP3    H154812   6.883   4.305   5.968 -1.7585 -1.2080  0.9930
11107TIP3    H254813   6.819   4.402   5.871  1.7031 -0.8037 -1.0482
11108TIP3   OH254814   1.082   2.627   6.604 -0.0899  0.1949 -0.4704
11108TIP3    H154815   1.079   2.535   6.630 -0.0948 -0.0212 -1.2107
11108TIP3    H254816   0.994   2.646   6.572  0.0371  0.3291 -0.7421
11109TIP3   OH254817   4.812   5.837  10.634 -0.2121  0.2903  0.3106
11109TIP3    H154818   4.778   5.765  10.686  0.2544  0.4034  0.7891
11109TIP3    H254819   4.877   5.797  10.576 -0.3211  0.2506  0.2157
11110TIP3   OH254820   4.144   5.964   4.543 -0.1380  0.1517  0.0045
11110TIP3    H154821   4.187   6.048   4.529 -0.0027  0.2811  1.1180
11110TIP3    H254822   4.200   5.919   4.606 -0.8241 -0.3007  0.2987
11111TIP3   OH254823   5.286   2.664  11.698  0.1148 -0.0165  0.2375
11111TIP3    H154824   5.215   2.610  11.665  1.0753 -0.9711 -0.3260
11111TIP3    H254825   5.313   2.718  11.624  1.9783 -1.8459 -0.4984
11112TIP3   OH254826   2.307   3.019  15.063  0.0385  0.2118  0.1235
11112TIP3    H154827   2.289   3.065  15.145  1.4245 -1.4022  1.4136
11112TIP3    H254828   2.287   2.927  15.082  0.5164 -0.2166 -1.2912
11113TIP3   OH254829   0.009   0.395   2.854  0.5881  0.3898 -0.3835
11113TIP3    H154830  -0.047   0.338   2.907  2.9756 -0.1249  1.7732
11113TIP3    H254831   0.028   0.470   2.911 -0.0191  1.9084 -2.0668
11114TIP3   OH254832   6.233   2.045  15.789  0.5045  0.0765  0.2715
11114TIP3    H154833   6.206   2.001  15.870  0.9088 -1.5443 -0.4524
11114TIP3    H254834   6.174   2.120  15.783 -1.5579 -1.4394  0.5291
11115TIP3   OH254835   2.676   2.465   3.859  0.4186  0.0001 -0.2454
11115TIP3    H154836   2.763   2.454   3.896  0.3400  0.4543  0.0907
11115TIP3    H254837   2.691   2.480   3.766  0.4965 -3.4895 -0.9027
11116TIP3   OH254838   0.405   0.475  17.072 -0.9099 -0.0734  0.0074
11116TIP3    H154839   0.434   0.395  17.027 -2.5841 -0.7609  0.0579
11116TIP3    H254840   0.430   0.461  17.163  1.0260  0.6017 -0.3718
11117TIP3   OH254841   0.320   5.561  14.505  0.2433  0.7922 -0.0416
11117TIP3    H154842   0.247   5.558  14.444 -0.2704  1.4791  0.5182
11117TIP3    H254843   0.398   5.545  14.451 -0.3743 -0.9258 -0.4942
11118TIP3   OH254844   1.379   1.189   0.472 -0.1175 -0.2409 -0.3875
11118TIP3    H154845   1.338   1.103   0.483 -1.0417  0.2477  0.0208
11118TIP3    H254846   1.361   1.236   0.553  0.1145  0.4557 -0.7290
11119TIP3   OH254847   6.193   1.817   0.167 -0.0451  0.4294  0.9903
11119TIP3    H154848   6.165   1.727   0.182  0.5437  0.4447  2.3171
11119TIP3    H254849   6.143   1.845   0.090 -1.2221 -0.5951  1.3424
11120TIP3   OH254850   6.788   6.519  15.867 -0.0010 -0.3835  0.2995
11120TIP3    H154851   6.733   6.564  15.803 -0.0533  0.1847  0.7334
11120TIP3    H254852   6.865   6.491  15.817  0.0792  0.2853  0.0373
11121TIP3   OH254853   4.249   5.741  13.974  0.3851 -1.0411 -0.0053
11121TIP3    H154854   4.241   5.727  14.069 -0.5566  1.4505  0.3748
11121TIP3    H254855   4.340   5.766  13.961  0.2589 -0.3213  0.4421
11122TIP3   OH254856   2.495   3.291  14.395  0.5019  0.0918 -0.3727
11122TIP3    H154857   2.519   3.208  14.436 -0.6090 -1.9417 -3.4752
11122TIP3    H254858   2.530   3.358  14.453  1.4833 -2.5254  2.2674
11123TIP3   OH254859   1.987   1.327   1.867  0.3532 -0.1069 -0.3090
11123TIP3    H154860   1.927   1.359   1.799 -2.0567  0.0399  1.7293
11123TIP3    H254861   2.054   1.395   1.874 -1.0054  1.3243 -0.5488
11124TIP3   OH254862   4.756   3.424   0.353  0.2189 -0.4147 -0.0964
11124TIP3    H154863   4.711   3.500   0.318 -0.2374 -0.7555 -0.2628
11124TIP3    H254864   4.687   3.372   0.394  0.7960  0.2652  1.8792
11125TIP3   OH254865   6.792   0.622  14.341 -0.2408 -0.0329 -0.1380
11125TIP3    H154866   6.755   0.679  14.408 -0.8353  0.3223 -0.7486
11125TIP3    H254867   6.885   0.616  14.362 -0.5610 -0.6255  1.2024
11126TIP3   OH254868   3.129   6.639  12.736 -0.0542 -0.0140 -0.0664
11126TIP3    H154869   3.141   6.550  12.705 -0.8747 -0.0398 -0.3451
11126TIP3    H254870   3.212   6.662  12.778 -0.9154 -2.1048  3.1122
11127TIP3   OH254871   6.826   4.600   4.495  0.0019  0.3562  0.3518
11127TIP3    H154872   6.841   4.609   4.589  1.7621  0.8575  0.0692
11127TIP3    H254873   6.748   4.653   4.477  0.5658  1.5482  1.2949
11128TIP3   OH254874   4.187   2.983  12.589  0.2117  0.4640  0.8569
11128TIP3    H154875   4.201   3.059  12.644  1.1873  0.0876  1.1378
11128TIP3    H254876   4.179   2.910  12.650 -0.5595  0.3089  0.5838
11129TIP3   OH254877   1.780   1.481  10.424  0.2809  0.0525  0.2050
11129TIP3    H154878   1.735   1.516  10.347  1.3214  0.1840 -0.3588
11129TIP3    H254879   1.716   1.488  10.494 -0.5934  0.1839 -0.5879
11130TIP3   OH254880   5.474   2.964   2.014 -0.3709 -0.6798  0.3994
11130TIP3    H154881   5.398   2.971   2.071  0.3754 -0.5223  1.4140
11130TIP3    H254882   5.548   2.993   2.068  0.4696 -1.2043 -0.4214
11131TIP3   OH254883   5.225   3.730   2.287 -0.1393  0.6638  0.1366
11131TIP3    H154884   5.284   3.655   2.288 -0.9411  0.0065 -0.6362
11131TIP3    H254885   5.245   3.775   2.205 -0.1696  0.8948  0.2539
11132TIP3   OH254886   3.174   3.404  12.832 -0.4727  0.2311  0.0448
11132TIP3    H154887   3.218   3.489  12.830 -0.5824  0.2668 -1.2254
11132TIP3    H254888   3.209   3.356  12.757 -0.3730 -0.8774  0.7762
11133TIP3   OH254889   5.114   1.238   4.961 -0.3055 -0.1127  0.1498
11133TIP3    H154890   5.165   1.307   5.004  0.9569 -0.7157 -0.3407
11133TIP3    H254891   5.037   1.227   5.017  0.1348  0.7487  0.9606
11134TIP3   OH254892   0.448   0.254   6.058 -0.2952 -0.2445 -0.3384
11134TIP3    H154893   0.360   0.241   6.024  0.3528 -1.3685 -1.7145
11134TIP3    H254894   0.503   0.262   5.979  1.0989 -1.7109  0.4080
11135TIP3   OH254895   5.566   2.388   6.297  0.4343 -0.5210  0.0417
11135TIP3    H154896   5.543   2.300   6.328 -0.7194  0.0484  0.8683
11135TIP3    H254897   5.499   2.408   6.232  0.4038 -0.0730  0.2100
11136TIP3   OH254898   4.158   4.786  16.344 -0.3411 -0.5729 -0.2395
11136TIP3    H154899   4.140   4.725  16.415  0.9052  0.1325  0.7093
11136TIP3    H254900   4.242   4.825  16.366 -0.5569  0.6347 -1.4235
11137TIP3   OH254901   6.394   5.151  15.670  0.0085 -0.1304 -0.3712
11137TIP3    H154902   6.371   5.242  15.651 -0.6264 -0.0003  0.8641
11137TIP3    H254903   6.366   5.138  15.761  0.3265 -1.4874 -0.4412
11138TIP3   OH254904   6.061   4.951  16.198  0.2129 -0.1120 -0.4557
11138TIP3    H154905   6.032   4.884  16.260 -0.7804  0.7776  0.0765
11138TIP3    H254906   6.012   4.933  16.118  1.0596 -0.9110 -0.7991
11139TIP3   OH254907   5.470   4.017  14.586  0.1946 -0.3836  0.1355
11139TIP3    H154908   5.522   4.098  14.589  0.4148 -0.5481  1.7852
11139TIP3    H254909   5.422   4.023  14.503  0.0601  1.5372  0.2951
11140TIP3   OH254910   1.450   5.570   5.994 -0.3692  0.1107 -0.2432
11140TIP3    H154911   1.536   5.596   6.025 -0.4742 -0.8515  0.9367
11140TIP3    H254912   1.390   5.605   6.060 -0.8703  0.5435 -0.9145
11141TIP3   OH254913   6.284   4.893   3.509  0.0220 -0.3010 -0.0465
11141TIP3    H154914   6.275   4.916   3.416 -0.0668  0.4294  0.1387
11141TIP3    H254915   6.290   4.797   3.509  1.2480 -0.2573 -0.9122
11142TIP3   OH254916   0.256   0.818   4.535 -0.1645  0.1244  0.2164
11142TIP3    H154917   0.256   0.745   4.596 -1.1474 -3.1844 -3.3130
11142TIP3    H254918   0.172   0.812   4.490  0.7937  1.7906 -2.0224
11143TIP3   OH254919   0.315   0.225   3.996  0.9042  0.1321 -0.0780
11143TIP3    H154920   0.293   0.185   3.912  1.5441 -0.7254  0.1459
11143TIP3    H254921   0.406   0.253   3.986  1.1565 -0.4482  0.4859
11144TIP3   OH254922   6.786   1.354  16.955  0.6717 -0.0626 -0.0923
11144TIP3    H154923   6.847   1.425  16.975  2.0371 -1.1553 -0.2299
11144TIP3    H254924   6.710   1.371  17.011  1.3472  0.9899  0.5334
11145TIP3   OH254925   6.482   3.180   3.340 -0.5789 -0.3082  0.2642
11145TIP3    H154926   6.417   3.116   3.368  0.0054 -0.7501  0.6389
11145TIP3    H254927   6.528   3.137   3.268 -1.7653  0.6375 -1.1135
11146TIP3   OH254928   3.879   2.205  15.752  0.5103 -0.1562 -0.6445
11146TIP3    H154929   3.823   2.183  15.827  0.2647  1.9529 -0.1613
11146TIP3    H254930   3.938   2.272  15.784 -0.5266  1.8591 -2.6713
11147TIP3   OH254931   3.061   2.034   5.750  0.3928 -0.0681  0.0833
11147TIP3    H154932   2.996   2.033   5.680  0.5461 -0.9209 -0.0636
11147TIP3    H254933   3.056   1.947   5.789  2.6463 -0.8154 -1.0874
11148TIP3   OH254934   2.832   0.920  13.969 -0.4001  0.5629  0.3266
11148TIP3    H154935   2.747   0.876  13.975  0.0735 -0.1928  2.0961
11148TIP3    H254936   2.879   0.891  14.047  1.5278  0.9076 -0.6643
11149TIP3   OH254937   2.583   5.061  16.936  0.4648 -0.1607 -0.3439
11149TIP3    H154938   2.672   5.051  16.970  1.1580  0.7313 -1.7887
11149TIP3    H254939   2.565   5.154  16.943  0.1731 -0.1368 -1.2633
11150TIP3   OH254940   1.774   3.385  15.557  0.1659 -0.4946  1.1587
11150TIP3    H154941   1.836   3.373  15.629  1.5614 -3.4342 -0.3459
11150TIP3    H254942   1.811   3.457  15.506  0.6426 -0.1866  1.9175
11151TIP3   OH254943   4.834   1.893  14.160  0.3176 -0.1833  0.2065
11151TIP3    H154944   4.858   1.803  14.140 -0.9856 -0.4380 -0.3047
11151TIP3    H254945   4.865   1.943  14.084  0.0686 -0.3696 -0.0215
11152TIP3   OH254946   0.727   0.241   1.563 -0.4060  0.1130 -0.2386
11152TIP3    H154947   0.763   0.164   1.520  1.0104 -0.7172  2.2003
11152TIP3    H254948   0.649   0.208   1.608 -0.5195  0.3879 -0.2333
11153TIP3   OH254949   6.083   6.778  11.361  0.0121  0.2953 -0.0121
11153TIP3    H154950   6.033   6.859  11.367 -0.3526  0.1720 -1.1568
11153TIP3    H254951   6.101   6.754  11.452 -1.9324  0.3953  0.4404
11154TIP3   OH254952   1.562   6.388  16.836 -0.3610  0.1150 -0.7504
11154TIP3    H154953   1.621   6.425  16.902  0.2087 -1.7802 -0.1100
11154TIP3    H254954   1.575   6.442  16.758  0.5884  1.0663  0.0466
11155TIP3   OH254955   0.951   6.183  12.421 -0.2043  0.1829  0.0682
11155TIP3    H154956   0.995   6.168  12.338 -0.1919  1.0165 -0.0900
11155TIP3    H254957   1.009   6.242  12.469  0.1570 -0.8863  0.9903
11156TIP3   OH254958   5.082   6.313  11.708  0.6776 -0.8798 -0.5236
11156TIP3    H154959   5.017   6.279  11.768 -0.2458 -1.6960 -1.9395
11156TIP3    H254960   5.036   6.381  11.658  0.7859 -1.6423 -1.7149
11157TIP3   OH254961   6.262   0.026  13.125  0.5937  0.1265 -0.0965
11157TIP3    H154962   6.251   0.055  13.216 -1.8350  0.5974 -0.4666
11157TIP3    H254963   6.275   0.107  13.076 -0.3637  0.1138 -0.4050
11158TIP3   OH254964   1.996   5.662  13.749 -0.1568  0.0855  0.0417
11158TIP3    H154965   2.088   5.635  13.751  0.2797  1.5258  1.6824
11158TIP3    H254966   1.996   5.739  13.692 -0.2093  0.5369  0.6507
11159TIP3   OH254967   3.780   5.084  13.581 -0.2021 -0.2825 -0.1910
11159TIP3    H154968   3.704   5.106  13.526 -1.0963 -2.6380  0.0235
11159TIP3    H254969   3.851   5.069  13.518 -0.5981 -0.6210 -0.5630
11160TIP3   OH254970   1.112   2.993  14.937 -0.2765  0.4348 -0.2298
11160TIP3    H154971   1.035   2.976  14.991  0.4895 -0.8523  0.5008
11160TIP3    H254972   1.121   3.089  14.937 -0.2289  0.4786  2.0704
11161TIP3   OH254973   5.822   3.433   1.821 -0.6686 -0.0195  0.0227
11161TIP3    H154974   5.886   3.485   1.772  0.4816 -0.0485  1.4597
11161TIP3    H254975   5.842   3.342   1.799  0.0136 -0.0453  0.7206
11162TIP3   OH254976   2.771   3.301  14.231 -0.3418  0.5110  0.2965
11162TIP3    H154977   2.677   3.287  14.235 -0.3873 -0.0900 -1.5948
11162TIP3    H254978   2.801   3.242  14.161  1.0922  2.2801 -0.6768
11163TIP3   OH254979   5.605   3.051   5.574  0.0140  0.1745 -0.1440
11163TIP3    H154980   5.692   3.038   5.611 -0.1197 -1.3173 -0.3086
11163TIP3    H254981   5.546   3.010   5.638 -0.4503 -0.0508 -0.7166
11164TIP3   OH254982   6.169   2.579   0.940  0.1543  0.5086  0.1541
11164TIP3    H154983   6.221   2.660   0.938 -0.4722  0.8972 -0.7489
11164TIP3    H254984   6.116   2.583   0.860 -0.6974 -0.2597  0.6748
11165TIP3   OH254985   3.935   2.491   5.431  0.6594 -0.0804  0.4402
11165TIP3    H154986   3.987   2.417   5.461  0.7459  0.3946  1.5210
11165TIP3    H254987   3.999   2.562   5.420  0.4298  0.1393  0.5023
11166TIP3   OH254988   5.106   6.593   1.731 -0.3299 -0.0636 -0.0803
11166TIP3    H154989   5.035   6.583   1.794 -1.1764  1.8175 -0.6598
11166TIP3    H254990   5.184   6.608   1.785 -0.9643  1.0804  0.5588
11167TIP3   OH254991   0.114   4.844  17.045  0.0728 -0.0074 -0.3703
11167TIP3    H154992   0.085   4.759  17.080 -0.1784 -0.1350 -0.8721
11167TIP3    H254993   0.209   4.838  17.044  0.1729  0.5976  1.7458
11168TIP3   OH254994   0.530   5.125  16.634 -0.7236  0.2054 -0.2132
11168TIP3    H154995   0.529   5.098  16.542 -1.3024  1.8860 -0.7448
11168TIP3    H254996   0.618   5.158  16.648 -0.2433 -1.1896  0.2273
11169TIP3   OH254997   0.643   6.022   3.606 -0.1226 -0.2202  0.4116
11169TIP3    H154998   0.687   6.047   3.525 -1.2993 -0.4432 -0.3171
11169TIP3    H254999   0.708   5.970   3.653  0.5702 -0.1044 -0.3884
11170TIP3   OH255000   4.377   0.129  12.181 -0.3986  0.5630 -0.4872
11170TIP3    H155001   4.291   0.124  12.222 -0.3810  2.5122 -0.0962
11170TIP3    H255002   4.426   0.056  12.219 -0.4795  2.0561  2.8226
11171TIP3   OH255003   1.381   2.999  14.976 -0.2160  0.0945 -0.0851
11171TIP3    H155004   1.354   2.932  15.039  0.6040  0.0161  0.1896
11171TIP3    H255005   1.299   3.026  14.934 -0.7110 -0.2088  0.6559
11172TIP3   OH255006   1.024   5.611  11.774 -0.1890 -0.5409  0.1665
11172TIP3    H155007   1.111   5.638  11.807 -0.7207  1.8915 -0.2032
11172TIP3    H255008   1.042   5.571  11.689  0.4897  1.6816 -0.8104
11173TIP3   OH255009   0.529   4.530  15.029  0.1852  0.0945 -0.0123
11173TIP3    H155010   0.552   4.600  14.968  1.2533 -0.2770 -0.0613
11173TIP3    H255011   0.445   4.557  15.066  1.2635  2.1820  1.1166
11174TIP3   OH255012   0.777   5.225   4.929  0.6284  0.3012  0.0273
11174TIP3    H155013   0.754   5.224   4.836 -0.5522  0.9996  0.2963
11174TIP3    H255014   0.724   5.154   4.966 -1.3143  1.9832  0.6672
11175TIP3   OH255015   4.724   0.868  16.582 -0.3745 -0.0700  0.3195
11175TIP3    H155016   4.689   0.793  16.534  1.2413 -0.3246 -0.5357
11175TIP3    H255017   4.676   0.943  16.548 -1.4384 -0.6049  0.5990
11176TIP3   OH255018   5.721   4.030   0.930 -0.0890  0.7334 -0.0422
11176TIP3    H155019   5.671   3.949   0.931  0.6616  0.2340  2.3978
11176TIP3    H255020   5.812   4.002   0.917  0.1367  1.1918  0.5080
11177TIP3   OH255021   2.184   4.555  14.630  0.4018 -0.6553 -0.5969
11177TIP3    H155022   2.176   4.500  14.708  0.7372  1.0290  0.6701
11177TIP3    H255023   2.109   4.614  14.635  1.3023  0.5156 -0.6886
11178TIP3   OH255024   5.749   1.226   5.197  0.1973 -0.2156 -0.2641
11178TIP3    H155025   5.662   1.190   5.180 -0.5286  1.3714 -0.1527
11178TIP3    H255026   5.808   1.173   5.143 -1.3069  1.0190 -3.3952
11179TIP3   OH255027   1.655   0.936  11.608  0.1805 -0.4018 -0.5554
11179TIP3    H155028   1.606   0.857  11.629 -1.2715  0.7020  0.4493
11179TIP3    H255029   1.619   1.003  11.667  2.8528  0.5205  0.1647
11180TIP3   OH255030   4.390   4.511   4.149 -0.1998  0.4547  0.5253
11180TIP3    H155031   4.454   4.578   4.123 -0.3066  0.2880 -0.1910
11180TIP3    H255032   4.439   4.429   4.144 -0.0779  0.4677  1.3723
11181TIP3   OH255033   0.132   2.634   1.875  0.0156 -0.6289 -0.1741
11181TIP3    H155034   0.109   2.604   1.963 -1.2911  0.7476 -0.0037
11181TIP3    H255035   0.099   2.565   1.817 -0.6729 -0.7306  0.3266
11182TIP3   OH255036   1.468   2.868  16.347 -0.0896 -0.1399  0.2971
11182TIP3    H155037   1.503   2.854  16.259 -1.5543  1.4290 -0.5875
11182TIP3    H255038   1.388   2.815  16.349 -0.2090  0.0553  0.5873
11183TIP3   OH255039   5.386   5.647  16.550  0.2010  0.1129 -0.0876
11183TIP3    H155040   5.418   5.691  16.628 -0.4499 -0.2021  0.3694
11183TIP3    H255041   5.308   5.600  16.579  1.3851 -2.1330 -0.3168
11184TIP3   OH255042   4.840   2.729   2.823  0.3470 -0.1959 -0.2561
11184TIP3    H155043   4.801   2.680   2.752  0.1446  1.1612 -1.1249
11184TIP3    H255044   4.933   2.735   2.800  0.5068 -0.7729  0.2181
11185TIP3   OH255045   0.568   2.393  17.126  0.4319 -0.0733  0.4330
11185TIP3    H155046   0.475   2.373  17.133  0.0885  1.4361  0.6683
11185TIP3    H255047   0.590   2.379  17.034 -0.6217  1.7777 -0.1446
11186TIP3   OH255048   3.512   3.184  14.039 -0.0030  0.4436 -0.0074
11186TIP3    H155049   3.434   3.235  14.018  1.5701  2.9544 -0.2590
11186TIP3    H255050   3.493   3.144  14.124 -0.7302  2.9496  1.1019
11187TIP3   OH255051   5.275   2.761   1.735  0.3562 -0.0588  0.3430
11187TIP3    H155052   5.217   2.687   1.722 -0.4029  0.6116 -0.1391
11187TIP3    H255053   5.321   2.741   1.817 -0.4720 -0.6470  0.6763
11188TIP3   OH255054   3.051   2.418  12.200 -0.0020  0.0622  0.1024
11188TIP3    H155055   3.097   2.454  12.124 -1.7853 -0.6698 -1.4211
11188TIP3    H255056   2.964   2.458  12.197 -0.2883 -0.3863  1.4689
11189TIP3   OH255057   0.638   5.806   1.808 -0.9356  0.4022  0.0296
11189TIP3    H155058   0.628   5.768   1.721 -0.3815  0.6558 -0.1499
11189TIP3    H255059   0.564   5.771   1.858 -1.1979  0.1711 -0.5098
11190TIP3   OH255060   5.130   4.018  11.267 -0.0381  0.0862 -0.1608
11190TIP3    H155061   5.191   3.980  11.330 -0.9387 -1.7885 -0.3260
11190TIP3    H255062   5.175   4.011  11.183  0.0561 -0.0697 -0.0985
11191TIP3   OH255063   1.998   4.993   0.077  0.6265  0.5183 -0.1111
11191TIP3    H155064   1.941   5.013   0.003  0.1900  1.5335  0.4907
11191TIP3    H255065   1.943   5.004   0.154  0.9109 -1.0898  0.3696
11192TIP3   OH255066   6.578   0.785  12.378 -0.4861 -0.5371 -0.2715
11192TIP3    H155067   6.627   0.749  12.304  1.2890  0.6068  0.2950
11192TIP3    H255068   6.612   0.737  12.454  1.1493  1.4753  0.3544
11193TIP3   OH255069   4.369   6.625   6.303  0.1098  0.3923  0.1108
11193TIP3    H155070   4.281   6.651   6.333 -0.6749  0.6930 -2.2661
11193TIP3    H255071   4.402   6.702   6.257  1.1362 -0.1439 -0.0721
11194TIP3   OH255072   3.931   0.620  12.702 -0.0261  0.4333 -0.2544
11194TIP3    H155073   4.000   0.682  12.680 -0.4359  0.4791 -1.4660
11194TIP3    H255074   3.899   0.649  12.787 -0.0704  1.7582 -0.7065
11195TIP3   OH255075   4.278   5.430   1.932  0.4616 -0.2321 -0.2947
11195TIP3    H155076   4.213   5.470   1.874 -0.2974 -1.1897 -0.1276
11195TIP3    H255077   4.360   5.438   1.883  0.2144  0.8510 -0.5758
11196TIP3   OH255078   5.792   6.719  11.688  0.6083 -0.4814  0.6856
11196TIP3    H155079   5.773   6.811  11.669 -0.8851 -0.5945  1.5080
11196TIP3    H255080   5.817   6.718  11.781  2.7668 -0.6483  0.1679
11197TIP3   OH255081   1.733   0.453  11.193 -0.4650  0.2151 -0.0290
11197TIP3    H155082   1.796   0.445  11.264  0.6149  1.6129 -0.7881
11197TIP3    H255083   1.771   0.404  11.121 -0.2454  0.9954 -0.4631
11198TIP3   OH255084   5.381   2.311  12.505  1.1386  0.1081 -0.4196
11198TIP3    H155085   5.353   2.387  12.557  0.3915  0.8731 -1.8722
11198TIP3    H255086   5.322   2.241  12.532 -0.0351  0.8183 -1.0565
11199TIP3   OH255087   2.282   2.870  17.122  0.0210  0.1116  0.7355
11199TIP3    H155088   2.335   2.907  17.050  0.1328  0.6278  1.0775
11199TIP3    H255089   2.192   2.875  17.089 -0.0459  1.3791  1.0475
11200TIP3   OH255090   3.668   6.210   1.170  0.2290 -0.0601 -0.1890
11200TIP3    H155091   3.663   6.134   1.228  2.1496 -0.6665 -0.7388
11200TIP3    H255092   3.614   6.186   1.094 -0.2554 -0.3145  0.2354
11201TIP3   OH255093   3.975   1.475  12.125 -0.3082  0.0705 -0.0876
11201TIP3    H155094   4.004   1.541  12.188  0.5602 -0.4811  0.1123
11201TIP3    H255095   3.945   1.525  12.050  1.0337  0.7002 -0.2353
11202TIP3   OH255096   4.695   6.224  14.151 -0.0133 -0.0772 -0.3285
11202TIP3    H155097   4.730   6.242  14.238 -1.3657  1.0646  0.0328
11202TIP3    H255098   4.609   6.268  14.150 -0.6586 -1.2590 -1.7416
11203TIP3   OH255099   3.311   6.689  16.398 -0.0251 -0.4268 -0.1504
11203TIP3    H155100   3.320   6.682  16.493 -0.4864  1.4736  0.0758
11203TIP3    H255101   3.400   6.704  16.366  0.2200 -1.6869 -0.1155
11204TIP3   OH255102   6.702   6.238   2.533 -0.3298  0.0603  0.2389
11204TIP3    H155103   6.674   6.303   2.470 -0.7728 -0.2488  0.1099
11204TIP3    H255104   6.663   6.266   2.616 -3.0795 -1.6073 -0.3625
11205TIP3   OH255105   0.949   0.378   2.669  0.1017  0.7706  0.4166
11205TIP3    H155106   1.034   0.374   2.714 -0.3321  0.9804  1.2931
11205TIP3    H255107   0.893   0.427   2.730 -0.7698  0.2468  0.0508
11206TIP3   OH255108   6.313   1.183  12.616 -0.1663 -0.8324 -0.0263
11206TIP3    H155109   6.274   1.256  12.569  1.1171  0.0540  0.2092
11206TIP3    H255110   6.343   1.123  12.548  1.4914  0.3389 -0.4050
11207TIP3   OH255111   6.071   0.523   1.078  0.2973 -0.2759 -0.1326
11207TIP3    H155112   6.076   0.428   1.080  0.5595 -0.2684 -0.3185
11207TIP3    H255113   6.013   0.543   1.005  1.0222 -0.2746 -0.7172
11208TIP3   OH255114   2.317   5.856   4.797 -0.3098 -0.0213  0.9983
11208TIP3    H155115   2.264   5.901   4.862 -1.0684 -1.5352  1.4546
11208TIP3    H255116   2.259   5.790   4.760 -0.1587  1.2405 -1.7821
11209TIP3   OH255117   3.227   0.537   6.249 -0.2383 -0.0416 -0.3683
11209TIP3    H155118   3.181   0.617   6.272  0.6173  0.4611 -0.3666
11209TIP3    H255119   3.204   0.475   6.318 -0.8426  0.2245 -0.3292
11210TIP3   OH255120   3.164   2.020  15.104  0.4133 -0.4032 -0.7077
11210TIP3    H155121   3.203   2.106  15.090  0.0969  0.1619  1.5190
11210TIP3    H255122   3.204   1.989  15.185 -2.0296 -0.7986  0.4153
11211TIP3   OH255123   3.154   4.928  16.406  0.0022  0.3276  0.0928
11211TIP3    H155124   3.138   5.023  16.398 -0.7335  0.1630 -0.6006
11211TIP3    H255125   3.243   4.922  16.441 -0.4911  1.2830  1.5841
11212TIP3   OH255126   2.978   5.454   1.624 -0.4630  0.0105 -0.5190
11212TIP3    H155127   3.063   5.499   1.627 -0.6465  0.3775 -0.7419
11212TIP3    H255128   2.967   5.431   1.531  0.1290 -1.4668 -0.2462
11213TIP3   OH255129   4.403   1.231   1.616  0.3876 -0.2888 -0.6444
11213TIP3    H155130   4.354   1.149   1.627 -0.1826  0.2388  1.0837
11213TIP3    H255131   4.412   1.265   1.705 -0.2188  1.9979 -1.3953
11214TIP3   OH255132   3.021   1.331   5.144 -0.5509 -0.1000  0.4561
11214TIP3    H155133   3.095   1.274   5.125 -0.8106 -0.3024  0.0513
11214TIP3    H255134   3.019   1.392   5.070 -0.6362  0.0638  0.5935
11215TIP3   OH255135   4.623   1.931   1.623 -0.2015  0.3289 -0.3549
11215TIP3    H155136   4.652   1.876   1.696  0.2953 -0.2584 -0.9860
11215TIP3    H255137   4.686   1.915   1.554 -0.7589  0.7559 -0.9790
11216TIP3   OH255138   6.345   3.264  14.432 -0.6417 -0.4167 -0.1736
11216TIP3    H155139   6.366   3.357  14.435  0.2065 -0.6156  1.4342
11216TIP3    H255140   6.384   3.233  14.350 -1.5514  0.7537 -1.0823
11217TIP3   OH255141   0.502   2.214   2.157  0.2569 -0.4025 -0.6362
11217TIP3    H155142   0.462   2.291   2.117  0.7329  0.5446  0.6319
11217TIP3    H255143   0.442   2.190   2.228  1.4063  0.4718  0.6872
11218TIP3   OH255144   2.646   4.526  16.506 -0.3895 -0.2868 -0.8302
11218TIP3    H155145   2.719   4.491  16.557  0.0015  1.0414 -0.4307
11218TIP3    H255146   2.580   4.457  16.508  0.2811 -0.9329  0.0523
11219TIP3   OH255147   0.778   0.797   2.292  0.6753  0.0409  0.0159
11219TIP3    H155148   0.740   0.837   2.371 -1.6401  1.7237 -1.8169
11219TIP3    H255149   0.860   0.844   2.279 -0.7978  2.6466 -0.6723
11220TIP3   OH255150   2.602   0.297   5.409 -0.2577 -0.1786  0.3889
11220TIP3    H155151   2.687   0.253   5.399  0.5380  1.2145  0.7866
11220TIP3    H255152   2.542   0.243   5.357  1.1006 -0.5367 -0.9101
11221TIP3   OH255153   0.481   4.632   0.924 -0.0631  0.0314 -0.4183
11221TIP3    H155154   0.421   4.573   0.969  1.0482 -0.1412  0.8987
11221TIP3    H255155   0.467   4.615   0.831  0.4273 -2.5344 -0.0911
11222TIP3   OH255156   3.752   0.510  14.010 -0.3305  0.3294  0.1164
11222TIP3    H155157   3.806   0.528  13.933 -1.3945 -1.7826 -1.2425
11222TIP3    H255158   3.662   0.526  13.980 -0.8294 -1.3818  0.5816
11223TIP3   OH255159   0.900   6.451  16.557 -0.1997 -0.0425 -0.3994
11223TIP3    H155160   0.851   6.370  16.573 -1.2494  0.5172 -0.6924
11223TIP3    H255161   0.878   6.508  16.631 -0.6099  0.4933 -0.9244
11224TIP3   OH255162   5.977   3.547  12.748  0.0457  0.3151 -0.4782
11224TIP3    H155163   5.889   3.553  12.711  0.2321  2.5282 -0.7023
11224TIP3    H255164   5.969   3.589  12.834  0.7971  0.2027 -0.3501
11225TIP3   OH255165   2.021   1.739   5.119 -0.3198 -0.0926  0.4067
11225TIP3    H155166   1.955   1.758   5.052 -0.2487 -1.0854  0.0318
11225TIP3    H255167   2.100   1.718   5.068  0.4576  1.5752  0.8499
11226TIP3   OH255168   2.794   1.780   0.153 -0.0408  0.2470  0.0841
11226TIP3    H155169   2.867   1.793   0.214  0.8018  0.4297 -0.9249
11226TIP3    H255170   2.799   1.687   0.130  0.8836  0.5828 -1.1841
11227TIP3   OH255171   3.147   1.889   1.806  0.0725 -0.8801  0.1896
11227TIP3    H155172   3.210   1.824   1.777  0.0716 -0.4296 -0.8767
11227TIP3    H255173   3.080   1.890   1.738  0.0032  0.1346  0.2497
11228TIP3   OH255174   2.274   6.817  11.895 -0.2028 -0.4827 -0.0625
11228TIP3    H155175   2.211   6.886  11.874 -0.1825 -0.8082 -1.2947
11228TIP3    H255176   2.313   6.844  11.978 -1.3211  0.1817  0.2643
11229TIP3   OH255177   2.855   3.961  16.864 -0.2092  0.2848 -0.4426
11229TIP3    H155178   2.908   3.883  16.850 -2.2038 -0.9912 -1.3008
11229TIP3    H255179   2.909   4.033  16.831  0.9879 -0.9470 -1.2518
11230TIP3   OH255180   0.471   6.502   5.052 -0.4333  1.0897  0.1595
11230TIP3    H155181   0.428   6.418   5.072 -0.1734  1.1797  1.1201
11230TIP3    H255182   0.428   6.532   4.972  1.0165 -1.0563 -1.5226
11231TIP3   OH255183   5.949   0.387   5.442 -0.0117  0.5628 -0.2111
11231TIP3    H155184   5.860   0.397   5.409  0.4484  2.6739 -1.0122
11231TIP3    H255185   6.004   0.393   5.364  0.8608 -0.2213  0.3249
11232TIP3   OH255186   1.271   5.116   4.465 -0.2493  0.5774 -0.3729
11232TIP3    H155187   1.313   5.120   4.379  1.0613  2.2114  0.2974
11232TIP3    H255188   1.180   5.142   4.447 -0.2582 -0.0921 -1.3972
11233TIP3   OH255189   4.658   0.980   0.366  0.1714 -0.2005 -0.0018
11233TIP3    H155190   4.660   0.917   0.293 -0.0074  0.1739 -0.3377
11233TIP3    H255191   4.684   0.930   0.442  2.3097 -0.1457 -0.6423
11234TIP3   OH255192   3.449   6.282   6.072  0.1265 -0.4752 -0.4588
11234TIP3    H155193   3.489   6.271   5.986 -0.4313  0.2685 -0.8196
11234TIP3    H255194   3.518   6.324   6.125  0.7586 -1.6822 -0.2856
11235TIP3   OH255195   3.384   4.202   1.359  0.0499  0.4884  0.0238
11235TIP3    H155196   3.442   4.267   1.399 -1.1891  1.0080  1.0422
11235TIP3    H255197   3.300   4.215   1.402 -0.8744 -0.1795 -1.4921
11236TIP3   OH255198   4.875   0.636  15.590 -0.3383  0.1880  0.5762
11236TIP3    H155199   4.853   0.640  15.683  2.1424  2.4656  1.1694
11236TIP3    H255200   4.793   0.657  15.545 -1.7824 -1.6639  2.1134
11237TIP3   OH255201   1.879   6.357  12.217  0.2882 -0.1555  0.0526
11237TIP3    H155202   1.938   6.431  12.202  2.4734 -1.7737  0.1760
11237TIP3    H255203   1.896   6.299  12.143 -0.8198 -0.8883  0.3594
11238TIP3   OH255204   2.821   4.177   5.116 -0.1793  0.4927  0.0816
11238TIP3    H155205   2.858   4.151   5.200  1.2685 -0.2726 -0.7515
11238TIP3    H255206   2.871   4.127   5.051 -0.6613  1.7200 -1.2931
11239TIP3   OH255207   0.837   2.883   2.380 -0.3706  0.0588 -0.1986
11239TIP3    H155208   0.756   2.918   2.416 -1.0257  0.5007 -2.0296
11239TIP3    H255209   0.899   2.956   2.385 -0.8663  0.5661 -1.2318
11240TIP3   OH255210   5.354   5.555  10.772  0.0372  0.3358  0.4666
11240TIP3    H155211   5.372   5.472  10.727  1.5592  0.1353  1.3775
11240TIP3    H255212   5.315   5.611  10.705 -2.3436 -1.5251  0.1460
11241TIP3   OH255213   6.602   1.176  15.923  0.2901  0.1782  0.1124
11241TIP3    H155214   6.559   1.227  15.991  0.3400 -1.2197  1.2294
11241TIP3    H255215   6.690   1.213  15.918  1.8250 -2.3728  3.9651
11242TIP3   OH255216   6.551   2.466  15.393  0.4665 -0.1858 -0.0936
11242TIP3    H155217   6.470   2.501  15.356  0.1372 -2.0745 -1.3133
11242TIP3    H255218   6.526   2.436  15.480  0.3121  0.8651  0.2379
11243TIP3   OH255219   0.945   5.429   4.517 -0.5233  0.2586  0.0907
11243TIP3    H155220   0.971   5.350   4.470 -0.5346 -0.0852  0.6540
11243TIP3    H255221   0.992   5.500   4.472 -0.0460 -0.1365 -0.0490
11244TIP3   OH255222   2.358   0.663  14.921  0.4258 -0.5323 -0.4345
11244TIP3    H155223   2.363   0.570  14.944 -1.4523 -0.7046 -0.5671
11244TIP3    H255224   2.443   0.699  14.948  1.3579 -2.3575 -0.7868
11245TIP3   OH255225   3.248   3.064   4.879  0.2542  0.1744  0.0181
11245TIP3    H155226   3.258   3.087   4.786 -0.6202  0.2967 -0.0495
11245TIP3    H255227   3.155   3.045   4.889  0.7351 -2.3185  0.3215
11246TIP3   OH255228   3.060   1.463   4.905 -0.4263  0.2502 -0.7602
11246TIP3    H155229   3.042   1.556   4.888 -2.3110  0.0870  0.0318
11246TIP3    H255230   3.142   1.445   4.860  0.9777  2.7551  0.6050
11247TIP3   OH255231   6.601   3.494   2.392 -0.0356  0.5296 -0.0575
11247TIP3    H155232   6.609   3.584   2.361  0.2351  0.2927 -0.6794
11247TIP3    H255233   6.532   3.455   2.338  1.2404 -0.2256 -1.1812
11248TIP3   OH255234   0.275   6.568   5.478  0.3251 -0.2256 -0.2992
11248TIP3    H155235   0.362   6.603   5.455  0.0729  1.1576  0.7563
11248TIP3    H255236   0.251   6.614   5.559 -1.7972  0.1301 -1.0641
11249TIP3   OH255237   2.326   5.263  16.750 -0.1919 -0.2557  0.7598
11249TIP3    H155238   2.359   5.277  16.661  0.5061  0.6891  1.1464
11249TIP3    H255239   2.388   5.311  16.806 -1.6411  0.7173  1.5941
11250TIP3   OH255240   3.811   6.630  14.352 -0.7520  0.1562  0.2274
11250TIP3    H155241   3.822   6.537  14.334  0.5200  0.7290 -2.4322
11250TIP3    H255242   3.900   6.663  14.365 -1.0819  1.2010 -0.0670
11251TIP3   OH255243   2.806   3.683   0.510  0.2251  0.4657 -0.1213
11251TIP3    H155244   2.820   3.598   0.467  0.0000  0.4432 -0.1492
11251TIP3    H255245   2.711   3.693   0.514  0.2336  0.3494  0.6033
11252TIP3   OH255246   1.574   2.129   2.867  0.2411 -0.5622 -0.1790
11252TIP3    H155247   1.636   2.075   2.915  0.5823 -0.3816 -0.4172
11252TIP3    H255248   1.608   2.218   2.873  0.8830 -0.6733 -1.6655
11253TIP3   OH255249   3.625   4.035   3.261 -0.2400 -0.0329  0.3391
11253TIP3    H155250   3.645   3.956   3.311 -0.2667 -0.6279 -0.5729
11253TIP3    H255251   3.535   4.057   3.287 -0.7972 -1.1840 -0.5145
11254TIP3   OH255252   3.816   5.678  15.921  0.2162  0.5687 -0.3500
11254TIP3    H155253   3.805   5.704  16.012 -2.9481 -1.4950  0.0508
11254TIP3    H255254   3.901   5.636  15.917 -0.6750 -1.8269  2.4724
11255TIP3   OH255255   4.560   4.777  13.481  0.4019  0.5263 -0.0412
11255TIP3    H155256   4.520   4.856  13.445 -0.7433  0.1834  0.4430
11255TIP3    H255257   4.542   4.709  13.416 -0.0090  0.3209  0.2846
11256TIP3   OH255258   1.823   5.004  17.172 -0.4506 -0.5779  0.3197
11256TIP3    H155259   1.736   4.969  17.154 -0.6684 -1.9878  3.3781
11256TIP3    H255260   1.883   4.952  17.118 -1.3441 -0.7598 -0.5157
11257TIP3   OH255261   5.708   5.260  16.843  0.3745  0.5391 -0.4557
11257TIP3    H155262   5.704   5.214  16.760  0.6506 -0.3793  0.0244
11257TIP3    H255263   5.622   5.302  16.852 -0.2140 -0.6226 -0.4971
11258TIP3   OH255264   5.238   2.361  13.596 -0.1015 -0.2765 -0.7727
11258TIP3    H155265   5.151   2.395  13.613  0.0980  0.7094 -1.6286
11258TIP3    H255266   5.226   2.266  13.589 -0.8809 -0.2690  0.3750
11259TIP3   OH255267   5.784   6.051  15.733 -0.2431 -0.1329 -0.1138
11259TIP3    H155268   5.760   6.108  15.806  0.0321 -1.2872  0.9211
11259TIP3    H255269   5.710   6.058  15.673  0.5012  2.5443 -0.8395
11260TIP3   OH255270   2.214   3.170  15.715 -0.2291 -0.1401  0.3265
11260TIP3    H155271   2.152   3.173  15.642 -0.1905 -0.3270  0.2877
11260TIP3    H255272   2.174   3.111  15.778 -0.8338  0.9279  0.9760
11261TIP3   OH255273   3.170   4.585  15.923  0.0852 -0.3116  0.4244
11261TIP3    H155274   3.240   4.551  15.978 -0.2704  0.8653  1.6761
11261TIP3    H255275   3.175   4.680  15.935 -1.2579 -0.1644 -0.0308
11262TIP3   OH255276   3.431   0.483  14.279  0.2015  0.1098  0.6179
11262TIP3    H155277   3.450   0.548  14.347  0.0809  0.5349  0.2443
11262TIP3    H255278   3.399   0.534  14.205  1.2951 -0.2627 -0.1214
11263TIP3   OH255279   3.622   3.718   0.195 -0.5966  0.8026 -0.9362
11263TIP3    H155280   3.590   3.796   0.149  0.8646  0.8191 -2.0052
11263TIP3    H255281   3.662   3.752   0.275 -0.0119  1.1726 -1.3735
11264TIP3   OH255282   0.495   1.837  16.574  0.5710 -0.0617  0.5018
11264TIP3    H155283   0.572   1.875  16.532  0.7609 -0.1518  0.7691
11264TIP3    H255284   0.445   1.798  16.502  1.1297 -0.6262  0.4100
11265TIP3   OH255285   4.585   2.744  14.734  0.1150  0.2566 -0.2502
11265TIP3    H155286   4.493   2.716  14.740 -0.2899  1.3794 -0.7979
11265TIP3    H255287   4.628   2.703  14.809 -0.7207 -0.7101 -0.2792
11266TIP3   OH255288   1.453   6.506   1.453  0.4161 -0.0920  0.2062
11266TIP3    H155289   1.486   6.590   1.485  2.0996 -0.4181 -0.5295
11266TIP3    H255290   1.523   6.473   1.397 -1.4434 -0.5987 -1.9667
11267TIP3   OH255291   2.303   0.901   0.451  0.5505 -0.0938  0.5989
11267TIP3    H155292   2.243   0.902   0.525 -0.5874  0.7950 -0.2877
11267TIP3    H255293   2.305   0.992   0.420 -0.6242 -0.7576 -1.6832
11268TIP3   OH255294   3.033   3.462   0.091  0.0313  0.1415  0.5606
11268TIP3    H155295   2.971   3.399   0.127 -2.1108  2.3356  0.9757
11268TIP3    H255296   3.029   3.537   0.151  0.8162  1.5500 -1.0597
11269TIP3   OH255297   0.219   4.528   5.603  0.1081 -0.4129 -0.1927
11269TIP3    H155298   0.302   4.573   5.618  0.0147 -0.9639  2.5271
11269TIP3    H255299   0.240   4.458   5.541  1.2055  0.6142 -1.0305
11270TIP3   OH255300   3.805   5.556   0.386 -0.5226 -0.0124 -0.1098
11270TIP3    H155301   3.883   5.577   0.436  0.3904  1.4158 -2.0071
11270TIP3    H255302   3.829   5.479   0.335  0.4134  1.4588 -2.0618
11271TIP3   OH255303   2.713   2.772   2.189  0.0679  0.0998 -0.1997
11271TIP3    H155304   2.734   2.709   2.258 -0.2648  1.2889  1.0258
11271TIP3    H255305   2.798   2.801   2.156  0.2264 -0.9169 -0.7465
11272TIP3   OH255306   4.874   1.596  10.637  0.1980 -0.5180  0.7519
11272TIP3    H155307   4.916   1.555  10.561  0.3121 -0.3266  0.7127
11272TIP3    H255308   4.928   1.570  10.711  0.6024  0.0408  0.6548
11273TIP3   OH255309   4.826   3.254   2.534  0.3936 -0.6887 -0.0294
11273TIP3    H155310   4.753   3.312   2.513  2.3737  1.5716 -1.1088
11273TIP3    H255311   4.894   3.277   2.471  2.1983 -2.4361  1.1547
11274TIP3   OH255312   2.243   5.776  17.299 -0.2944 -0.4252 -0.1938
11274TIP3    H155313   2.324   5.794  17.347  0.1423 -2.0973 -0.2340
11274TIP3    H255314   2.241   5.680  17.291 -1.7361 -0.3425 -1.1413
11275TIP3   OH255315   3.093   4.209  12.092 -0.1206 -0.0675  0.1814
11275TIP3    H155316   3.097   4.162  12.175 -0.0891  0.7348  0.6430
11275TIP3    H255317   3.181   4.198  12.055  0.1647  0.3596  0.7062
11276TIP3   OH255318   3.222   3.698  15.740  0.1523  0.1752 -0.0788
11276TIP3    H155319   3.194   3.769  15.682 -0.0494 -0.2843 -0.5460
11276TIP3    H255320   3.269   3.743  15.811  0.4847  0.7366 -0.6419
11277TIP3   OH255321   6.286   4.401  17.019  0.4627  0.7664  0.6266
11277TIP3    H155322   6.206   4.440  16.983  0.2878 -1.1390 -1.2720
11277TIP3    H255323   6.257   4.358  17.100 -0.8652 -1.1436 -0.7561
11278TIP3   OH255324   5.190   6.518   3.158 -0.3635  0.0472 -0.4779
11278TIP3    H155325   5.098   6.519   3.131 -0.5613 -0.5531  0.1358
11278TIP3    H255326   5.239   6.530   3.078 -0.9969  0.9927 -0.7345
11279TIP3   OH255327   4.050   3.494   1.457 -0.1344  0.0773 -0.2785
11279TIP3    H155328   4.102   3.482   1.377  1.5464  0.3175  0.7421
11279TIP3    H255329   3.980   3.428   1.449  1.2396 -1.3722 -0.9617
11280TIP3   OH255330   1.011   3.769  11.094 -0.7828 -0.3235 -0.3245
11280TIP3    H155331   0.989   3.748  11.003 -0.0067 -2.5441 -0.0826
11280TIP3    H255332   0.969   3.699  11.144  1.0648 -0.7340  0.7334
11281TIP3   OH255333   3.737   4.642   4.931 -0.0088  0.2475 -0.6272
11281TIP3    H155334   3.830   4.652   4.952 -0.3577  1.1475  0.6081
11281TIP3    H255335   3.721   4.706   4.862 -0.1523  1.6911  0.6829
11282TIP3   OH255336   0.295   5.353  11.956  0.3704 -0.4170 -0.6692
11282TIP3    H155337   0.215   5.399  11.981  2.7248  1.8883  4.1336
11282TIP3    H255338   0.339   5.413  11.895 -0.5650 -0.7352 -1.6855
11283TIP3   OH255339   3.086   1.797  11.647  0.0107  0.3229  0.8187
11283TIP3    H155340   3.124   1.809  11.734 -0.7504  0.7855  1.0942
11283TIP3    H255341   3.081   1.885  11.609 -0.8746  0.2990  0.8397
11284TIP3   OH255342   6.393   2.155  13.490 -0.2252  0.2161  0.4079
11284TIP3    H155343   6.367   2.080  13.437 -0.2480  0.5903 -0.1154
11284TIP3    H255344   6.328   2.159  13.560 -0.9886  0.5340 -0.3116
11285TIP3   OH255345   4.255   2.050  17.044 -1.0222 -0.3500 -0.0646
11285TIP3    H155346   4.203   1.972  17.023  0.7170 -1.0164 -2.3743
11285TIP3    H255347   4.280   2.086  16.958  0.3450  1.2755  0.9413
11286TIP3   OH255348   6.491   4.425   4.029 -0.1396 -0.8688  0.5339
11286TIP3    H155349   6.515   4.515   4.053 -0.7206 -0.9920  1.6708
11286TIP3    H255350   6.467   4.430   3.937 -0.5375  0.2323  0.6795
11287TIP3   OH255351   5.121   3.168  13.252  0.2165  0.3648  0.4636
11287TIP3    H155352   5.081   3.205  13.331  1.4751  2.1816  0.3106
11287TIP3    H255353   5.214   3.160  13.274  0.3094 -0.6756 -0.2836
11288TIP3   OH255354   5.197   2.758   4.684  0.2306 -0.0326 -0.0501
11288TIP3    H155355   5.102   2.749   4.684  0.1855  0.2407  0.8585
11288TIP3    H255356   5.230   2.669   4.691  0.0295 -0.0994  0.0492
11289TIP3   OH255357   1.797   5.547   0.383 -0.1694 -0.3954 -0.0160
11289TIP3    H155358   1.848   5.489   0.327  0.1359 -0.9343  0.8099
11289TIP3    H255359   1.848   5.628   0.387  1.1824 -1.2660  1.6152
11290TIP3   OH255360   6.127   1.253   1.059 -0.3718  0.2716 -0.6074
11290TIP3    H155361   6.104   1.338   1.022 -0.0136 -0.2056 -1.9844
11290TIP3    H255362   6.091   1.189   0.997  0.5919 -0.5560 -0.3468
11291TIP3   OH255363   3.608   3.124  14.745 -0.1175  0.1153  0.4487
11291TIP3    H155364   3.612   3.102  14.838 -0.7388 -0.0473  0.4391
11291TIP3    H255365   3.521   3.162  14.733 -0.5160 -1.0051 -0.3056
11292TIP3   OH255366   1.416   4.569   1.006  0.0818  0.0846  0.4608
11292TIP3    H155367   1.355   4.642   1.019  0.8578  0.8699 -0.2112
11292TIP3    H255368   1.361   4.490   1.015 -1.5651  0.7647 -2.4245
11293TIP3   OH255369   1.865   2.816   2.065 -0.9862 -0.3371 -0.8679
11293TIP3    H155370   1.796   2.852   2.121 -0.9684 -1.7466  0.0915
11293TIP3    H255371   1.836   2.835   1.976 -1.2448  1.5316 -0.4256
11294TIP3   OH255372   6.080   1.694  14.905 -0.0705 -0.5505  0.7424
11294TIP3    H155373   6.017   1.685  14.834  0.7833 -0.2343 -0.0858
11294TIP3    H255374   6.142   1.622  14.891 -0.2207 -0.8323  1.5151
11295TIP3   OH255375   1.784   5.347  13.241  0.0154 -0.1363 -0.2212
11295TIP3    H155376   1.759   5.302  13.321 -2.9334  1.2652 -0.2312
11295TIP3    H255377   1.763   5.285  13.171  2.4506 -1.2990 -0.0546
11296TIP3   OH255378   1.376   4.950   0.058  0.4302 -0.3427  0.0840
11296TIP3    H155379   1.422   5.027   0.023  0.3220 -0.1958  0.2643
11296TIP3    H255380   1.379   4.886  -0.013  0.3236 -0.0923 -0.1472
11297TIP3   OH255381   0.035   0.095  12.405  0.4703 -0.0516  0.0532
11297TIP3    H155382  -0.023   0.038  12.354 -1.5894  1.4389  0.5722
11297TIP3    H255383   0.075   0.152  12.339  0.9745 -0.7564 -0.2637
11298TIP3   OH255384   0.374   3.438  14.007  0.0821 -0.0097  0.2567
11298TIP3    H155385   0.319   3.359  14.003  0.5597 -0.3748  0.7926
11298TIP3    H255386   0.335   3.497  13.942 -0.2601 -0.6974 -0.1796
11299TIP3   OH255387   5.587   5.307  12.732  0.1635  0.0546 -0.7172
11299TIP3    H155388   5.602   5.398  12.755  0.1406  0.3316 -1.7204
11299TIP3    H255389   5.495   5.302  12.708  0.7338  0.4298 -3.3169
11300TIP3   OH255390   3.769   5.034   4.930  0.6932  0.1107 -0.0678
11300TIP3    H155391   3.709   5.107   4.943  0.9953  0.4385 -0.4867
11300TIP3    H255392   3.716   4.967   4.885  0.1126 -0.3737  1.2757
11301TIP3   OH255393   2.202   4.531   0.589 -0.6579 -0.2494  0.0500
11301TIP3    H155394   2.193   4.583   0.509 -1.9391 -0.5999 -0.0491
11301TIP3    H255395   2.188   4.594   0.660  1.9787  0.3964  0.1184
11302TIP3   OH255396   2.446   2.375   0.421  0.6321 -0.2946 -0.1911
11302TIP3    H155397   2.441   2.456   0.372  1.3651 -0.0496  0.1262
11302TIP3    H255398   2.531   2.338   0.399  0.4327 -0.8215 -0.0968
11303TIP3   OH255399   5.417   6.554   4.456  0.0558  0.0736  0.1545
11303TIP3    H155400   5.404   6.488   4.523 -0.0058 -0.7675 -0.6581
11303TIP3    H255401   5.330   6.567   4.418 -0.0196  0.9639  0.6032
11304TIP3   OH255402   3.933   6.326  15.628 -0.4353  0.2694 -0.3125
11304TIP3    H155403   3.921   6.252  15.568 -1.1770  0.3454 -0.2685
11304TIP3    H255404   4.002   6.378  15.588 -0.7244  0.1716 -0.9607
11305TIP3   OH255405   0.519   0.967   1.739 -0.3148  0.0107  0.5793
11305TIP3    H155406   0.612   0.956   1.759 -0.3708 -0.3573  0.6472
11305TIP3    H255407   0.510   1.059   1.713  0.0430  0.0799  0.7036
11306TIP3   OH255408   2.220   4.602   4.656  0.2353  0.2964  0.5530
11306TIP3    H155409   2.226   4.511   4.627  1.8048  0.8205 -0.9398
11306TIP3    H255410   2.139   4.635   4.617  1.3210  0.4185 -1.7177
11307TIP3   OH255411   5.799   4.381   3.035  0.1061 -0.1258  0.4022
11307TIP3    H155412   5.723   4.375   3.093  0.2540  1.0837  0.7595
11307TIP3    H255413   5.777   4.454   2.976  1.1584  0.5157  0.7844
11308TIP3   OH255414   5.793   2.214   1.816  0.5756 -0.3374 -0.1627
11308TIP3    H155415   5.845   2.272   1.760 -1.2608  1.0061 -0.5684
11308TIP3    H255416   5.720   2.187   1.761  0.3807 -1.5298  0.6392
11309TIP3   OH255417   1.724   0.222  14.411  0.6849 -0.1694  0.4582
11309TIP3    H155418   1.723   0.290  14.344  0.6944 -0.4915  0.1282
11309TIP3    H255419   1.726   0.140  14.362  1.6507 -0.3957  0.8441
11310TIP3   OH255420   1.653   2.277   1.500 -0.6573 -0.0574  0.3886
11310TIP3    H155421   1.636   2.188   1.532  1.8091 -0.5595  0.4476
11310TIP3    H255422   1.611   2.280   1.414 -1.6229 -0.9275  0.8067
11311TIP3   OH255423   0.246   0.220  14.478 -0.2432 -0.2432 -0.3615
11311TIP3    H155424   0.160   0.214  14.521 -0.4759  0.3983 -0.7344
11311TIP3    H255425   0.283   0.132  14.487 -1.4707 -0.8833 -1.2910
11312TIP3   OH255426   4.281   4.578  15.761 -0.0828 -0.3883  0.3810
11312TIP3    H155427   4.197   4.587  15.716 -0.2618 -1.0013  0.5799
11312TIP3    H255428   4.265   4.615  15.848  0.8794  2.8886 -0.7019
11313TIP3   OH255429   5.875   5.334   5.272  0.7998  0.4061 -0.3101
11313TIP3    H155430   5.919   5.263   5.225 -0.4568 -0.5088 -0.1378
11313TIP3    H255431   5.838   5.293   5.350  1.3205  1.5592  0.5791
11314TIP3   OH255432   4.587   2.742  13.979  0.5587  0.3076 -0.6760
11314TIP3    H155433   4.540   2.685  13.919  1.5637  0.1324 -1.3322
11314TIP3    H255434   4.556   2.830  13.958  0.0711  0.1402 -0.6644
11315TIP3   OH255435   5.894   2.050  14.676  0.5878  0.3590  0.0684
11315TIP3    H155436   5.891   1.988  14.749 -0.4851  0.3098 -0.0011
11315TIP3    H255437   5.811   2.098  14.682  0.1205 -0.1944 -1.6077
11316TIP3   OH255438   5.940   1.166  16.072  0.2971  0.1451  0.1307
11316TIP3    H155439   5.988   1.170  16.155 -0.9550 -2.3243  1.0535
11316TIP3    H255440   6.005   1.136  16.008  0.4595 -1.3494  0.9674
11317TIP3   OH255441   4.768   6.462   2.343 -0.0278 -1.1033  0.0272
11317TIP3    H155442   4.809   6.488   2.426  0.7356  0.5216 -0.8176
11317TIP3    H255443   4.704   6.395   2.368  1.1456 -1.6577  1.7434
11318TIP3   OH255444   3.408   6.152  12.275 -0.2351  0.5157 -0.4263
11318TIP3    H155445   3.334   6.162  12.214 -1.2346  0.2922  0.7097
11318TIP3    H255446   3.376   6.092  12.342 -0.0555  2.5738  1.6298
11319TIP3   OH255447   0.931   0.603  14.247  0.1889  0.2376  0.1771
11319TIP3    H155448   0.903   0.575  14.160  0.6512 -1.6101  0.5974
11319TIP3    H255449   0.886   0.544  14.308 -0.9746  2.1699  1.3034
11320TIP3   OH255450   1.425   5.882  13.512 -0.3804  0.0507  0.3525
11320TIP3    H155451   1.504   5.913  13.469 -1.1717  0.7803 -0.6106
11320TIP3    H255452   1.426   5.787  13.499  1.1412 -0.1651  1.7611
11321TIP3   OH255453   4.219   3.055  13.339 -0.4852 -0.2467 -0.7467
11321TIP3    H155454   4.188   2.976  13.295  0.1260 -0.0876 -1.4863
11321TIP3    H255455   4.315   3.049  13.335 -0.4258  0.1125 -0.0455
11322TIP3   OH255456   3.104   1.126  14.222  0.5009 -0.8262 -0.5373
11322TIP3    H155457   3.071   1.207  14.261 -0.7002 -0.3858 -2.3474
11322TIP3    H255458   3.134   1.074  14.296  1.9731  1.5290  0.6440
11323TIP3   OH255459   5.170   3.213   3.827 -0.1295  0.5348  0.0353
11323TIP3    H155460   5.250   3.223   3.777 -0.4433  0.6395 -0.4461
11323TIP3    H255461   5.166   3.291   3.882  0.9547 -0.2382  1.3089
11324TIP3   OH255462   1.845   2.007  17.064 -0.4220 -0.0754  0.5674
11324TIP3    H155463   1.935   1.999  17.095 -0.2750 -0.7125 -0.0128
11324TIP3    H255464   1.830   2.102  17.057 -0.6425  0.1458  3.0483
11325TIP3   OH255465   3.831   1.230   0.807 -0.1455 -0.3142  0.4340
11325TIP3    H155466   3.890   1.190   0.871 -0.7915 -1.0380  0.5925
11325TIP3    H255467   3.785   1.297   0.856  0.1592 -0.1102  0.4444
11326TIP3   OH255468   5.207   5.917   0.127  0.4446  0.4790  0.2823
11326TIP3    H155469   5.208   6.012   0.117 -1.6236  0.4943 -0.1916
11326TIP3    H255470   5.137   5.900   0.189 -2.2501 -0.8840 -2.8317
11327TIP3   OH255471   3.922   3.032   1.963 -0.3546  0.2980 -0.4402
11327TIP3    H155472   3.917   3.127   1.971  0.5649  0.2349  1.8224
11327TIP3    H255473   3.836   3.000   1.988 -0.0307  0.4981  1.0242
11328TIP3   OH255474   6.002   2.608   4.989 -0.5462 -0.1288 -0.6156
11328TIP3    H155475   5.947   2.632   5.064  1.1138 -0.7798  0.9064
11328TIP3    H255476   6.092   2.622   5.020  0.2616 -2.0254 -1.8791
11329TIP3   OH255477   6.593   5.775   0.333  0.0231  0.6247  0.2494
11329TIP3    H155478   6.650   5.787   0.258  0.1374  0.6989  0.3481
11329TIP3    H255479   6.633   5.703   0.383 -0.4979  0.0172 -0.1858
11330TIP3   OH255480   3.071   6.822   3.258  0.3139 -0.2169  0.1722
11330TIP3    H155481   3.166   6.816   3.249  0.3653  0.9707 -0.2462
11330TIP3    H255482   3.037   6.771   3.185  0.6353 -0.0861 -0.0734
11331TIP3   OH255483   0.495   5.336  13.309  0.2317  0.0278 -0.2797
11331TIP3    H155484   0.443   5.362  13.233  0.3018  0.1452 -0.2867
11331TIP3    H255485   0.563   5.402  13.316  0.0305  0.2023  0.0805
11332TIP3   OH255486   1.163   6.745   2.943 -0.4077  0.1657 -0.4188
11332TIP3    H155487   1.136   6.798   2.868  0.0018  3.8812  1.7942
11332TIP3    H255488   1.093   6.755   3.007  1.5925  1.7612  1.6869
11333TIP3   OH255489   5.786   1.777  12.940 -0.1595  0.7271  0.7697
11333TIP3    H155490   5.718   1.765  13.006  0.9275 -1.3051  1.6203
11333TIP3    H255491   5.772   1.707  12.877  1.0830  0.2863  0.9428
11334TIP3   OH255492   3.922   2.450   2.138  0.0804  0.3675 -0.0726
11334TIP3    H155493   3.965   2.435   2.223  2.7005 -1.1834 -1.5329
11334TIP3    H255494   3.912   2.545   2.133  0.2910  0.5316  1.7407
11335TIP3   OH255495   1.122   3.294  17.193  0.2269 -0.6960  0.1691
11335TIP3    H155496   1.191   3.248  17.240  0.5046  0.6012  1.0894
11335TIP3    H255497   1.107   3.242  17.114  2.4189 -0.8895 -0.1786
11336TIP3   OH255498   6.426   5.822  16.841 -0.1639 -0.2524 -0.0844
11336TIP3    H155499   6.485   5.840  16.768  0.2495  0.8427  0.4954
11336TIP3    H255500   6.353   5.775  16.802  1.3981 -2.3027 -0.7105
11337TIP3   OH255501   5.417   3.340  12.158  0.0189 -0.2671 -0.0075
11337TIP3    H155502   5.494   3.363  12.211  1.6635 -0.7193 -2.0788
11337TIP3    H255503   5.448   3.345  12.068 -2.3414 -0.7679 -0.9043
11338TIP3   OH255504   5.217   1.360  11.775 -0.7838  0.4345 -0.0674
11338TIP3    H155505   5.306   1.343  11.742 -0.7057 -0.7172  0.6524
11338TIP3    H255506   5.167   1.284  11.747 -1.3551  0.7158  0.1807
11339TIP3   OH255507   2.470   5.731   1.095 -0.1627 -0.2275 -0.4486
11339TIP3    H155508   2.489   5.815   1.137 -3.4996  0.6923 -0.5513
11339TIP3    H255509   2.484   5.748   1.002 -2.2669  0.7382 -0.6311
11340TIP3   OH255510   2.922   1.790   1.642  0.9700  0.4779 -0.1924
11340TIP3    H155511   2.902   1.718   1.703  0.5202  0.3154 -0.5245
11340TIP3    H255512   2.848   1.790   1.580  1.3044  0.7944 -0.5945
11341TIP3   OH255513   3.605   4.343  13.946  0.4761  0.3016 -0.7342
11341TIP3    H155514   3.681   4.400  13.954 -0.7774  2.0722 -0.9135
11341TIP3    H255515   3.573   4.358  13.857 -1.0668  0.8945 -0.1095
11342TIP3   OH255516   3.227   0.688  11.991  0.3873  0.7034 -0.1307
11342TIP3    H155517   3.199   0.769  11.948  0.0544  1.8626  2.1459
11342TIP3    H255518   3.285   0.717  12.061 -0.3821 -0.9556  1.2595
11343TIP3   OH255519   5.236   2.978  12.194  0.2068  0.4076  0.4240
11343TIP3    H155520   5.214   2.930  12.114 -0.8654  1.0716  0.2947
11343TIP3    H255521   5.173   2.946  12.259  1.6430 -0.7958  1.2929
11344TIP3   OH255522   6.140   6.664  13.747 -0.1869 -0.4339  0.3314
11344TIP3    H155523   6.048   6.640  13.758 -0.2065 -0.2121  0.6773
11344TIP3    H255524   6.182   6.583  13.719 -0.5500 -0.4434 -0.2023
11345TIP3   OH255525   1.969   4.187   5.477  0.3743 -0.0660 -0.5840
11345TIP3    H155526   1.986   4.209   5.569 -1.4219 -1.0832  0.0515
11345TIP3    H255527   2.038   4.124   5.455  0.2080 -0.6364  0.4301
11346TIP3   OH255528   5.426   2.538  16.479 -0.1018  0.3325 -0.3858
11346TIP3    H155529   5.393   2.628  16.470 -0.2861  0.4375  1.0912
11346TIP3    H255530   5.347   2.484  16.481  0.0080  0.1292 -1.2046
11347TIP3   OH255531   4.880   1.800  12.163 -0.4978  0.5662  0.4962
11347TIP3    H155532   4.869   1.777  12.255  0.7081  0.7136  0.6910
11347TIP3    H255533   4.972   1.782  12.144 -0.7379  0.4773 -0.7033
11348TIP3   OH255534   3.702   0.721   0.658  0.4392 -0.3564  0.3204
11348TIP3    H155535   3.788   0.723   0.616  0.7863 -0.3568  1.0093
11348TIP3    H255536   3.664   0.807   0.642  1.7009  0.6257  2.2893
11349TIP3   OH255537   4.347   4.308   2.295 -0.3603 -0.1216  0.1520
11349TIP3    H155538   4.314   4.222   2.319 -0.5277  0.3727  1.8963
11349TIP3    H255539   4.399   4.294   2.217 -1.1586 -1.6385 -0.1342
11350TIP3   OH255540   4.097   3.589  11.587 -0.0298  0.2826 -0.3458
11350TIP3    H155541   4.096   3.670  11.639  0.4500  0.3543 -0.4416
11350TIP3    H255542   4.055   3.613  11.504  1.2732  0.7994 -0.8912
11351TIP3   OH255543   5.609   2.628  13.340  0.1656 -0.2067 -0.2426
11351TIP3    H155544   5.568   2.684  13.274 -0.4355  1.2946  1.3213
11351TIP3    H255545   5.614   2.542  13.299 -2.8630 -0.0332 -1.1763
11352TIP3   OH255546   4.263   5.771   1.877  0.4233 -0.1983  0.0256
11352TIP3    H155547   4.175   5.757   1.912  0.1131  0.1713 -0.5844
11352TIP3    H255548   4.249   5.780   1.782  1.2799 -1.6521 -0.2713
11353TIP3   OH255549   3.559   2.647   6.372 -0.3627  0.1131  0.1133
11353TIP3    H155550   3.653   2.638   6.357 -0.0333  2.0243  0.7276
11353TIP3    H255551   3.521   2.650   6.285  0.2553  0.2542 -0.1609
11354TIP3   OH255552   3.016   4.541   2.799  0.7003 -0.2737 -0.4833
11354TIP3    H155553   3.087   4.551   2.736  1.2464  0.4745  0.2304
11354TIP3    H255554   2.953   4.609   2.776  1.4452  0.7793  0.4619
11355TIP3   OH255555   6.116   2.789  11.876  0.2177  0.5407  0.5320
11355TIP3    H155556   6.115   2.797  11.971  0.0506 -0.2701  0.6068
11355TIP3    H255557   6.060   2.714  11.857 -0.3937  1.1750 -0.2656
11356TIP3   OH255558   2.707   0.618  13.076  0.5818  0.0716 -0.0087
11356TIP3    H155559   2.692   0.576  12.992  0.7579 -0.0342  0.0115
11356TIP3    H255560   2.793   0.588  13.103  1.0131  0.9792 -0.3114
11357TIP3   OH255561   0.007   3.621   2.501 -0.4606  0.1988  0.0367
11357TIP3    H155562   0.060   3.660   2.571  0.3118  0.0031 -0.4256
11357TIP3    H255563  -0.009   3.532   2.530 -0.2308  0.1491  0.0141
11358TIP3   OH255564   0.344   0.108   2.293  0.5903  0.1010  0.4739
11358TIP3    H155565   0.345   0.049   2.218 -0.2184  0.1417  0.4205
11358TIP3    H255566   0.418   0.167   2.279 -0.6535  1.3161 -1.2815
11359TIP3   OH255567   4.106   0.349  15.953 -0.7749  0.6564 -0.6038
11359TIP3    H155568   4.102   0.444  15.963  4.3505  0.9704  1.5392
11359TIP3    H255569   4.079   0.315  16.039 -0.3399  0.3204 -0.6011
11360TIP3   OH255570   3.543   3.162   2.822 -0.1731  0.1294 -0.4333
11360TIP3    H155571   3.558   3.140   2.914  1.7150  2.1183 -0.1810
11360TIP3    H255572   3.478   3.233   2.825  1.4334  1.6628 -0.4105
11361TIP3   OH255573   4.779   6.591  11.401  0.3593 -0.1612 -0.1398
11361TIP3    H155574   4.819   6.557  11.481  1.5468 -0.2359 -0.7424
11361TIP3    H255575   4.791   6.522  11.337 -3.5785 -1.5502  0.3701
11362TIP3   OH255576   0.807   1.211  11.307  0.3658 -0.0047  0.0829
11362TIP3    H155577   0.883   1.153  11.298 -0.2364 -0.7947 -0.0601
11362TIP3    H255578   0.773   1.193  11.395 -1.2672 -1.7223 -0.8271
11363TIP3   OH255579   2.358   0.638   1.268 -0.3613  0.2431  0.4881
11363TIP3    H155580   2.443   0.660   1.230 -0.1029  0.4947  1.2054
11363TIP3    H255581   2.378   0.599   1.353 -0.9433 -0.1764  0.4380
11364TIP3   OH255582   6.712   3.550   2.999  0.4188 -0.1933 -0.5186
11364TIP3    H155583   6.678   3.565   2.911 -0.6277  2.8645  0.2957
11364TIP3    H255584   6.652   3.485   3.037 -0.2693 -0.1090 -1.4348
11365TIP3   OH255585   2.663   4.723  14.719 -0.3329  0.0436  0.1474
11365TIP3    H155586   2.696   4.807  14.688  2.2275 -1.3300 -1.1353
11365TIP3    H255587   2.568   4.730  14.711 -0.0974  2.1576 -1.6365
11366TIP3   OH255588   5.977   0.334   0.730 -0.0825  0.4772 -0.4213
11366TIP3    H155589   6.009   0.292   0.810 -2.5164  0.3894  0.5969
11366TIP3    H255590   5.895   0.290   0.710  0.4525  0.4970 -3.0398
11367TIP3   OH255591   0.411   5.719   2.086 -0.2269  0.5024  0.1300
11367TIP3    H155592   0.478   5.708   2.154 -0.0098 -1.0989 -0.3044
11367TIP3    H255593   0.329   5.693   2.128 -0.0621 -0.6880 -0.2447
11368TIP3   OH255594   3.466   3.709   2.310  0.5935 -0.4641  0.5344
11368TIP3    H155595   3.503   3.647   2.248 -1.3860 -0.3202 -0.8618
11368TIP3    H255596   3.387   3.666   2.343 -1.1133  1.4307 -0.8491
11369TIP3   OH255597   5.805   3.955   2.970  0.7256 -0.2250 -0.0262
11369TIP3    H155598   5.790   3.932   3.062  2.2831 -0.5502  0.1837
11369TIP3    H255599   5.785   4.048   2.964  0.3656 -0.2620  0.5830
11370TIP3   OH255600   6.597   6.037  14.979 -0.0459 -0.1542  0.1666
11370TIP3    H155601   6.671   6.072  14.930 -0.5310 -0.4039 -0.7770
11370TIP3    H255602   6.561   6.112  15.025  0.0327  0.2232 -0.3757
11371TIP3   OH255603   0.638   2.312  16.320  0.0048  0.1590 -0.3476
11371TIP3    H155604   0.565   2.251  16.334 -1.0962  1.7490  1.2090
11371TIP3    H255605   0.661   2.343  16.407  0.8505  1.5937 -1.0454
11372TIP3   OH255606   2.016   2.342  15.118  0.0349  0.1015 -0.1161
11372TIP3    H155607   1.992   2.319  15.028  3.3172  0.8454 -1.3185
11372TIP3    H255608   1.986   2.269  15.171  2.3238 -2.8649 -2.5603
11373TIP3   OH255609   2.916   6.417   4.651 -0.0921 -1.1128 -0.5190
11373TIP3    H155610   2.852   6.401   4.719  0.8228 -1.5759  0.2507
11373TIP3    H255611   2.995   6.445   4.697 -0.2348  1.2589 -1.5354
11374TIP3   OH255612   6.392   5.999  15.419  0.1157  0.3355 -0.1380
11374TIP3    H155613   6.461   6.066  15.412 -0.8087  1.3286 -0.0988
11374TIP3    H255614   6.390   5.958  15.332 -0.1648  1.2746 -0.5990
11375TIP3   OH255615   6.329   0.553   3.895  0.6410  0.0938 -0.0446
11375TIP3    H155616   6.387   0.528   3.823  0.1506 -2.0284  0.2374
11375TIP3    H255617   6.246   0.576   3.852  0.3974 -1.0199 -0.1904
11376TIP3   OH255618   5.122   6.328  16.014  0.9388 -0.4340 -0.3689
11376TIP3    H155619   5.077   6.245  16.030  0.4259 -0.0704  0.1203
11376TIP3    H255620   5.196   6.327  16.075 -1.5526  1.3708  3.0246
11377TIP3   OH255621   6.529   4.051  16.744  0.5244  0.3282  0.3566
11377TIP3    H155622   6.477   4.002  16.808 -0.7461  0.8861 -0.1926
11377TIP3    H255623   6.551   4.133  16.788  0.7167  0.1988  0.5028
11378TIP3   OH255624   5.196   4.164   1.467 -0.2363 -0.7386 -0.1011
11378TIP3    H155625   5.283   4.128   1.482 -0.0400 -0.3162 -0.2158
11378TIP3    H255626   5.201   4.208   1.382  0.4794  2.3172  1.3755
11379TIP3   OH255627   4.752   0.657  14.844 -0.0858 -0.1896  0.3425
11379TIP3    H155628   4.676   0.616  14.801 -0.0332 -0.0412  0.1076
11379TIP3    H255629   4.717   0.691  14.926 -1.1150  2.8943 -1.1854
11380TIP3   OH255630   0.104   2.955   2.074  0.1729 -0.2135 -0.1876
11380TIP3    H155631   0.164   2.958   2.149 -0.7435 -0.9743  0.6083
11380TIP3    H255632   0.140   3.018   2.012  1.2595  0.0416  0.6643
11381TIP3   OH255633   1.125   4.035  14.818  0.4398 -0.4465 -0.0143
11381TIP3    H155634   1.177   4.043  14.738 -0.4347  1.2618 -0.4756
11381TIP3    H255635   1.164   4.098  14.878 -1.4489  1.4139 -0.6253
11382TIP3   OH255636   4.788   5.463   1.526 -0.0185  0.5121  0.1512
11382TIP3    H155637   4.771   5.395   1.461 -0.6973  0.1949  0.6477
11382TIP3    H255638   4.871   5.437   1.567  0.2006  0.4949 -0.2948
11383TIP3   OH255639   2.352   2.245  12.015  0.8667 -0.2926  0.6906
11383TIP3    H155640   2.379   2.159  11.982  0.8222 -0.0647  0.0327
11383TIP3    H255641   2.293   2.226  12.087  3.1255 -0.8191  2.5193
11384TIP3   OH255642   3.773   3.466  10.907  0.2605 -0.1735 -0.0122
11384TIP3    H155643   3.705   3.522  10.869  0.2047 -1.4541 -1.9289
11384TIP3    H255644   3.846   3.473  10.845  0.3250 -2.0002 -0.1861
11385TIP3   OH255645   4.526   2.562  16.785  0.4254  0.1256 -0.3217
11385TIP3    H155646   4.508   2.592  16.875 -1.1010  0.2632 -0.6502
11385TIP3    H255647   4.622   2.564  16.778  0.7100 -1.6022  1.8916
11386TIP3   OH255648   1.563   1.334   3.054  0.3478 -0.2275 -0.0167
11386TIP3    H155649   1.633   1.332   2.988  0.7813  0.1251  0.4234
11386TIP3    H255650   1.508   1.259   3.033 -0.0119  0.3667 -1.3155
11387TIP3   OH255651   2.546   2.212  13.921 -0.3197 -0.1941 -0.0783
11387TIP3    H155652   2.468   2.265  13.904 -1.0336 -1.2922 -0.3610
11387TIP3    H255653   2.547   2.201  14.016 -0.0657  0.4592 -0.0009
11388TIP3   OH255654   2.349   2.601   3.502  0.6670 -0.1348  0.1346
11388TIP3    H155655   2.372   2.619   3.593 -1.2607 -1.1004  0.8721
11388TIP3    H255656   2.415   2.537   3.473  3.0022  2.2145 -0.1458
11389TIP3   OH255657   2.877   5.301   4.282 -0.2594  0.3387 -0.1564
11389TIP3    H155658   2.892   5.304   4.377  0.2744 -0.7213 -0.1918
11389TIP3    H255659   2.815   5.372   4.266  0.1384  0.9484  0.8904
11390TIP3   OH255660   3.746   0.040   0.817  0.3624 -0.1305  0.0182
11390TIP3    H155661   3.659   0.074   0.838 -1.0172 -1.1823 -3.4822
11390TIP3    H255662   3.764   0.072   0.729  2.6147 -1.7437 -0.1850
11391TIP3   OH255663   2.986   5.591   5.259  0.2838  0.1947 -0.2578
11391TIP3    H155664   2.896   5.571   5.232  0.9061 -0.9111 -1.6552
11391TIP3    H255665   3.005   5.526   5.326  0.6148 -0.7833 -1.2564
11392TIP3   OH255666   4.364   1.694  12.392 -0.1348  0.1309 -0.2714
11392TIP3    H155667   4.435   1.630  12.401  0.2510  0.4169 -1.0993
11392TIP3    H255668   4.397   1.756  12.327 -0.9516  0.5477 -0.2999
11393TIP3   OH255669   4.749   3.876   3.308  0.3141  0.4181  0.7071
11393TIP3    H155670   4.833   3.847   3.342  0.7158  0.1393 -0.4705
11393TIP3    H255671   4.770   3.923   3.227 -0.7389 -1.1309 -0.5393
11394TIP3   OH255672   0.632   2.703  13.905  0.0702  0.2871 -0.0448
11394TIP3    H155673   0.721   2.698  13.871  0.5992  0.1638  1.3133
11394TIP3    H255674   0.611   2.797  13.903  0.7170  0.4598  0.8220
11395TIP3   OH255675   4.009   3.891  15.245  0.1189  0.0347  0.2394
11395TIP3    H155676   4.075   3.948  15.283  0.0325  0.5693 -0.3913
11395TIP3    H255677   3.983   3.832  15.316  0.1472  0.8353  0.9225
11396TIP3   OH255678   2.288   1.283   5.007 -0.3331  0.5580  0.2636
11396TIP3    H155679   2.341   1.288   4.927 -0.4864 -1.9662 -0.0640
11396TIP3    H255680   2.198   1.289   4.977 -0.3562  1.2317  0.4461
11397TIP3   OH255681   5.467   2.588  15.713 -0.3212 -0.4045 -0.0301
11397TIP3    H155682   5.501   2.531  15.644  0.4606 -1.0973  0.9118
11397TIP3    H255683   5.545   2.622  15.757 -0.7722  1.1101 -0.3169
11398TIP3   OH255684   5.443   1.272  11.438  0.2837 -0.0068  0.2937
11398TIP3    H155685   5.430   1.352  11.388  0.3606  0.0722  0.3982
11398TIP3    H255686   5.421   1.202  11.378 -2.4532  0.1505  0.9670
11399TIP3   OH255687   6.040   5.373   2.542 -0.2706 -0.1126  0.5476
11399TIP3    H155688   5.968   5.423   2.581  0.2305  2.5561 -1.6547
11399TIP3    H255689   6.092   5.438   2.495  2.3328 -2.2910  0.1479
11400TIP3   OH255690   6.804   4.973  12.693  0.3713  0.3751 -0.3129
11400TIP3    H155691   6.766   5.061  12.690 -0.0866  0.1570 -1.5281
11400TIP3    H255692   6.813   4.947  12.601 -2.1372 -1.9489 -0.0369
11401TIP3   OH255693   0.922   1.615   4.787 -0.2135 -0.1490  0.4620
11401TIP3    H155694   0.954   1.679   4.724 -1.5649  0.7263  0.6144
11401TIP3    H255695   0.998   1.559   4.806 -0.0676 -1.3382 -2.9452
11402TIP3   OH255696   3.965   2.011  11.457  0.6729 -0.5213  0.6883
11402TIP3    H155697   3.977   2.003  11.551  0.2081 -0.4778  0.7540
11402TIP3    H255698   3.988   2.101  11.437 -0.7773 -0.0497  1.0155
11403TIP3   OH255699   3.095   1.830  10.796  0.1877 -0.0117  0.0580
11403TIP3    H155700   3.079   1.782  10.714  0.4091 -1.5950  0.9038
11403TIP3    H255701   3.117   1.919  10.767 -1.6135 -0.0067 -1.5077
11404TIP3   OH255702   1.391   6.696  11.029  0.2226  0.2330  0.1001
11404TIP3    H155703   1.395   6.619  10.972  1.9464  0.9699 -0.8615
11404TIP3    H255704   1.375   6.769  10.969 -0.9336  0.7134  0.9447
11405TIP3   OH255705   3.961   6.346   1.505  0.2763 -0.4667  0.1039
11405TIP3    H155706   4.017   6.417   1.534  1.7330 -0.9325 -1.4296
11405TIP3    H255707   3.940   6.297   1.585  1.5400  0.0781  0.7820
11406TIP3   OH255708   1.055   2.668  11.067 -0.3399 -0.1079  0.1333
11406TIP3    H155709   0.976   2.722  11.072  0.9043  1.7722  0.9948
11406TIP3    H255710   1.023   2.580  11.050 -2.4740  0.9498 -1.9479
11407TIP3   OH255711   5.622   3.353   3.802  0.1938 -0.1560  0.0299
11407TIP3    H155712   5.690   3.287   3.789 -0.9796 -1.3363 -0.3988
11407TIP3    H255713   5.541   3.302   3.810 -0.8172  1.2623 -0.7351
11408TIP3   OH255714   0.414   3.918   1.470  0.0695 -0.2460  0.1185
11408TIP3    H155715   0.375   3.997   1.506  1.0841  0.4429 -0.2522
11408TIP3    H255716   0.483   3.949   1.411  0.2610 -1.3954 -0.2948
11409TIP3   OH255717   1.270   6.320   6.331  0.1081 -0.2956  0.0932
11409TIP3    H155718   1.320   6.380   6.387  1.0252 -0.1640 -0.8283
11409TIP3    H255719   1.223   6.378   6.271 -0.6074 -0.4491  0.4912
11410TIP3   OH255720   2.725   4.952   3.871  0.2622 -0.0318  0.1682
11410TIP3    H155721   2.753   5.038   3.901 -1.2060  0.0769  1.3825
11410TIP3    H255722   2.798   4.919   3.819  2.0514  0.7247  2.0612
11411TIP3   OH255723   6.282   4.268   0.672  0.0831  0.4479 -0.0053
11411TIP3    H155724   6.344   4.198   0.656 -0.7130 -0.2039 -0.2808
11411TIP3    H255725   6.236   4.242   0.751 -0.9419  0.1255 -0.6905
11412TIP3   OH255726   5.453   1.103  10.951  0.6051 -0.3232  0.0691
11412TIP3    H155727   5.456   1.032  10.887  0.6743 -0.4467  0.2120
11412TIP3    H255728   5.528   1.159  10.927  0.3564 -0.1217 -0.2492
11413TIP3   OH255729   5.197   0.782   2.383 -0.0810 -0.4931  0.1290
11413TIP3    H155730   5.110   0.776   2.423  0.3430 -1.8140  0.9099
11413TIP3    H255731   5.242   0.848   2.434 -0.0162 -1.1603  0.9630
11414TIP3   OH255732   3.821   3.143  17.307  0.3319  0.0255 -0.0198
11414TIP3    H155733   3.842   3.211  17.243 -1.7008  1.7792  1.0335
11414TIP3    H255734   3.747   3.095  17.269  0.0580  0.1342  0.3657
11415TIP3   OH255735   2.986   0.120   5.660  0.0432 -0.0418  0.1948
11415TIP3    H155736   2.974   0.170   5.579  0.8822  0.5772  0.4309
11415TIP3    H255737   2.988   0.187   5.729  0.0131 -0.5054  0.6523
11416TIP3   OH255738   3.996   0.727   5.076  0.2881  0.1008  0.5560
11416TIP3    H155739   3.965   0.674   5.150  0.1215 -1.8302 -0.8127
11416TIP3    H255740   4.084   0.694   5.058  0.9328  1.5943  0.7886
11417TIP3   OH255741   2.507   1.480   0.371 -0.1875 -0.7865 -0.0117
11417TIP3    H155742   2.459   1.495   0.452 -1.0966 -0.5230 -0.5718
11417TIP3    H255743   2.599   1.481   0.396 -0.4660 -2.8135  1.3706
11418TIP3   OH255744   5.685   0.395  14.712 -0.2182 -0.1764  0.3678
11418TIP3    H155745   5.690   0.485  14.678 -2.0813 -0.0334  0.3643
11418TIP3    H255746   5.699   0.340  14.635  0.2901  0.1115  0.2502
11419TIP3   OH255747   6.392   5.618  12.885 -0.0583  0.0006  0.5879
11419TIP3    H155748   6.344   5.681  12.937  0.3499  2.3419 -1.6368
11419TIP3    H255749   6.325   5.558  12.851 -0.9387  1.1265  0.2799
11420TIP3   OH255750   0.392   2.253   4.747  0.4976  0.0540 -0.4348
11420TIP3    H155751   0.425   2.276   4.660  0.4390 -0.4051 -0.5821
11420TIP3    H255752   0.319   2.313   4.762  0.0786 -0.3045 -0.9903
11421TIP3   OH255753   0.060   2.223  16.995  0.2204  0.2018  0.1582
11421TIP3    H155754  -0.017   2.181  16.957 -1.1249 -0.0870  2.9632
11421TIP3    H255755   0.049   2.316  16.977 -0.3881  0.0731 -0.1513
11422TIP3   OH255756   6.207   4.476   1.198  0.0404 -0.5008 -0.2434
11422TIP3    H155757   6.136   4.537   1.218  0.5559  0.1737 -0.4241
11422TIP3    H255758   6.231   4.439   1.283  0.4007  0.3245  0.0277
11423TIP3   OH255759   4.426   1.110  13.337  0.0862  0.1812 -0.2382
11423TIP3    H155760   4.505   1.093  13.287  1.4475 -1.4787  2.2676
11423TIP3    H255761   4.384   1.024  13.347 -1.0203  0.7329  0.0573
11424TIP3   OH255762   1.003   0.950  11.944 -0.1257  0.1538  0.0549
11424TIP3    H155763   0.985   1.024  11.887 -0.7169  0.9165  1.2129
11424TIP3    H255764   0.931   0.948  12.006  1.0463  0.0122  1.4690
11425TIP3   OH255765   4.757   3.851   2.827 -0.3093 -0.1800  0.4860
11425TIP3    H155766   4.817   3.924   2.833 -0.1150 -0.3644  0.8477
11425TIP3    H255767   4.676   3.883   2.866 -1.4939  1.1028 -2.7504
11426TIP3   OH255768   1.796   0.760  13.875  0.2316 -0.2129  0.1531
11426TIP3    H155769   1.728   0.702  13.840  1.4796 -1.1103 -0.8964
11426TIP3    H255770   1.807   0.827  13.809  0.5769 -0.2528  0.1659
11427TIP3   OH255771   4.395   6.298  16.305  0.1511 -0.0698  0.3358
11427TIP3    H155772   4.434   6.382  16.328  2.4684 -0.7354 -0.8800
11427TIP3    H255773   4.434   6.235  16.365 -0.4444 -0.5023  0.2779
11428TIP3   OH255774   0.249   3.184  13.984 -0.7328  0.0398 -0.2840
11428TIP3    H155775   0.265   3.159  13.893 -2.4161 -0.2890 -0.5208
11428TIP3    H255776   0.280   3.109  14.035  2.2714  1.0950 -0.3649
11429TIP3   OH255777   6.334   4.338  14.121 -0.2636 -0.1444 -0.2777
11429TIP3    H155778   6.339   4.432  14.137 -0.5694  0.2956 -2.3827
11429TIP3    H255779   6.280   4.303  14.193 -1.4202  1.5369 -0.2760
11430TIP3   OH255780   5.558   2.618  10.310  0.2660  0.0066  0.8528
11430TIP3    H155781   5.540   2.551  10.244 -0.3497 -0.0141  1.0371
11430TIP3    H255782   5.653   2.619  10.317  0.4055  0.6119 -0.6697
11431TIP3   OH255783   5.529   6.136   2.114 -0.2696  0.1451  0.5568
11431TIP3    H155784   5.535   6.047   2.079 -0.6756 -0.0402  0.9506
11431TIP3    H255785   5.508   6.124   2.207  1.4951  0.5979  1.0703
11432TIP3   OH255786   0.803   0.943   1.755  0.4566  0.4218 -0.2663
11432TIP3    H155787   0.839   1.031   1.762  1.3962  0.0287 -0.0297
11432TIP3    H255788   0.877   0.888   1.731  0.3096 -0.6186  1.4608
11433TIP3   OH255789   0.842   6.513  15.531 -0.1869  0.1349 -0.4626
11433TIP3    H155790   0.827   6.574  15.603  0.2023  1.0415 -1.1296
11433TIP3    H255791   0.758   6.469  15.520  0.3952 -1.9607  2.2215
11434TIP3   OH255792   3.644   6.027   2.527  0.0640 -0.1471 -0.4681
11434TIP3    H155793   3.669   5.962   2.461 -1.5481 -0.7186 -0.5603
11434TIP3    H255794   3.695   6.002   2.604 -0.7697 -1.7834 -0.3923
11435TIP3   OH255795   5.287   6.523   5.879  0.1062 -0.5549  0.1455
11435TIP3    H155796   5.377   6.492   5.877  0.0794 -0.5969 -1.0460
11435TIP3    H255797   5.238   6.457   5.829 -0.0072  1.1726 -2.1871
11436TIP3   OH255798   6.440   5.638  11.552  0.0289  0.5050  0.3569
11436TIP3    H155799   6.363   5.592  11.521 -0.1639  0.9084  0.2418
11436TIP3    H255800   6.416   5.730  11.551  0.6280  0.6614 -0.0086
11437TIP3   OH255801   5.277   3.202   1.660 -0.4217 -0.5044 -0.1861
11437TIP3    H155802   5.280   3.266   1.731  0.4782 -1.4136  0.6220
11437TIP3    H255803   5.185   3.179   1.653 -0.7957  1.0290 -0.6419
11438TIP3   OH255804   3.820   3.566   1.957  0.3010  0.2063  0.1403
11438TIP3    H155805   3.758   3.636   1.977  0.2281 -0.2834  1.7357
11438TIP3    H255806   3.767   3.496   1.919  0.0074  0.1450  0.6533
11439TIP3   OH255807   6.043   5.516  16.018  0.4468 -0.0777  0.0355
11439TIP3    H155808   6.045   5.498  16.113 -2.4856  0.4030  0.2898
11439TIP3    H255809   5.964   5.471  15.988  0.1560  1.5499 -1.7776
11440TIP3   OH255810   2.449   4.277   5.355 -0.1615 -0.4315  0.5410
11440TIP3    H155811   2.512   4.245   5.420 -0.2557 -1.3748  0.1907
11440TIP3    H255812   2.367   4.288   5.404 -0.3775 -1.6621  0.4958
11441TIP3   OH255813   6.024   6.326  13.842  0.6348 -0.4419  0.3024
11441TIP3    H155814   5.977   6.299  13.763  0.3415 -1.8419  0.9083
11441TIP3    H255815   6.100   6.373  13.810 -0.1405  0.1349 -0.7723
11442TIP3   OH255816   6.111   1.045  15.899  0.3317  0.8300  0.2665
11442TIP3    H155817   6.082   0.961  15.864  0.5780  0.8726 -0.0439
11442TIP3    H255818   6.197   1.059  15.861 -0.4416  2.0749 -1.1610
11443TIP3   OH255819   5.841   2.888   2.326 -0.2426 -0.3053 -0.3455
11443TIP3    H155820   5.895   2.915   2.252  0.6889  0.9986  0.7623
11443TIP3    H255821   5.813   2.970   2.367 -0.2391 -0.9880  1.0916
11444TIP3   OH255822   0.907   1.933  12.577 -0.0517  0.3058 -0.0456
11444TIP3    H155823   0.881   2.008  12.632 -0.3251  0.3105 -0.1834
11444TIP3    H255824   0.857   1.859  12.612 -1.5016  0.6344 -1.3351
11445TIP3   OH255825   6.693   1.558   0.913  0.1524  0.3576  0.1722
11445TIP3    H155826   6.646   1.475   0.906 -0.7571  0.8461  0.3448
11445TIP3    H255827   6.719   1.579   0.824  1.1803 -0.5501  0.2400
11446TIP3   OH255828   1.764   5.868   5.818 -0.3958  0.1606 -0.0679
11446TIP3    H155829   1.845   5.842   5.775 -0.6700 -0.3063 -0.3119
11446TIP3    H255830   1.701   5.875   5.747 -0.7483 -0.2010  0.2051
11447TIP3   OH255831   2.973   0.304   5.886  0.4159  0.0999 -0.3360
11447TIP3    H155832   2.889   0.305   5.932  0.2520 -1.3571 -0.5364
11447TIP3    H255833   3.037   0.281   5.954  0.4563 -0.0997 -0.4407
11448TIP3   OH255834   3.236   5.285   3.177  1.1172 -0.2490 -0.3499
11448TIP3    H155835   3.281   5.206   3.207  1.4224  0.0881  0.0804
11448TIP3    H255836   3.267   5.354   3.235 -0.2135 -0.0749  0.2019
11449TIP3   OH255837   3.211   0.737   1.357 -0.1268  0.3424  0.1419
11449TIP3    H155838   3.150   0.668   1.330 -0.2327  0.5865 -0.2470
11449TIP3    H255839   3.187   0.755   1.448 -1.1253  0.9522 -0.2306
11450TIP3   OH255840   3.528   0.368   4.460  0.5145  0.3757 -0.0970
11450TIP3    H155841   3.485   0.284   4.477 -0.4966  0.7369 -0.7986
11450TIP3    H255842   3.457   0.427   4.436  1.0892  1.7280  1.4043
11451TIP3   OH255843   0.905   6.218   2.365 -0.1164 -0.1276  0.1908
11451TIP3    H155844   0.818   6.178   2.369  0.2248 -0.9796 -0.3942
11451TIP3    H255845   0.945   6.196   2.449 -0.2336 -0.2999  0.2019
11452TIP3   OH255846   3.348   6.089  17.041 -0.5499  0.0259 -0.5338
11452TIP3    H155847   3.321   6.048  16.959 -1.6115  1.5500 -0.9926
11452TIP3    H255848   3.437   6.119  17.024 -0.5204 -0.2572 -0.8983
11453TIP3   OH255849   6.654   1.464   4.652 -0.6535 -0.2895 -0.0378
11453TIP3    H155850   6.562   1.448   4.671 -0.9930  0.1260 -1.2517
11453TIP3    H255851   6.702   1.409   4.715 -1.6543  1.4859  2.4413
11454TIP3   OH255852   0.057   5.592   1.987  0.2991 -0.0747  0.4007
11454TIP3    H155853   0.074   5.625   1.899  2.0686  1.2577  1.1585
11454TIP3    H255854   0.111   5.513   1.994 -0.0835 -0.3538  0.1859
11455TIP3   OH255855   2.693   4.952  15.304 -0.2435 -0.4484  0.4370
11455TIP3    H155856   2.645   4.877  15.270 -0.9533  1.2383 -2.5750
11455TIP3    H255857   2.636   4.989  15.372 -2.0682 -0.0642 -1.2071
11456TIP3   OH255858   2.804   6.373  12.750  0.1808  0.5047  0.0469
11456TIP3    H155859   2.804   6.355  12.844 -0.3461 -0.3290 -0.0922
11456TIP3    H255860   2.795   6.468  12.743 -1.8490  0.4317  0.8482
11457TIP3   OH255861   1.429   4.870   5.872 -0.1672  0.1215  0.2384
11457TIP3    H155862   1.391   4.783   5.860  1.1230 -0.6430  1.4548
11457TIP3    H255863   1.471   4.890   5.788  0.3118 -0.8501  0.2316
11458TIP3   OH255864   2.702   0.498  10.957 -0.2837 -0.2030 -0.0017
11458TIP3    H155865   2.674   0.424  11.012  0.3241  0.1699  0.8321
11458TIP3    H255866   2.705   0.462  10.869  1.1455 -1.5457  0.5273
11459TIP3   OH255867   4.362   1.875   1.033  0.0801 -0.0891  0.3715
11459TIP3    H155868   4.427   1.897   0.966  0.6887 -1.3811  0.4986
11459TIP3    H255869   4.413   1.854   1.110 -0.1070 -4.4576 -0.4197
11460TIP3   OH255870   2.242   3.657  17.186  0.0741  0.3170  0.2241
11460TIP3    H155871   2.216   3.574  17.146 -0.3777  0.5235  0.0878
11460TIP3    H255872   2.316   3.634  17.242  1.8240  0.2513 -1.9550
11461TIP3   OH255873   6.740   0.880   0.280 -0.3670  0.4028 -0.4372
11461TIP3    H155874   6.817   0.923   0.318 -0.8450 -0.6305  1.9186
11461TIP3    H255875   6.769   0.850   0.194  1.4592  1.1624 -0.1331
11462TIP3   OH255876   5.055   1.684   1.853  0.2105 -0.3325  0.0352
11462TIP3    H155877   5.130   1.739   1.828  0.0961 -0.7183 -1.2167
11462TIP3    H255878   5.034   1.634   1.774 -0.3407 -1.4342  0.8385
11463TIP3   OH255879   3.179   6.405  12.539  0.4222 -0.5935  0.1890
11463TIP3    H155880   3.249   6.468  12.522 -0.2755  0.2514  0.3946
11463TIP3    H255881   3.107   6.432  12.482  0.5759 -2.0406 -0.7515
11464TIP3   OH255882   0.768   3.295   5.785 -0.0654  0.5844  0.1324
11464TIP3    H155883   0.795   3.232   5.719  1.1618 -0.0419  1.1767
11464TIP3    H255884   0.823   3.275   5.861 -1.0440  1.6299  1.1593
11465TIP3   OH255885   2.156   4.245  16.093 -0.0036  0.5570  0.4313
11465TIP3    H155886   2.195   4.219  16.010  1.9759  0.2040  1.3968
11465TIP3    H255887   2.199   4.189  16.158 -3.3420 -1.0172  1.4926
11466TIP3   OH255888   1.711   6.204   4.383 -0.0889  0.9763  0.2240
11466TIP3    H155889   1.625   6.209   4.342 -0.4612  1.9859  1.0837
11466TIP3    H255890   1.770   6.178   4.312 -1.3513 -1.7080  0.0039
11467TIP3   OH255891   1.237   2.358  12.680 -0.2572 -0.8148 -0.1873
11467TIP3    H155892   1.171   2.320  12.621 -0.9795 -2.2433  1.4377
11467TIP3    H255893   1.194   2.358  12.766  1.1548  0.1534  0.5458
11468TIP3   OH255894   3.787   2.219  14.231  0.0683 -0.0299  0.5242
11468TIP3    H155895   3.873   2.180  14.217 -1.5074 -3.5659 -0.2206
11468TIP3    H255896   3.760   2.189  14.317 -1.4381 -1.2107 -0.3142
11469TIP3   OH255897   2.592   4.890  11.160  0.3403 -0.1904  0.5475
11469TIP3    H155898   2.654   4.963  11.150  1.1063 -0.7395  1.1844
11469TIP3    H255899   2.643   4.812  11.138 -0.6556 -0.4933 -0.7719
11470TIP3   OH255900   2.570   3.661  13.439 -0.2927  0.7827  1.1654
11470TIP3    H155901   2.601   3.722  13.505 -1.0576  3.2534 -0.6337
11470TIP3    H255902   2.647   3.639  13.387  0.3667 -1.3695  2.8738
11471TIP3   OH255903   2.133   2.691  10.508  0.2681  0.4474  0.1135
11471TIP3    H155904   2.139   2.597  10.495  0.9563  0.7439 -2.1098
11471TIP3    H255905   2.045   2.704  10.544  0.0043 -0.9826  0.0494
11472TIP3   OH255906   2.522   0.476  14.322  0.0691  0.4253  0.0342
11472TIP3    H155907   2.551   0.414  14.390  0.5601 -0.5524 -1.0328
11472TIP3    H255908   2.446   0.434  14.282 -0.1896  0.9736 -0.0614
11473TIP3   OH255909   4.492   2.477  13.932  0.6085  0.2584 -0.1569
11473TIP3    H155910   4.432   2.416  13.890  1.3991 -1.3388  0.9376
11473TIP3    H255911   4.517   2.435  14.014  1.6819  1.7740  0.3555
11474TIP3   OH255912   4.222   4.118   0.938 -0.2510  0.0096 -0.1985
11474TIP3    H155913   4.277   4.192   0.965 -0.1245  0.2701 -1.1344
11474TIP3    H255914   4.139   4.157   0.913 -0.7344 -0.3430  0.8044
11475TIP3   OH255915   3.602   2.423   0.352 -0.2547 -0.0702  0.4904
11475TIP3    H155916   3.637   2.466   0.274  0.4049 -1.1648  0.1619
11475TIP3    H255917   3.534   2.364   0.318  0.5979 -1.1643  0.6238
11476TIP3   OH255918   0.962   1.755  13.827  0.2560 -0.3868  0.2671
11476TIP3    H155919   0.878   1.728  13.865  0.5851 -0.8260  0.6914
11476TIP3    H255920   1.006   1.803  13.898 -0.6030  1.9423 -0.6642
11477TIP3   OH255921   6.564   3.891  16.273  0.7791 -0.6086 -0.4490
11477TIP3    H155922   6.593   3.949  16.344 -1.5194 -0.7567  0.7364
11477TIP3    H255923   6.610   3.809  16.288 -0.5032 -1.0271  1.6991
11478TIP3   OH255924   5.707   1.125  11.641  0.4587  0.5501 -0.2460
11478TIP3    H155925   5.677   1.215  11.645  2.1160  1.0969  1.6269
11478TIP3    H255926   5.635   1.073  11.678  0.8917  1.5657  2.1786
11479TIP3   OH255927   1.110   3.629  16.268 -0.3400  0.9954 -0.1272
11479TIP3    H155928   1.163   3.658  16.194  0.3076  2.7921  0.9809
11479TIP3    H255929   1.171   3.584  16.326 -0.5772  0.7521 -0.0616
11480TIP3   OH255930   4.092   3.098   6.686  0.1121 -0.0173 -0.4139
11480TIP3    H155931   4.034   3.159   6.732 -0.1238 -0.2610 -0.3814
11480TIP3    H255932   4.146   3.154   6.630  0.6353  0.3067  0.4100
11481TIP3   OH255933   3.291   5.047  10.690  0.2726  0.0847  0.0980
11481TIP3    H155934   3.278   4.954  10.671  2.6278 -0.2864 -0.0034
11481TIP3    H255935   3.357   5.075  10.627  1.1162  1.2852  1.4486
11482TIP3   OH255936   1.377   1.495  15.969 -0.0510  0.0267  0.0482
11482TIP3    H155937   1.382   1.422  16.031  0.5744  0.0237  0.0001
11482TIP3    H255938   1.348   1.569  16.022  0.5186  0.0345  0.3571
11483TIP3   OH255939   4.155   0.355   5.755 -0.2590  0.2500 -0.2351
11483TIP3    H155940   4.184   0.302   5.681  2.0274  1.1930 -0.0977
11483TIP3    H255941   4.075   0.312   5.785  1.0370 -2.6869 -0.5970
11484TIP3   OH255942   2.009   4.643  15.879 -0.3048  0.2253 -0.2402
11484TIP3    H155943   2.102   4.655  15.897 -0.2755  2.0455 -1.3519
11484TIP3    H255944   2.001   4.551  15.851  1.0232 -0.1311  0.4732
11485TIP3   OH255945   2.407   4.516   3.459 -0.3830 -0.1228 -0.3835
11485TIP3    H155946   2.436   4.594   3.412  0.7806  0.0611  0.5707
11485TIP3    H255947   2.356   4.551   3.533 -0.3870 -0.2996 -0.3034
11486TIP3   OH255948   6.786   4.725  15.847 -0.6782 -0.3507  0.1876
11486TIP3    H155949   6.842   4.726  15.925  0.0758 -1.9010 -0.3028
11486TIP3    H255950   6.772   4.818  15.827  2.3174  0.1589 -0.0429
11487TIP3   OH255951   1.480   1.423   4.455  0.2725  0.8920  0.1936
11487TIP3    H155952   1.432   1.487   4.403 -0.6355  1.3408  1.5440
11487TIP3    H255953   1.571   1.433   4.427 -0.0766  1.6861 -0.7047
11488TIP3   OH255954   4.219   4.694  13.487  0.4175  0.0455  0.8349
11488TIP3    H155955   4.168   4.721  13.410  0.0836  0.6103  1.2501
11488TIP3    H255956   4.163   4.630  13.531  1.4757 -1.9240 -0.5004
11489TIP3   OH255957   5.741   5.095  12.682 -0.8573  0.2799 -0.0757
11489TIP3    H155958   5.677   5.027  12.705 -1.3953  1.1555  1.1150
11489TIP3    H255959   5.689   5.175  12.672 -0.0877  0.7667 -0.2867
11490TIP3   OH255960   0.853   5.673  16.491  0.3037 -0.3761  0.2458
11490TIP3    H155961   0.779   5.671  16.551  0.3772  0.5760  0.3829
11490TIP3    H255962   0.921   5.720  16.539 -0.1376  1.7971 -1.1084
11491TIP3   OH255963   2.104   0.129  15.596  0.2179  0.1899 -0.2998
11491TIP3    H155964   2.038   0.195  15.577 -0.1869  0.0042  0.4069
11491TIP3    H255965   2.170   0.175  15.647  0.8192  0.4574 -1.2963
11492TIP3   OH255966   4.353   5.468   5.100 -0.1577  0.0511  0.2236
11492TIP3    H155967   4.352   5.410   5.024 -0.2084  0.8580 -0.4005
11492TIP3    H255968   4.417   5.535   5.079  2.2052 -1.3977  2.2126
11493TIP3   OH255969   5.672   0.215   1.154  0.0518 -0.1235 -0.3438
11493TIP3    H155970   5.711   0.153   1.093  2.6676  1.0114  0.0306
11493TIP3    H255971   5.743   0.236   1.215 -1.4040  1.5225  0.8726
11494TIP3   OH255972   1.567   3.646   5.398  0.5780  0.0269 -0.2095
11494TIP3    H155973   1.513   3.569   5.381 -0.9148  1.4959 -2.7597
11494TIP3    H255974   1.626   3.652   5.323 -0.0252  1.8597 -0.5950
11495TIP3   OH255975   2.822   2.227   3.839 -0.8339 -0.4370  0.5160
11495TIP3    H155976   2.897   2.244   3.782 -0.9754  1.2878  0.8039
11495TIP3    H255977   2.852   2.155   3.896  0.3239 -0.2815  0.1352
11496TIP3   OH255978   0.204   4.536  12.544  0.8711 -0.0951  0.1563
11496TIP3    H155979   0.278   4.595  12.558  0.7774  0.1237 -0.2412
11496TIP3    H255980   0.231   4.454  12.584  1.4065 -0.0698 -0.1352
11497TIP3   OH255981   0.542   0.139   4.291  0.1026  0.5724 -0.0711
11497TIP3    H155982   0.532   0.234   4.299 -1.9018  0.4400 -0.3018
11497TIP3    H255983   0.613   0.117   4.351  3.2334  2.5767 -2.6914
11498TIP3   OH255984   0.938   5.938  13.598 -0.0989  0.0970 -0.1128
11498TIP3    H155985   0.844   5.942  13.613 -0.5058  2.1838 -2.6385
11498TIP3    H255986   0.949   5.958  13.505  2.7745 -1.7450 -0.3030
11499TIP3   OH255987   6.373   6.005   1.133 -0.0336  0.1086  0.0460
11499TIP3    H155988   6.434   6.052   1.190  1.5791 -1.4560 -0.3132
11499TIP3    H255989   6.387   5.912   1.153 -2.7480 -0.3200  0.3608
11500TIP3   OH255990   2.385   2.461  16.061 -0.5213  0.6497 -0.4062
11500TIP3    H155991   2.337   2.472  16.142 -1.1296 -0.3839 -0.6178
11500TIP3    H255992   2.475   2.441  16.088 -0.1392  2.6702 -0.0150
11501TIP3   OH255993   6.179   3.834  13.318  0.0876 -0.4104 -0.1444
11501TIP3    H155994   6.086   3.849  13.301  0.0815 -0.9813 -0.6465
11501TIP3    H255995   6.186   3.831  13.413 -0.4439 -0.5988 -0.1093
11502TIP3   OH255996   2.526   0.316  12.762  0.5669 -0.0617  0.6517
11502TIP3    H155997   2.499   0.272  12.843  0.1730 -0.7494  0.1661
11502TIP3    H255998   2.593   0.259  12.725 -0.5246 -0.7156 -0.3983
11503TIP3   OH255999   0.325   0.237  15.768  0.0376 -0.4880  0.5074
11503TIP3    H156000   0.302   0.188  15.847 -1.2101 -1.6584 -0.5210
11503TIP3    H256001   0.241   0.252  15.724  0.5373  1.5244  0.1609
11504TIP3   OH256002   1.144   3.251  14.923 -0.5602 -0.2830 -0.2447
11504TIP3    H156003   1.183   3.310  14.987 -0.4107 -0.4102 -0.2176
11504TIP3    H256004   1.050   3.265  14.931 -0.4785  1.4090 -1.6193
11505TIP3   OH256005   0.499   5.651   3.625  0.5857 -0.5833 -0.0805
11505TIP3    H156006   0.540   5.593   3.561  0.8893  0.2030 -0.6101
11505TIP3    H256007   0.556   5.646   3.702  0.9202 -0.5559 -0.3237
11506TIP3   OH256008   4.926   5.216  17.150 -1.0591  0.0137  0.1111
11506TIP3    H156009   4.879   5.154  17.094 -0.3456 -0.4005 -0.0477
11506TIP3    H256010   5.019   5.198  17.132 -0.8384  1.0813  0.1161
11507TIP3   OH256011   2.453   1.940   6.328 -0.0438  0.4249  0.2711
11507TIP3    H156012   2.522   1.980   6.381  1.0538  0.5639 -1.1824
11507TIP3    H256013   2.466   1.846   6.338  1.0109  0.4339 -0.7247
11508TIP3   OH256014   5.316   4.634   3.504 -0.0546  0.1245  0.0342
11508TIP3    H156015   5.279   4.560   3.553 -0.6236  1.1913  1.2592
11508TIP3    H256016   5.242   4.670   3.455 -0.5459  1.7206  1.8136
11509TIP3   OH256017   4.124   1.373   1.548  0.1700 -0.5507  0.5897
11509TIP3    H156018   4.064   1.414   1.484  0.0102  0.1803  1.1960
11509TIP3    H256019   4.204   1.356   1.498 -0.1251 -0.4378  0.0687
11510TIP3   OH256020   6.494   0.199  16.672  0.7940  0.2197 -0.4212
11510TIP3    H156021   6.405   0.220  16.644  0.9618  1.0467 -0.3619
11510TIP3    H256022   6.550   0.258  16.621  1.5241 -1.8831 -2.2532
11511TIP3   OH256023   1.983   2.676   3.572 -0.1394  0.2039 -0.5146
11511TIP3    H156024   1.919   2.677   3.643  0.2729 -1.1817 -0.0791
11511TIP3    H256025   2.060   2.720   3.609  0.4764 -1.5028  0.3513
11512TIP3   OH256026   5.130   3.494   4.701  0.5156  0.1279 -0.1465
11512TIP3    H156027   5.145   3.400   4.693  1.1191  0.1364  0.7138
11512TIP3    H256028   5.086   3.504   4.786  0.9260  0.6648  0.0115
11513TIP3   OH256029   4.854   3.257   5.603 -0.0773 -0.2035 -0.5325
11513TIP3    H156030   4.810   3.203   5.537 -2.1840  1.5258 -0.6506
11513TIP3    H256031   4.846   3.206   5.684 -0.9724 -0.6122 -0.8612
11514TIP3   OH256032   4.922   1.152  15.196 -0.0227  0.0173  0.0365
11514TIP3    H156033   4.866   1.156  15.119  2.0234 -1.0155 -1.6293
11514TIP3    H256034   4.909   1.235  15.240 -2.2715  0.0919 -0.6575
11515TIP3   OH256035   1.990   1.252  15.944 -0.3036  0.1645  0.0111
11515TIP3    H156036   1.954   1.213  16.023 -0.8796  0.7011  0.0180
11515TIP3    H256037   2.049   1.321  15.975  1.2336 -1.0816  0.0178
11516TIP3   OH256038   5.658   3.774  12.052 -0.1411  0.4778  0.2766
11516TIP3    H156039   5.593   3.732  11.996 -0.7259  0.6154  0.8294
11516TIP3    H256040   5.736   3.783  11.997 -0.4600 -0.0611 -0.2729
11517TIP3   OH256041   1.000   5.797  12.483  0.4922 -0.0401  0.2774
11517TIP3    H156042   0.947   5.867  12.521 -0.8559 -1.8381  1.9954
11517TIP3    H256043   1.089   5.814  12.515  0.6765  2.0285 -1.1555
11518TIP3   OH256044   0.441   3.762   1.686  0.1848  0.2917 -0.4543
11518TIP3    H156045   0.425   3.830   1.620  2.3307  4.6391  2.9521
11518TIP3    H256046   0.369   3.772   1.748  0.0392 -1.2871 -0.3370
11519TIP3   OH256047   4.538   2.228  15.445 -0.3250  0.5713  0.3406
11519TIP3    H156048   4.468   2.261  15.389 -0.7082  2.0025  1.5657
11519TIP3    H256049   4.583   2.307  15.476  0.1505 -0.1716  1.6564
11520TIP3   OH256050   0.953   6.352  12.059 -0.7663 -0.3691  0.3779
11520TIP3    H156051   0.944   6.380  12.150 -1.0337  1.3978 -0.1611
11520TIP3    H256052   0.998   6.267  12.064  0.8673  0.5464  2.0601
11521TIP3   OH256053   4.513   1.591   0.573  0.0617  0.2195 -0.2620
11521TIP3    H156054   4.476   1.558   0.655  0.7204 -1.2108 -0.5134
11521TIP3    H256055   4.501   1.519   0.511 -0.4936  1.3007 -1.4685
11522TIP3   OH256056   0.051   1.289  12.861 -0.1382  0.4506  0.8498
11522TIP3    H156057  -0.029   1.293  12.913  0.0502 -0.3052  1.2120
11522TIP3    H256058   0.120   1.266  12.924 -0.1965 -2.3592  0.0186
11523TIP3   OH256059   1.868   1.108   1.169  0.0242  0.4080  0.4909
11523TIP3    H156060   1.882   1.199   1.142  1.5245  0.5192  1.5394
11523TIP3    H256061   1.932   1.093   1.239 -0.5397 -1.3053  0.6911
11524TIP3   OH256062   1.633   6.121  16.984  0.0261  0.7799  0.2817
11524TIP3    H156063   1.726   6.100  16.985  0.2605  1.7723  0.2424
11524TIP3    H256064   1.625   6.198  16.928 -0.5177  1.9731  1.9133
11525TIP3   OH256065   3.461   2.716   0.264 -0.0708 -1.0540  0.1422
11525TIP3    H156066   3.410   2.636   0.271 -2.7604  0.6463  1.9853
11525TIP3    H256067   3.527   2.708   0.332 -0.0937 -1.8358  0.0829
11526TIP3   OH256068   5.364   1.836   5.039  0.3206 -0.1693 -0.0865
11526TIP3    H156069   5.458   1.816   5.031  0.1062 -1.3761  0.1380
11526TIP3    H256070   5.339   1.795   5.122 -1.1112 -2.8647 -1.7210
11527TIP3   OH256071   3.051   5.299   3.699 -0.1419 -0.4706  0.2542
11527TIP3    H156072   3.001   5.298   3.781  1.3653 -0.7925  1.2083
11527TIP3    H256073   3.142   5.291   3.727  0.4400 -0.0871 -1.4426
11528TIP3   OH256074   6.211   4.414   1.945  0.1403  0.3518 -0.3874
11528TIP3    H156075   6.139   4.384   2.000  1.1121 -0.6217  0.3782
11528TIP3    H256076   6.194   4.507   1.933 -1.8131 -0.0331 -1.1011
11529TIP3   OH256077   4.855   3.932  14.209 -0.8954  0.4150 -0.8042
11529TIP3    H156078   4.771   3.972  14.234 -0.6120  1.0693 -0.8799
11529TIP3    H256079   4.848   3.917  14.115 -0.9867  0.3276 -0.7837
11530TIP3   OH256080   5.921   4.014   1.558  1.1127 -0.0651  0.2784
11530TIP3    H156081   5.966   4.044   1.479  0.3926 -1.7258 -0.8196
11530TIP3    H256082   5.871   3.938   1.529  1.6348 -1.3505  2.5771
11531TIP3   OH256083   3.403   6.546  12.450  0.0132 -0.3185  0.0723
11531TIP3    H156084   3.446   6.548  12.365  0.1097  0.5860  0.1379
11531TIP3    H256085   3.407   6.636  12.482 -1.0650 -0.4118  0.5117
11532TIP3   OH256086   3.457   1.865   5.363 -0.1895 -0.2295  0.0330
11532TIP3    H156087   3.547   1.884   5.389 -0.5806 -0.1141  1.3724
11532TIP3    H256088   3.429   1.943   5.315 -0.0671  0.3853  0.9376
11533TIP3   OH256089   1.976   5.284   0.696 -0.3966 -0.4835 -0.5183
11533TIP3    H156090   1.889   5.313   0.724  0.1146  0.3474  0.2825
11533TIP3    H256091   2.004   5.350   0.632  0.6045  0.6322  1.0058
11534TIP3   OH256092   1.436   6.305  15.215 -0.2874 -0.3078  0.2484
11534TIP3    H156093   1.422   6.252  15.136 -0.9682  1.9601 -1.2405
11534TIP3    H256094   1.528   6.330  15.210 -0.5998  0.7484 -0.4598
11535TIP3   OH256095   1.260   6.562  10.178 -0.6462 -0.0409 -0.2578
11535TIP3    H156096   1.196   6.527  10.240 -0.4692 -0.0218 -0.0621
11535TIP3    H256097   1.272   6.654  10.205 -2.0739  0.5683 -1.5526
11536TIP3   OH256098   1.887   1.061  13.949  1.0922 -0.0124 -0.5306
11536TIP3    H156099   1.916   1.138  13.902 -2.2580  0.4246 -2.1240
11536TIP3    H256100   1.815   1.026  13.898 -1.5650 -0.6538  3.2252
11537TIP3   OH256101   0.076   4.929  12.936 -0.4469  0.0851  0.1649
11537TIP3    H156102   0.146   4.994  12.928  0.5012 -1.0383 -1.0729
11537TIP3    H256103   0.047   4.914  12.846 -1.3475 -0.4654  0.5375
11538TIP3   OH256104   4.494   5.049  14.825  0.5917 -0.0873 -0.0402
11538TIP3    H156105   4.440   4.971  14.835  0.6332  0.0413  1.3290
11538TIP3    H256106   4.527   5.044  14.735  1.0144 -1.9130  0.1711
11539TIP3   OH256107   1.868   1.253  12.836  0.0630 -0.5336 -0.4814
11539TIP3    H156108   1.906   1.337  12.860 -0.2718 -0.6196  0.3715
11539TIP3    H256109   1.905   1.234  12.750 -0.9995  1.1862 -1.3891
11540TIP3   OH256110   0.441   3.648  11.746 -0.6668 -0.9278 -0.1176
11540TIP3    H156111   0.482   3.609  11.823 -0.4610 -0.6122 -0.0661
11540TIP3    H256112   0.429   3.575  11.685  0.3344 -0.9544 -0.2933
11541TIP3   OH256113   2.237   5.210  13.407  0.0192 -0.0412  0.2123
11541TIP3    H156114   2.257   5.201  13.501 -0.4248  1.5920  0.4979
11541TIP3    H256115   2.275   5.133  13.367  2.5467  0.4967  1.3791
11542TIP3   OH256116   0.060   0.784   1.934  0.3810 -0.0318 -0.3182
11542TIP3    H156117   0.017   0.842   1.996  0.3960  1.1229 -1.3565
11542TIP3    H256118   0.103   0.718   1.988  0.4050  0.9553  0.8941
11543TIP3   OH256119   5.858   3.347  17.236  0.4635  0.5211 -0.2898
11543TIP3    H156120   5.815   3.374  17.318  0.3087 -0.0633 -0.1685
11543TIP3    H256121   5.950   3.370  17.248  0.6343 -0.4632  0.4726
11544TIP3   OH256122   0.491   5.267   3.672  1.2609  0.8390 -0.1647
11544TIP3    H156123   0.457   5.254   3.584  0.9765 -1.1152  0.1795
11544TIP3    H256124   0.586   5.267   3.662  1.2505 -0.2243 -0.4093
11545TIP3   OH256125   0.913   1.304  12.234 -0.1757  0.5682  0.4362
11545TIP3    H156126   0.937   1.340  12.148  0.5501 -0.4180  0.1974
11545TIP3    H256127   0.995   1.306  12.284 -0.5979  1.1538  1.1241
11546TIP3   OH256128   6.581   0.170  12.917  0.4763 -0.3255 -0.3455
11546TIP3    H156129   6.585   0.203  12.827 -1.0319 -0.4404 -0.4843
11546TIP3    H256130   6.575   0.249  12.971  0.7750 -0.2731 -0.3882
11547TIP3   OH256131   3.721   1.340  15.019  0.6860 -0.5617 -0.1177
11547TIP3    H156132   3.689   1.414  14.968 -0.3339 -1.2396 -0.4902
11547TIP3    H256133   3.776   1.290  14.958  0.0272 -0.9967 -0.3680
11548TIP3   OH256134   4.617   5.243   4.487 -0.1064  0.1164 -0.4171
11548TIP3    H156135   4.676   5.168   4.494 -0.6224 -0.2919 -0.3354
11548TIP3    H256136   4.657   5.311   4.540  0.3485 -0.1206 -0.4574
11549TIP3   OH256137   6.788   2.803   6.105 -0.8704  0.6463  0.3936
11549TIP3    H156138   6.803   2.723   6.156 -1.5169  1.3256  1.6832
11549TIP3    H256139   6.848   2.867   6.144  1.3935  0.2407 -2.1330
11550TIP3   OH256140   4.387   4.119   4.341  0.2464 -0.6565 -0.2185
11550TIP3    H156141   4.400   4.137   4.434  0.3002 -1.3679 -0.0856
11550TIP3    H256142   4.448   4.178   4.296  1.1199 -1.1935  0.2457
11551TIP3   OH256143   1.659   3.744   2.382  0.0530 -0.4418 -0.4683
11551TIP3    H156144   1.621   3.785   2.304 -0.7878 -0.7348 -0.2223
11551TIP3    H256145   1.754   3.760   2.374  0.2028 -1.9967 -2.4503
11552TIP3   OH256146   5.791   5.443  14.556  0.3834 -0.5421 -0.4412
11552TIP3    H156147   5.825   5.513  14.611 -0.6471 -1.1971  1.1121
11552TIP3    H256148   5.787   5.367  14.614 -0.6405 -1.2875 -1.4515
11553TIP3   OH256149   3.983   5.438   4.313  0.0753 -0.2951  0.2232
11553TIP3    H156150   4.041   5.401   4.245  0.5730 -0.4918  0.7465
11553TIP3    H256151   4.043   5.477   4.377 -0.3198 -1.3091  1.2434
11554TIP3   OH256152   3.461   3.785  11.896  0.0256  0.2782 -0.1933
11554TIP3    H156153   3.467   3.742  11.981  0.4301 -1.8289 -1.2386
11554TIP3    H256154   3.531   3.851  11.897  0.4354 -0.1561  0.8624
11555TIP3   OH256155   3.068   6.704  11.131 -0.6066  0.2767  0.8370
11555TIP3    H156156   3.038   6.725  11.220  1.2451  0.3243  1.4786
11555TIP3    H256157   3.162   6.718  11.133 -0.5018  0.1467 -1.1198
11556TIP3   OH256158   3.375   2.182   1.277  0.1190 -0.3287  0.3713
11556TIP3    H156159   3.335   2.176   1.363  0.0858 -1.0622  0.3058
11556TIP3    H256160   3.301   2.198   1.218  0.1137 -0.0852  0.4396
11557TIP3   OH256161   2.264   3.405  13.203 -0.2233 -0.0412 -0.6705
11557TIP3    H156162   2.352   3.391  13.238 -0.2955 -0.7688 -0.7739
11557TIP3    H256163   2.217   3.451  13.273 -0.2574 -1.1512  0.0620
11558TIP3   OH256164   1.103   3.433   4.984  0.2612  0.0437 -0.0657
11558TIP3    H156165   1.117   3.476   5.068 -0.0237  1.8046 -0.8507
11558TIP3    H256166   1.135   3.344   4.996  0.9390  0.4776  1.6615
11559TIP3   OH256167   6.027   2.201  12.141  0.4445  0.0521  0.1229
11559TIP3    H156168   6.113   2.240  12.155 -0.3556  1.8457  0.2837
11559TIP3    H256169   5.990   2.194  12.229 -0.7639  2.2601 -0.1289
11560TIP3   OH256170   0.315   6.380   0.602 -0.2425 -0.0373  0.4210
11560TIP3    H156171   0.305   6.347   0.513  0.6769  0.3379  0.1648
11560TIP3    H256172   0.226   6.390   0.634 -0.5715 -1.4953  0.0425
11561TIP3   OH256173   5.135   0.513  14.391 -0.8452  0.1164  0.6661
11561TIP3    H156174   5.156   0.482  14.479 -0.0389 -0.6054  0.2322
11561TIP3    H256175   5.220   0.538  14.354 -0.9514 -1.1393 -0.4874
11562TIP3   OH256176   3.099   2.153  12.373 -0.1874  0.0333  0.4103
11562TIP3    H156177   3.016   2.134  12.330  0.4456  0.2943 -0.9538
11562TIP3    H256178   3.125   2.238  12.339  1.2789 -0.6304 -0.2035
11563TIP3   OH256179   2.136   0.751  14.778 -0.4487 -0.2081 -0.2908
11563TIP3    H156180   2.134   0.695  14.701 -0.1677  0.2504 -0.6400
11563TIP3    H256181   2.220   0.732  14.820 -0.4157 -0.1544 -0.3319
11564TIP3   OH256182   0.359   6.775  14.505 -0.3387  0.3365  0.0656
11564TIP3    H156183   0.396   6.729  14.429 -2.3429 -0.4809 -0.4741
11564TIP3    H256184   0.303   6.710  14.547  0.4251  0.9021  2.0566
11565TIP3   OH256185   0.679   3.557  12.527 -0.1631 -0.0497  0.0803
11565TIP3    H156186   0.747   3.555  12.460 -0.4343  1.1610 -0.2642
11565TIP3    H256187   0.706   3.627  12.586 -1.5569  1.1076 -0.5917
11566TIP3   OH256188   3.676   1.631  11.412  0.8402  0.2271  0.6994
11566TIP3    H156189   3.656   1.663  11.500  0.2094  0.8883  0.3204
11566TIP3    H256190   3.714   1.705  11.366  0.7629  0.0147  0.2807
11567TIP3   OH256191   6.332   5.021  12.403 -0.3533  0.0534 -0.1886
11567TIP3    H156192   6.326   4.980  12.317  1.5332 -0.2869 -0.1882
11567TIP3    H256193   6.411   4.985  12.441 -0.8851  0.6027  1.5012
11568TIP3   OH256194   4.879   1.023  17.098 -0.1590  0.1945 -0.2483
11568TIP3    H156195   4.792   1.063  17.097 -0.2343  0.0903  0.7060
11568TIP3    H256196   4.881   0.971  17.179  1.0660  0.8480  0.1806
11569TIP3   OH256197   6.351   4.118   5.110  0.6462  0.1707 -0.5278
11569TIP3    H156198   6.337   4.210   5.132  2.4947  0.2120  0.7053
11569TIP3    H256199   6.446   4.109   5.102  0.6494 -1.9401  0.9728
11570TIP3   OH256200   0.210   3.629  12.630 -0.4126  0.0932  0.1905
11570TIP3    H156201   0.293   3.611  12.674 -1.1061 -1.1322  1.0766
11570TIP3    H256202   0.193   3.721  12.648  2.0654  1.2190 -2.3670
11571TIP3   OH256203   3.382   4.234  15.307  0.1053  0.1451  0.2295
11571TIP3    H156204   3.337   4.232  15.222  0.2407 -1.5257  0.1662
11571TIP3    H256205   3.322   4.280  15.365 -0.5021  0.2753 -0.4807
11572TIP3   OH256206   5.406   4.382  16.083  0.1637  0.4888 -0.0705
11572TIP3    H156207   5.491   4.339  16.092  0.6557  1.4896  0.1305
11572TIP3    H256208   5.346   4.328  16.134  1.2020  1.2506  2.0494
11573TIP3   OH256209   3.082   3.938  15.952  0.0947 -0.2052  0.2115
11573TIP3    H156210   3.024   3.959  15.879  0.6922  2.1768  0.3382
11573TIP3    H256211   3.026   3.941  16.029 -0.3226 -1.6513 -0.0191
11574TIP3   OH256212   3.133   4.744   5.893 -0.6928  0.2144 -0.9211
11574TIP3    H156213   3.201   4.751   5.961 -1.3786 -0.9763 -0.0765
11574TIP3    H256214   3.181   4.746   5.810  0.3670 -0.4409 -0.3439
11575TIP3   OH256215   6.495   0.838  16.886  0.1796 -0.1340 -0.1766
11575TIP3    H156216   6.554   0.862  16.958  0.2105  0.6460 -0.4568
11575TIP3    H256217   6.409   0.870  16.913  0.5034  1.7780 -1.2465
11576TIP3   OH256218   6.104   6.652  14.665 -0.1240 -0.3912 -0.2909
11576TIP3    H156219   6.150   6.736  14.670 -0.5545 -0.1141 -0.8647
11576TIP3    H256220   6.052   6.648  14.745 -1.2095  0.5576 -0.9262
11577TIP3   OH256221   2.195   6.658  13.856  0.1569 -0.0707 -0.2976
11577TIP3    H156222   2.191   6.604  13.777 -0.7112  0.6288 -0.7514
11577TIP3    H256223   2.104   6.667  13.883  0.2240  1.5090 -0.4849
11578TIP3   OH256224   4.170   4.467  15.207 -0.1432  0.2539 -0.5839
11578TIP3    H156225   4.152   4.438  15.117 -0.3566  0.1474 -0.5090
11578TIP3    H256226   4.239   4.409  15.238  1.4646  1.6360 -1.4048
11579TIP3   OH256227   4.881   6.145   0.455  0.2498  0.5502  0.5206
11579TIP3    H156228   4.859   6.123   0.545 -1.6617 -1.7352 -0.3948
11579TIP3    H256229   4.908   6.237   0.458  0.2069  0.5457  3.3758
11580TIP3   OH256230   1.602   5.156  11.683 -0.0283  0.1845  0.6037
11580TIP3    H156231   1.559   5.072  11.697  0.1420 -0.3901 -1.8122
11580TIP3    H256232   1.690   5.133  11.653 -0.1489  1.1970 -0.6019
11581TIP3   OH256233   1.416   3.881  14.254 -0.5343 -0.1429 -0.5411
11581TIP3    H156234   1.509   3.904  14.248 -0.9629  2.1778  0.7671
11581TIP3    H256235   1.403   3.860  14.347 -1.4809  0.3014 -0.5738
11582TIP3   OH256236   0.534   3.431  15.327 -0.7775 -0.4769 -0.5781
11582TIP3    H156237   0.473   3.475  15.267 -0.3849 -1.0644 -1.4333
11582TIP3    H256238   0.604   3.495  15.341 -1.4907  0.1379  0.2772
11583TIP3   OH256239   5.165   2.346  15.535 -0.0827 -0.1118  0.4089
11583TIP3    H156240   5.087   2.344  15.590 -0.3223  1.5842  0.1955
11583TIP3    H256241   5.238   2.343  15.597 -0.3001 -1.1032  0.6393
11584TIP3   OH256242   6.758   1.765   5.296  0.1254  0.7263  0.2183
11584TIP3    H156243   6.700   1.820   5.244 -0.2662 -0.1683 -0.3083
11584TIP3    H256244   6.719   1.765   5.383  0.1401  1.2871  0.2308
11585TIP3   OH256245   1.601   0.444  14.794  0.6220  0.1051 -0.0664
11585TIP3    H156246   1.676   0.474  14.845 -0.0138 -1.3840  1.8788
11585TIP3    H256247   1.622   0.352  14.773 -1.3356 -0.9222  2.0575
11586TIP3   OH256248   5.288   0.722  12.769  0.2511 -0.1263  0.1692
11586TIP3    H156249   5.207   0.671  12.773 -0.0228  0.3259  0.3837
11586TIP3    H256250   5.286   0.762  12.682  0.1761 -0.0011  0.2293
11587TIP3   OH256251   4.391   2.567  14.417 -0.1688 -0.2321  0.3386
11587TIP3    H156252   4.303   2.602  14.403 -0.2288 -0.6269 -0.2891
11587TIP3    H256253   4.407   2.511  14.342 -0.0143 -1.4339  1.2439
11588TIP3   OH256254   0.266   2.087  16.211  0.1073  0.0415  0.3927
11588TIP3    H156255   0.181   2.129  16.214  1.1471  2.4831 -1.1607
11588TIP3    H256256   0.249   2.001  16.173 -1.6132  0.6147 -0.2153
11589TIP3   OH256257   1.735   5.441   2.473 -0.1423 -0.4216  0.1842
11589TIP3    H156258   1.643   5.419   2.457 -0.5264  1.0969  0.1596
11589TIP3    H256259   1.781   5.405   2.397 -1.0427  0.7904 -0.9702
11590TIP3   OH256260   5.074   3.931  16.661  0.4226  0.0065  0.4265
11590TIP3    H156261   4.992   3.907  16.704 -0.1391 -1.6584 -1.4100
11590TIP3    H256262   5.103   4.011  16.706 -2.9429  1.5165  0.2019
11591TIP3   OH256263   3.971   2.287   3.201  0.3063  0.2742  0.2744
11591TIP3    H156264   3.886   2.313   3.236 -0.2904  0.7035 -1.4126
11591TIP3    H256265   3.951   2.243   3.119  1.4953 -3.0225  1.5820
11592TIP3   OH256266   6.521   1.535   3.450 -0.0248 -0.1802  0.5801
11592TIP3    H156267   6.447   1.497   3.496 -1.9202  0.0922 -2.0151
11592TIP3    H256268   6.494   1.536   3.358  3.6411 -1.0584 -0.6804
11593TIP3   OH256269   1.628   1.416  11.187 -0.1575  0.3011 -0.1127
11593TIP3    H156270   1.617   1.510  11.177  0.4641  0.3843 -0.0417
11593TIP3    H256271   1.557   1.377  11.137  0.0391  0.7924 -0.7751
11594TIP3   OH256272   0.552   4.705  13.476 -0.1511 -0.7547 -0.5207
11594TIP3    H156273   0.629   4.718  13.421 -0.0638 -3.5196 -1.2138
11594TIP3    H256274   0.585   4.660  13.554 -0.5917  1.2114  0.8537
11595TIP3   OH256275   4.191   2.934   5.166 -0.4933  0.4929 -0.4079
11595TIP3    H156276   4.277   2.901   5.140  0.0330  1.3754  0.1440
11595TIP3    H256277   4.188   3.023   5.131 -0.8206  0.7765  0.3168
11596TIP3   OH256278   1.960   0.688  12.143  0.0283 -0.3971 -0.3050
11596TIP3    H156279   1.917   0.603  12.146 -0.1635 -0.2865  0.0582
11596TIP3    H256280   2.025   0.685  12.213 -0.2239 -0.1111 -0.0573
11597TIP3   OH256281   1.488   2.445  14.523 -0.2162  0.8187  0.4151
11597TIP3    H156282   1.543   2.407  14.454  0.2602 -1.0846  1.7584
11597TIP3    H256283   1.405   2.399  14.516 -0.7596  1.8270  0.0616
11598TIP3   OH256284   0.928   5.798   4.237  0.5776 -0.2471 -0.2143
11598TIP3    H156285   1.023   5.807   4.228  0.7515 -0.0478  1.5341
11598TIP3    H256286   0.892   5.874   4.191  1.1584 -1.0133 -2.0452
11599TIP3   OH256287   5.967   4.753  15.571  0.8329 -0.6589  0.1535
11599TIP3    H156288   6.026   4.824  15.600  0.1677  0.0727 -0.2550
11599TIP3    H256289   5.880   4.784  15.594  0.5146 -1.2695 -0.2118
11600TIP3   OH256290   2.475   5.866  11.825 -0.2990 -0.2479  0.0584
11600TIP3    H156291   2.444   5.937  11.769  0.2873 -0.1969 -0.2069
11600TIP3    H256292   2.411   5.862  11.896 -0.8819 -0.1105 -0.4478
11601TIP3   OH256293   2.759   3.555   4.290  0.2224 -0.1732 -0.1455
11601TIP3    H156294   2.776   3.649   4.296 -1.2524  0.0977  0.1624
11601TIP3    H256295   2.810   3.526   4.215  1.1409  0.7677  0.1019
11602TIP3   OH256296   3.431   5.723  11.985 -0.5328 -0.1182  0.0025
11602TIP3    H156297   3.494   5.779  12.031  0.7392 -0.1602 -1.5627
11602TIP3    H256298   3.418   5.768  11.901 -0.8397 -1.2777 -0.5813
11603TIP3   OH256299   2.920   5.738   5.776  0.1963  0.6761 -0.1997
11603TIP3    H156300   2.847   5.708   5.832 -0.1057 -0.4155 -1.1312
11603TIP3    H256301   2.884   5.813   5.729 -1.3445 -1.3986 -2.6269
11604TIP3   OH256302   4.263   2.154   0.865  0.2133  0.5294  0.4230
11604TIP3    H156303   4.288   2.165   0.957  1.6696  1.2050 -0.0369
11604TIP3    H256304   4.343   2.128   0.820 -0.0201  2.0783 -0.9823
11605TIP3   OH256305   1.030   3.086  14.495  0.1541  0.1828 -0.1957
11605TIP3    H156306   0.989   3.004  14.469 -1.2235  0.8777 -0.3184
11605TIP3    H256307   1.038   3.136  14.413  1.9368 -0.1993 -0.2970
11606TIP3   OH256308   5.243   3.783  11.760  0.2757 -0.4859  0.0249
11606TIP3    H156309   5.252   3.872  11.726  1.5677 -0.9189 -0.8477
11606TIP3    H256310   5.153   3.777  11.790 -0.0843  0.8330 -0.7347
11607TIP3   OH256311   3.943   6.517  16.190  0.2051 -0.2096  0.0555
11607TIP3    H156312   3.854   6.537  16.163  0.4726  0.2095 -0.5402
11607TIP3    H256313   3.998   6.577  16.138  0.7492  0.4995  1.3974
11608TIP3   OH256314   1.980   3.764   6.079 -0.0499 -0.6435 -0.4199
11608TIP3    H156315   1.888   3.775   6.057  0.4077 -1.3827 -2.9908
11608TIP3    H256316   2.014   3.702   6.014  2.0468 -1.1814  1.0604
11609TIP3   OH256317   6.599   0.338  13.860 -0.1596 -0.4140 -0.3219
11609TIP3    H156318   6.617   0.357  13.952 -2.2155 -0.1623  0.0856
11609TIP3    H256319   6.569   0.247  13.859 -0.0657 -0.4418 -0.7384
11610TIP3   OH256320   3.689   2.386   4.889 -0.0699 -0.1575 -0.8134
11610TIP3    H156321   3.760   2.333   4.926  0.0602  0.1184 -0.6624
11610TIP3    H256322   3.659   2.439   4.963 -1.1321 -1.0076 -0.6018
11611TIP3   OH256323   1.686   4.880  13.385 -0.3423  0.0280  0.0619
11611TIP3    H156324   1.661   4.877  13.293 -0.7431  0.2525  0.1579
11611TIP3    H256325   1.650   4.800  13.423  1.2145 -0.8877 -0.2996
11612TIP3   OH256326   4.445   1.151  16.766  0.4789  0.6357  0.1536
11612TIP3    H156327   4.523   1.202  16.788 -0.7778  2.7684 -0.0679
11612TIP3    H256328   4.438   1.087  16.837  2.0774  0.7938  0.4907
11613TIP3   OH256329   0.198   4.675   0.502  0.4226 -0.0990 -0.1658
11613TIP3    H156330   0.109   4.651   0.478  0.6488 -0.4678 -0.6422
11613TIP3    H256331   0.220   4.747   0.444  0.3474  0.1625  0.1257
11614TIP3   OH256332   3.310   0.632  16.090  0.3101 -0.2555  0.1551
11614TIP3    H156333   3.218   0.659  16.095  0.1090 -1.0701  1.1482
11614TIP3    H256334   3.357   0.712  16.069 -0.7729 -0.1016 -2.0624
11615TIP3   OH256335   2.163   4.630   4.238  0.1200  0.2029 -0.1292
11615TIP3    H156336   2.241   4.674   4.272 -0.0336 -1.1934  2.3104
11615TIP3    H256337   2.091   4.691   4.256  0.2671  0.1604  0.6474
11616TIP3   OH256338   4.299   0.373   5.371 -0.1778 -0.1130  0.3690
11616TIP3    H156339   4.331   0.355   5.282  2.4276  0.6965  1.0387
11616TIP3    H256340   4.261   0.290   5.400  0.1937 -0.7979 -1.0067
11617TIP3   OH256341   5.259   5.189  15.553 -0.4218 -0.7403 -0.1121
11617TIP3    H156342   5.335   5.150  15.595  1.3663  0.2521 -2.2166
11617TIP3    H256343   5.261   5.157  15.463 -4.4099 -3.2191  0.4340
11618TIP3   OH256344   6.408   4.064  12.306 -0.1124  0.1838  0.3524
11618TIP3    H156345   6.395   4.058  12.212 -0.5026 -1.0224  0.4661
11618TIP3    H256346   6.502   4.073  12.318 -0.0808  0.5569 -0.1498
11619TIP3   OH256347   0.072   6.562   0.533  0.0107 -0.5480 -0.2115
11619TIP3    H156348   0.118   6.636   0.571 -0.2700 -1.1766  1.4046
11619TIP3    H256349   0.101   6.561   0.441 -1.2537  2.5562 -0.7761
11620TIP3   OH256350   3.569   1.550   1.477 -0.2496 -0.4882  0.3265
11620TIP3    H156351   3.476   1.546   1.454 -0.8311  0.0620  2.3962
11620TIP3    H256352   3.600   1.631   1.436 -0.8179 -0.3865  0.0839
11621TIP3   OH256353   0.949   1.413   0.074 -0.4713 -1.0900  0.2258
11621TIP3    H156354   0.906   1.484   0.026 -0.1105 -1.1313 -0.1581
11621TIP3    H256355   0.877   1.368   0.119 -0.7147 -0.5510  0.3834
11622TIP3   OH256356   5.149   6.800   4.461  0.5775 -0.7264 -0.4415
11622TIP3    H156357   5.233   6.812   4.504  1.0559  0.5042 -1.6174
11622TIP3    H256358   5.141   6.706   4.447  0.5274 -1.1316  1.9905
11623TIP3   OH256359   1.694   4.544   5.526 -0.3760 -0.1729 -0.1085
11623TIP3    H156360   1.714   4.557   5.618  0.1537  0.6508 -0.3264
11623TIP3    H256361   1.624   4.479   5.525 -0.7159  0.1678  0.8910
11624TIP3   OH256362   0.618   3.760  11.490 -0.0026 -0.4874  0.0886
11624TIP3    H156363   0.527   3.739  11.467 -0.1836 -0.0389  0.3746
11624TIP3    H256364   0.653   3.802  11.411  0.0869 -1.0326 -0.1676
11625TIP3   OH256365   0.620   1.444  13.497 -0.0003  0.2746  0.3201
11625TIP3    H156366   0.554   1.484  13.440 -1.7740 -1.3749  1.1372
11625TIP3    H256367   0.671   1.519  13.530 -1.8458  1.6843  0.1513
11626TIP3   OH256368   5.505   3.226  16.444 -0.0427 -0.0264 -0.1648
11626TIP3    H156369   5.410   3.227  16.428  0.2882 -1.1617 -2.8198
11626TIP3    H256370   5.514   3.238  16.538 -2.7966  0.6474  0.0942
11627TIP3   OH256371   5.335   0.352   5.211 -0.1359  0.2425 -0.2936
11627TIP3    H156372   5.353   0.345   5.305 -0.0598  0.3727 -0.2987
11627TIP3    H256373   5.335   0.446   5.193 -1.1625  0.2703 -0.2230
11628TIP3   OH256374   6.124   2.673  16.391 -0.2993 -0.0877 -0.3960
11628TIP3    H156375   6.180   2.596  16.382 -0.2247  0.0129 -0.8320
11628TIP3    H256376   6.101   2.676  16.484  0.3627 -0.1712 -0.2231
11629TIP3   OH256377   0.622   1.158   5.295 -0.3621  0.4287 -0.3666
11629TIP3    H156378   0.527   1.170   5.302 -0.3748  0.5418 -0.7121
11629TIP3    H256379   0.650   1.226   5.234 -0.0312  0.5102 -0.1232
11630TIP3   OH256380   3.178   0.335  11.003  0.7146 -0.0714  0.6263
11630TIP3    H156381   3.238   0.344  10.929  0.9403  1.5481  0.9734
11630TIP3    H256382   3.150   0.243  11.000 -1.3446  0.4734 -3.0944
11631TIP3   OH256383   0.771   0.200   2.594 -0.1487 -0.0713  0.7120
11631TIP3    H156384   0.838   0.268   2.589 -0.4972  0.2727  0.5909
11631TIP3    H256385   0.705   0.236   2.654 -0.3423 -0.2992  0.6386
11632TIP3   OH256386   5.456   4.939   2.803 -0.1159  0.0137  0.1043
11632TIP3    H156387   5.465   5.016   2.859 -2.0095 -0.5933  1.3479
11632TIP3    H256388   5.396   4.967   2.733 -1.4116 -0.4706  0.9707
11633TIP3   OH256389   1.083   0.860   1.836  0.1923 -0.4277 -0.7774
11633TIP3    H156390   1.156   0.813   1.875 -0.8422 -1.4348 -0.0139
11633TIP3    H256391   1.078   0.942   1.886  0.8172 -0.3383 -0.8579
11634TIP3   OH256392   0.011   4.121   6.855 -0.4777 -0.0977 -0.3903
11634TIP3    H156393  -0.063   4.091   6.908  0.6442 -2.9521 -0.2939
11634TIP3    H256394   0.002   4.075   6.771  0.9801 -0.2418 -0.5030
11635TIP3   OH256395   6.049   3.492  14.356 -0.7061 -0.1464  0.8481
11635TIP3    H156396   6.100   3.559  14.311  2.2366 -1.8248  1.3703
11635TIP3    H256397   5.986   3.462  14.291 -0.8833  1.8631  0.0397
11636TIP3   OH256398   3.544   4.538  16.482  0.0951 -0.5057  0.5820
11636TIP3    H156399   3.512   4.545  16.392 -1.0162  0.0597  1.0024
11636TIP3    H256400   3.625   4.589  16.483 -1.2042  1.6719  0.4921
11637TIP3   OH256401   3.187   3.288   2.322 -0.2287  0.3781  0.1194
11637TIP3    H156402   3.199   3.240   2.404  1.2361 -0.8623 -0.7445
11637TIP3    H256403   3.097   3.318   2.324 -0.3032  0.1555  2.0572
11638TIP3   OH256404   1.756   4.068   6.202  0.5142  0.4732  0.5308
11638TIP3    H156405   1.715   3.993   6.245 -0.4549  0.3614 -0.5500
11638TIP3    H256406   1.849   4.058   6.221  0.5752 -1.6906 -0.5745
11639TIP3   OH256407   1.295   2.437  13.182 -0.1029  0.8264  0.0021
11639TIP3    H156408   1.361   2.503  13.160 -1.4307  1.5564 -2.1035
11639TIP3    H256409   1.231   2.484  13.236 -0.7024  1.1142 -0.9371
11640TIP3   OH256410   5.711   6.552  14.637 -0.2766 -0.0503  0.4712
11640TIP3    H156411   5.635   6.601  14.606  0.2519  1.3575  1.3271
11640TIP3    H256412   5.754   6.522  14.556  0.2513  2.2543 -0.1743
11641TIP3   OH256413   5.903   2.414   1.969  0.3679 -0.2174 -0.1537
11641TIP3    H156414   5.888   2.388   2.060 -0.0482  2.5478  0.6800
11641TIP3    H256415   5.863   2.345   1.917  1.6035 -2.4675  1.6896
11642TIP3   OH256416   3.592   4.894   0.197  0.0077 -0.8494  0.0895
11642TIP3    H156417   3.506   4.853   0.208  0.3823 -1.6146  0.2681
11642TIP3    H256418   3.580   4.984   0.226 -1.0529 -0.5737 -1.1329
11643TIP3   OH256419   3.478   3.162  12.651 -0.4485  0.0787  0.2582
11643TIP3    H156420   3.437   3.103  12.589 -2.0284  0.2454  1.1007
11643TIP3    H256421   3.429   3.151  12.732  0.6832  0.8733  1.0958
11644TIP3   OH256422   4.370   2.414   1.318 -0.6168 -0.1337 -0.3441
11644TIP3    H156423   4.292   2.470   1.320 -0.9210 -0.5381 -0.9431
11644TIP3    H256424   4.438   2.468   1.277 -0.3489  0.4952  0.8637
11645TIP3   OH256425   5.217   1.206  14.543 -0.2654 -0.5898 -0.4727
11645TIP3    H156426   5.158   1.144  14.500 -0.2610 -0.3640 -0.8114
11645TIP3    H256427   5.254   1.157  14.616 -0.6512 -0.8258 -0.4281
11646TIP3   OH256428   3.417   2.581  12.827  0.0134  0.2959 -0.4508
11646TIP3    H156429   3.426   2.648  12.895  1.0144 -0.6619  0.4042
11646TIP3    H256430   3.362   2.513  12.866 -0.4820  0.3263 -1.0796
11647TIP3   OH256431   3.013   1.646  13.897  0.0410  0.2386  0.3701
11647TIP3    H156432   2.950   1.574  13.902 -0.0669  0.4178  2.8936
11647TIP3    H256433   2.976   1.705  13.832 -0.2325 -1.5875 -1.2450
11648TIP3   OH256434   3.180   2.661  14.639 -0.2723 -0.0825 -0.2971
11648TIP3    H156435   3.086   2.665  14.623 -0.8944 -0.9121  2.5767
11648TIP3    H256436   3.211   2.589  14.584 -1.2198  0.4011 -1.5113
11649TIP3   OH256437   6.072   5.429   1.961  0.1252  0.1290  0.0817
11649TIP3    H156438   6.156   5.394   1.930  2.1434  3.2216  1.6059
11649TIP3    H256439   6.084   5.440   2.055 -3.1500 -1.9851  0.9225
11650TIP3   OH256440   3.022   1.355  11.553 -0.2137  0.2941  0.0668
11650TIP3    H156441   2.935   1.392  11.569  0.7593  2.8666 -0.0334
11650TIP3    H256442   3.078   1.399  11.616  1.1818 -0.6139 -0.5041
11651TIP3   OH256443   1.862   4.960   2.154  0.3061  0.2183 -0.1049
11651TIP3    H156444   1.780   4.914   2.170 -0.3428  1.6521  0.9910
11651TIP3    H256445   1.929   4.907   2.197 -0.1145 -0.6500 -0.4905
11652TIP3   OH256446   5.150   5.194   1.338  0.1785 -0.0555 -0.8956
11652TIP3    H156447   5.071   5.246   1.325 -1.2440 -2.1751 -1.2468
11652TIP3    H256448   5.213   5.231   1.277 -0.2672  2.1292 -0.1216
11653TIP3   OH256449   6.516   4.460  15.599  0.0660  0.2783  0.0619
11653TIP3    H156450   6.539   4.514  15.674  2.6920 -0.1364 -0.3619
11653TIP3    H256451   6.421   4.468  15.592  0.1683  3.6045  0.9290
11654TIP3   OH256452   1.532   5.512   0.393  0.5813 -0.2250  0.7035
11654TIP3    H156453   1.626   5.522   0.382  0.7596 -1.6696  0.6176
11654TIP3    H256454   1.496   5.600   0.382  1.7534  0.1000 -1.0206
11655TIP3   OH256455   4.126   3.718  10.894  0.4193 -0.3142 -0.2800
11655TIP3    H156456   4.080   3.739  10.813  2.1524 -1.6193 -1.6631
11655TIP3    H256457   4.099   3.629  10.915 -0.1732  0.0803  0.7404
11656TIP3   OH256458   2.632   5.080   3.226 -0.7549  0.4569  0.3646
11656TIP3    H156459   2.557   5.083   3.167 -0.5735 -2.1691 -0.1235
11656TIP3    H256460   2.656   5.171   3.240 -3.6189  1.3407  0.0209
11657TIP3   OH256461   6.519   4.033  11.851  0.2433 -0.7147 -0.1130
11657TIP3    H156462   6.541   4.048  11.943 -0.5204 -0.0260 -0.0287
11657TIP3    H256463   6.594   4.067  11.802 -0.8344  2.2908  0.1294
11658TIP3   OH256464   4.425   6.149   3.281  0.0906  0.0267 -0.0455
11658TIP3    H156465   4.332   6.162   3.262  0.4352  1.2159 -1.0059
11658TIP3    H256466   4.431   6.158   3.376 -0.6721  0.6500 -0.0409
11659TIP3   OH256467   0.023   2.628  16.007  0.1341  0.4438 -0.3976
11659TIP3    H156468   0.013   2.697  15.943 -0.6928 -0.0071 -0.7702
11659TIP3    H256469   0.118   2.616  16.015  0.2560  0.1443 -1.9386
11660TIP3   OH256470   5.106   4.202  17.125 -0.0547 -0.1075 -0.1443
11660TIP3    H156471   5.128   4.268  17.059  0.8209  1.2351  1.4218
11660TIP3    H256472   5.100   4.120  17.076  0.4874  0.8509 -1.8940
11661TIP3   OH256473   0.738   6.234  15.674  0.2794 -0.0795 -0.7455
11661TIP3    H156474   0.653   6.223  15.717 -0.2334 -0.6308 -1.8739
11661TIP3    H256475   0.717   6.261  15.585  1.3002 -0.1124 -1.0049
11662TIP3   OH256476   6.270   0.314  11.018 -0.0312 -0.1633  0.0071
11662TIP3    H156477   6.268   0.365  10.937 -0.3405 -1.6239 -0.9512
11662TIP3    H256478   6.354   0.336  11.058  0.3032  0.2967 -0.9100
11663TIP3   OH256479   4.771   0.180  12.323 -0.0600 -0.0373 -0.4401
11663TIP3    H156480   4.842   0.118  12.303  0.6358  0.3886  0.5831
11663TIP3    H256481   4.761   0.231  12.243  0.5440 -0.3488 -0.7269
11664TIP3   OH256482   3.057   2.580   2.012  0.3204  0.0306  0.5103
11664TIP3    H156483   2.979   2.619   1.974 -1.0368 -0.7940  2.2714
11664TIP3    H256484   3.125   2.645   2.000 -0.7193  0.9491 -0.7158
11665TIP3   OH256485   2.950   6.446  15.328  0.2731 -0.0940 -0.7967
11665TIP3    H156486   3.033   6.402  15.345  1.1335  1.8094  0.2281
11665TIP3    H256487   2.907   6.450  15.414 -0.1275  0.3411 -1.0111
11666TIP3   OH256488   5.123   2.985  15.067 -0.2101 -0.4094 -0.4290
11666TIP3    H156489   5.088   2.917  15.009 -0.9928  0.8437 -1.4799
11666TIP3    H256490   5.207   2.950  15.097  0.3576 -0.9903 -2.5411
11667TIP3   OH256491   3.143   2.402  17.157  0.2730  0.0391  0.0983
11667TIP3    H156492   3.165   2.388  17.065 -1.7271 -1.2602 -0.2554
11667TIP3    H256493   3.165   2.494  17.174 -0.0733  0.5393 -1.9268
11668TIP3   OH256494   5.929   3.494   0.718 -0.3864 -0.1463 -0.5627
11668TIP3    H156495   5.835   3.481   0.730 -0.0947 -0.8476  1.4180
11668TIP3    H256496   5.939   3.518   0.626 -2.4062 -0.8651 -1.0187
11669TIP3   OH256497   0.741   1.719  12.618 -0.3556 -0.0621  0.3324
11669TIP3    H156498   0.762   1.672  12.537 -0.0264  1.5215 -0.5442
11669TIP3    H256499   0.714   1.650  12.679  0.0170 -1.3677 -0.9077
11670TIP3   OH256500   4.158   1.130  15.037  0.1194 -0.2575 -0.3134
11670TIP3    H156501   4.249   1.118  15.062  0.5297  1.3505 -0.9058
11670TIP3    H256502   4.114   1.050  15.066  1.3339 -0.2423  1.7325
11671TIP3   OH256503   5.342   1.549   1.679  0.7681 -0.4959 -0.0745
11671TIP3    H156504   5.358   1.642   1.658  2.5383  0.0966  3.2003
11671TIP3    H256505   5.417   1.503   1.641  0.4761 -0.4651 -0.7115
11672TIP3   OH256506   0.212   6.130   1.186  0.3213  0.0072 -0.2228
11672TIP3    H156507   0.165   6.184   1.122 -0.9449 -0.5179  0.2319
11672TIP3    H256508   0.279   6.084   1.135 -0.0319  0.3373 -0.9950
11673TIP3   OH256509   2.563   2.465  13.724  0.0357  0.3279 -0.1280
11673TIP3    H156510   2.577   2.479  13.818  1.0428  1.1457 -0.3915
11673TIP3    H256511   2.650   2.449  13.688 -0.3598 -0.1280 -0.9064
11674TIP3   OH256512   3.329   2.176   3.147 -0.0763 -0.5701 -0.6188
11674TIP3    H156513   3.357   2.175   3.238 -1.2922  0.7642 -0.2001
11674TIP3    H256514   3.388   2.114   3.103  1.3560 -0.2740  0.8038
11675TIP3   OH256515   2.271   1.975   0.732 -0.0505 -0.1117 -0.1589
11675TIP3    H156516   2.270   1.966   0.827  1.3448 -1.4604 -0.2368
11675TIP3    H256517   2.263   2.069   0.717 -0.8925  0.0705  1.2527
11676TIP3   OH256518   1.809   6.792  14.627 -0.2800 -0.0649 -0.4031
11676TIP3    H156519   1.893   6.811  14.584 -0.1828 -1.3126 -0.7996
11676TIP3    H256520   1.767   6.728  14.570 -0.3898 -1.3561  1.0602
11677TIP3   OH256521   3.631   6.124   2.201  0.2078  0.0478  0.2182
11677TIP3    H156522   3.593   6.071   2.131  0.6738  0.8723 -0.6916
11677TIP3    H256523   3.696   6.066   2.242 -0.8846 -0.8315  0.7645
11678TIP3   OH256524   5.709   5.735  15.784 -0.3495 -0.0158 -0.4538
11678TIP3    H156525   5.676   5.825  15.783  0.7172  0.3879 -1.7693
11678TIP3    H256526   5.661   5.693  15.856  0.0613  1.9586  1.0822
11679TIP3   OH256527   4.549   0.283   2.348 -0.3326  0.2815 -0.3646
11679TIP3    H156528   4.587   0.195   2.349 -0.6555 -0.0227  3.9534
11679TIP3    H256529   4.462   0.272   2.386 -0.9548  2.3034 -1.0939
11680TIP3   OH256530   5.006   6.771   1.017  0.3771 -0.2969  0.4422
11680TIP3    H156531   4.986   6.683   1.049 -0.2887 -1.1678 -2.1156
11680TIP3    H256532   4.927   6.821   1.036 -0.6720 -1.2348 -1.1734
11681TIP3   OH256533   5.014   3.196  12.255 -0.3933 -0.1706 -0.8739
11681TIP3    H156534   4.984   3.127  12.195  0.4047 -0.2903 -1.1560
11681TIP3    H256535   5.074   3.248  12.202  0.1539 -0.1470 -0.2363
11682TIP3   OH256536   4.064   5.321  12.605  0.3188  0.2699  0.2449
11682TIP3    H156537   3.972   5.297  12.613  0.4872 -0.6275 -0.3214
11682TIP3    H256538   4.081   5.325  12.511  1.0405 -0.3728  0.3334
11683TIP3   OH256539   6.699   5.499  16.632  0.6733  0.4791 -0.8424
11683TIP3    H156540   6.692   5.404  16.642 -2.4452  0.7746  1.3065
11683TIP3    H256541   6.636   5.520  16.563  0.6745  1.0659 -0.6642
11684TIP3   OH256542   0.321   1.486   0.829  0.3494 -0.2345 -0.6691
11684TIP3    H156543   0.355   1.572   0.804  0.1641 -0.4448 -1.6810
11684TIP3    H256544   0.227   1.501   0.844  0.4850 -0.0814  0.0533
11685TIP3   OH256545   4.359   0.708   2.032  0.0025  0.5972 -0.2311
11685TIP3    H156546   4.350   0.756   2.114 -0.0147  0.8285 -0.3661
11685TIP3    H256547   4.329   0.619   2.052  0.3409  0.5562  0.1056
11686TIP3   OH256548   3.247   5.868  16.891 -0.0812  0.2575 -0.2128
11686TIP3    H156549   3.184   5.846  16.822 -1.1641  1.0227  0.5015
11686TIP3    H256550   3.197   5.861  16.972  0.3527  2.2495  0.2845
11687TIP3   OH256551   4.735   2.594  12.449  0.9380 -0.5742 -0.0911
11687TIP3    H156552   4.689   2.527  12.500 -1.4218  0.6780 -0.4427
11687TIP3    H256553   4.731   2.673  12.504  0.0319  0.3023 -1.3401
11688TIP3   OH256554   4.842   0.342   2.734 -0.4022 -0.0667 -0.4386
11688TIP3    H156555   4.842   0.252   2.767 -2.2695 -0.4807 -1.4101
11688TIP3    H256556   4.883   0.393   2.804  0.5116 -1.6293  0.2153
11689TIP3   OH256557   5.283   3.077   2.215  0.0865  0.1359 -0.2277
11689TIP3    H156558   5.219   3.148   2.217 -1.0445 -0.8654  0.3571
11689TIP3    H256559   5.368   3.121   2.229 -0.3111  1.6144 -2.0536
11690TIP3   OH256560   4.455   1.288   4.427 -0.1247  0.7532  0.5381
11690TIP3    H156561   4.454   1.373   4.471  0.5715  1.0252  0.0367
11690TIP3    H256562   4.479   1.307   4.337 -0.6107  0.0896  0.2557
11691TIP3   OH256563   0.245   5.652  17.275 -0.2593  0.2284 -0.1480
11691TIP3    H156564   0.222   5.709  17.202  2.7949 -0.3902 -1.7791
11691TIP3    H256565   0.339   5.666  17.288 -0.8051  1.2389  4.6159
11692TIP3   OH256566   3.275   3.732   2.835  0.4787  0.3484 -0.3317
11692TIP3    H156567   3.299   3.688   2.916 -0.4611  0.9928  0.3283
11692TIP3    H256568   3.355   3.733   2.783  0.5896 -1.8864 -0.2742
11693TIP3   OH256569   5.277   4.037  11.948  0.3549 -0.3377  0.0850
11693TIP3    H156570   5.368   4.061  11.932  0.6219 -0.7981  0.8442
11693TIP3    H256571   5.239   4.026  11.861  1.4762 -1.7962 -0.2473
11694TIP3   OH256572   0.712   2.051   5.376  0.3896 -0.2193  0.2157
11694TIP3    H156573   0.668   2.136   5.367  1.7327  0.3566 -1.6108
11694TIP3    H256574   0.646   1.993   5.414 -1.3929  0.9883 -0.8951
11695TIP3   OH256575   0.238   4.476  13.555 -0.0666 -0.6958 -0.3024
11695TIP3    H156576   0.311   4.477  13.617  0.3589 -1.9072 -0.7596
11695TIP3    H256577   0.160   4.464  13.609  0.2894 -1.6234  0.0288
11696TIP3   OH256578   5.869   6.754   0.627 -0.5221 -0.4898 -0.3762
11696TIP3    H156579   5.901   6.684   0.570 -1.2180 -1.9140  0.9230
11696TIP3    H256580   5.793   6.717   0.671  0.4353  0.2446  2.0580
11697TIP3   OH256581   1.250   1.547  11.116 -0.1074  0.2208 -0.1912
11697TIP3    H156582   1.261   1.619  11.178  0.1026 -0.7606  0.9546
11697TIP3    H256583   1.156   1.526  11.120 -0.0479 -0.0176  0.0118
11698TIP3   OH256584   1.425   0.052   1.346  0.1999  0.1480  0.6352
11698TIP3    H156585   1.352   0.112   1.359  1.3637  2.4604 -2.2203
11698TIP3    H256586   1.390  -0.017   1.289 -0.1577  0.3030  0.6649
11699TIP3   OH256587   3.476   3.791   4.249 -0.1390  0.0367  0.2652
11699TIP3    H156588   3.522   3.737   4.185  2.1519 -1.5402  3.0645
11699TIP3    H256589   3.490   3.881   4.218  0.4061 -0.6740 -1.6947
11700TIP3   OH256590   4.438   3.153   1.153  0.3557  0.4290 -0.8922
11700TIP3    H156591   4.458   3.206   1.231 -0.4602  2.8414 -2.2109
11700TIP3    H256592   4.409   3.069   1.189 -2.2204  2.1665  1.6211
11701TIP3   OH256593   6.821   3.344  12.061  0.1020  0.5889 -0.0436
11701TIP3    H156594   6.752   3.410  12.055  0.3156  0.7027 -2.7866
11701TIP3    H256595   6.902   3.392  12.047  0.4794  0.0654  0.3065
11702TIP3   OH256596   1.458   0.366  10.397  0.0440  0.0597 -0.1384
11702TIP3    H156597   1.546   0.387  10.366  0.2363 -0.9751 -0.3095
11702TIP3    H256598   1.443   0.276  10.368 -1.1283  0.2755 -0.2404
11703TIP3   OH256599   4.251   3.062  14.929  0.3311 -0.0387 -0.0580
11703TIP3    H156600   4.302   3.093  15.003 -1.1832  0.1865  0.9440
11703TIP3    H256601   4.187   3.001  14.967 -1.0315  0.7152 -1.0291
11704TIP3   OH256602   6.663   6.380   5.320 -0.4886 -0.4954  0.1949
11704TIP3    H156603   6.756   6.363   5.331 -0.5716 -0.0591  1.8033
11704TIP3    H256604   6.642   6.446   5.386 -1.4406  1.3029 -1.7508
11705TIP3   OH256605   3.954   3.006   3.781  0.3403  0.1853 -0.2319
11705TIP3    H156606   3.869   2.976   3.814  0.0026  2.1754  0.9036
11705TIP3    H256607   3.962   3.095   3.816  2.7744  0.1429 -0.5589
11706TIP3   OH256608   2.713   0.707   6.507 -0.4952  0.1385 -0.5041
11706TIP3    H156609   2.699   0.728   6.415  0.4517 -0.5061 -0.8070
11706TIP3    H256610   2.649   0.761   6.554 -0.0797  1.5139 -1.4348
11707TIP3   OH256611   0.978   4.976  11.253  0.0517  0.0415 -0.3599
11707TIP3    H156612   1.029   5.019  11.184  0.9179 -0.0392  0.2172
11707TIP3    H256613   0.918   5.044  11.284  1.2547  0.7754  0.3892
11708TIP3   OH256614   1.188   5.852  16.364  0.1476 -0.0319 -0.3258
11708TIP3    H156615   1.190   5.798  16.443  2.0216  1.8580  1.0111
11708TIP3    H256616   1.115   5.911  16.376 -0.5465 -0.7697 -0.7855
11709TIP3   OH256617   1.203   3.432  15.100  0.0567 -0.1515 -0.6331
11709TIP3    H156618   1.289   3.467  15.079 -1.0921  1.7531 -2.5280
11709TIP3    H256619   1.155   3.506  15.138 -0.5856 -1.3601  1.0790
11710TIP3   OH256620   1.705   4.502  13.415  0.2538  0.1448  0.0871
11710TIP3    H156621   1.734   4.429  13.360  0.5319 -0.5173  1.0811
11710TIP3    H256622   1.784   4.532  13.460  0.5463  2.3569 -1.7054
11711TIP3   OH256623   0.557   6.218  16.153  0.1558  0.3447  0.1608
11711TIP3    H156624   0.646   6.237  16.123 -0.9374  1.8224 -2.5155
11711TIP3    H256625   0.526   6.149  16.094  0.1293 -1.6915  2.4030
11712TIP3   OH256626   0.306   2.963   2.946 -0.4409 -0.1656  0.4441
11712TIP3    H156627   0.386   2.913   2.930 -0.1832  0.4647 -0.3179
11712TIP3    H256628   0.270   2.977   2.858 -0.1834  1.4954  0.5746
11713TIP3   OH256629   1.812   6.125   6.834 -0.4876  0.0258 -0.2705
11713TIP3    H156630   1.877   6.191   6.811 -2.0436  1.1164 -1.7611
11713TIP3    H256631   1.831   6.103   6.925  1.8326  0.4232 -0.6031
11714TIP3   OH256632   0.443   6.589   0.738  0.7151 -0.1952  0.1665
11714TIP3    H156633   0.437   6.517   0.675 -2.0502 -1.3459  1.5405
11714TIP3    H256634   0.376   6.651   0.710  0.4679 -0.0170  1.0939
11715TIP3   OH256635   6.707   6.595  13.474  0.3625 -0.1729  0.1924
11715TIP3    H156636   6.754   6.673  13.441 -1.5860  0.1237 -2.1491
11715TIP3    H256637   6.773   6.526  13.474  1.4226  0.7883 -0.6808
11716TIP3   OH256638   2.405   6.594   1.862 -0.2118 -0.1866 -0.2139
11716TIP3    H156639   2.321   6.639   1.859 -0.3911 -0.4408  0.7208
11716TIP3    H256640   2.383   6.504   1.886  0.4988  0.3261  2.7575
11717TIP3   OH256641   4.434   3.724   0.926 -0.1028  0.3843  0.8468
11717TIP3    H156642   4.418   3.635   0.894  2.9851  0.1373 -0.3785
11717TIP3    H256643   4.498   3.713   0.997 -1.1174  1.5270  1.9867
11718TIP3   OH256644   1.612   3.314   1.008  0.6336 -0.0501 -0.2685
11718TIP3    H156645   1.537   3.272   0.967  1.3355  0.2730 -1.9697
11718TIP3    H256646   1.640   3.381   0.945  1.6461  0.6143  0.8374
11719TIP3   OH256647   5.358   5.127  16.561 -0.1223  0.5699  0.2716
11719TIP3    H156648   5.374   5.050  16.507 -0.5769  0.0199  0.9131
11719TIP3    H256649   5.399   5.199  16.513 -0.5841  0.1059 -0.8480
11720TIP3   OH256650   0.412   0.949   5.291  0.1546 -0.1185 -0.2164
11720TIP3    H156651   0.415   0.994   5.206  4.0236 -0.3503 -0.3950
11720TIP3    H256652   0.380   0.861   5.271  0.4091  0.0255 -1.3384
11721TIP3   OH256653   0.592   4.403  15.812 -0.3803 -0.2611 -0.0446
11721TIP3    H156654   0.655   4.456  15.861 -0.8172 -0.0213  0.2637
11721TIP3    H256655   0.536   4.364  15.879 -0.6632 -0.3432 -0.3252
11722TIP3   OH256656   5.863   4.139  11.387  0.0478  0.8291  0.8677
11722TIP3    H156657   5.953   4.111  11.401 -0.1464 -0.6446 -0.5480
11722TIP3    H256658   5.835   4.173  11.472  1.1557 -0.9470  2.0131
11723TIP3   OH256659   5.423   3.813  14.804  0.5045 -0.5400 -0.2123
11723TIP3    H156660   5.501   3.820  14.859 -0.0359  1.9915  0.3513
11723TIP3    H256661   5.445   3.863  14.725 -0.3752 -0.1851 -0.2395
11724TIP3   OH256662   1.682   5.578   2.022 -0.0770  0.2139 -0.3010
11724TIP3    H156663   1.611   5.628   1.983 -1.4446 -0.5685  1.0716
11724TIP3    H256664   1.735   5.644   2.068 -0.9291  0.6190  0.1226
11725TIP3   OH256665   1.958   5.285   5.594 -0.2487  0.0660 -0.1765
11725TIP3    H156666   1.874   5.305   5.634 -0.1394  0.1773 -0.0017
11725TIP3    H256667   1.936   5.238   5.514 -0.4467 -0.9020  0.4319
11726TIP3   OH256668   2.129   6.724   0.500 -0.2140  0.0454 -0.5157
11726TIP3    H156669   2.174   6.805   0.474 -0.8848  0.7549  0.4277
11726TIP3    H256670   2.084   6.748   0.581  0.1896 -1.5037  0.1903
11727TIP3   OH256671   0.621   5.873   5.814  0.3986  0.0985 -0.7684
11727TIP3    H156672   0.627   5.846   5.722  1.2317 -0.7007 -0.4996
11727TIP3    H256673   0.538   5.837   5.844 -0.6351  1.7073 -1.6111
11728TIP3   OH256674   0.378   6.523   1.540  0.4233  0.1361  0.1073
11728TIP3    H156675   0.468   6.496   1.555 -0.2066 -2.3105 -0.0815
11728TIP3    H256676   0.338   6.449   1.494 -1.1732  1.9945 -1.6703
11729TIP3   OH256677   6.096   2.902   6.101 -0.2912 -0.0438  0.0929
11729TIP3    H156678   6.048   2.847   6.163  1.5184 -1.6796  0.1228
11729TIP3    H256679   6.173   2.932   6.149 -0.0962  0.6745 -0.6395
11730TIP3   OH256680   0.114   5.757   4.542 -0.1949 -0.5307 -0.1416
11730TIP3    H156681   0.067   5.708   4.474  1.4311 -0.6993 -1.1769
11730TIP3    H256682   0.068   5.841   4.546 -1.9589 -1.4754  0.4574
11731TIP3   OH256683   4.247   4.546  11.842 -0.2224 -0.5198 -0.2134
11731TIP3    H156684   4.197   4.472  11.809 -0.2014 -0.7117  0.1752
11731TIP3    H256685   4.284   4.515  11.925 -0.6543  0.0958  0.2205
11732TIP3   OH256686   2.255   2.659   2.874 -0.0077  0.2107  0.7021
11732TIP3    H156687   2.181   2.600   2.886  0.1127 -0.1675 -0.3412
11732TIP3    H256688   2.250   2.685   2.782  0.0902  1.6369  1.0848
11733TIP3   OH256689   5.356   6.076   1.894  0.0881  0.0962  0.4620
11733TIP3    H156690   5.397   6.096   1.979 -0.4529  1.6320  0.4029
11733TIP3    H256691   5.424   6.092   1.830 -0.1880  1.3943  0.4573
11734TIP3   OH256692   5.449   1.784  13.006 -0.1990  0.3879 -0.3552
11734TIP3    H156693   5.380   1.736  12.959  0.1501  0.0069 -0.4891
11734TIP3    H256694   5.506   1.715  13.041  1.0055  0.7063 -1.5965
11735TIP3   OH256695   0.786   3.688  11.219  0.0829  0.1458  0.1758
11735TIP3    H156696   0.711   3.643  11.181  0.3916  1.0422 -1.5733
11735TIP3    H256697   0.840   3.617  11.255 -0.8488 -0.6183  0.1362
11736TIP3   OH256698   3.216   6.424   4.711 -0.2296 -0.5661 -0.2347
11736TIP3    H156699   3.288   6.381   4.756 -0.7794  0.0440  1.3010
11736TIP3    H256700   3.219   6.514   4.743 -1.7547 -0.5747 -0.0111
11737TIP3   OH256701   3.246   1.626   3.893 -0.4902  0.1484  0.4477
11737TIP3    H156702   3.338   1.601   3.901 -0.0974  1.2862 -0.2297
11737TIP3    H256703   3.198   1.543   3.885  0.6799 -0.4155 -1.1276
11738TIP3   OH256704   1.334   6.744   3.461 -0.3908 -0.0337 -0.4626
11738TIP3    H156705   1.267   6.805   3.491 -0.1432  0.0540 -0.0792
11738TIP3    H256706   1.293   6.696   3.390 -1.3799 -0.9739  0.6935
11739TIP3   OH256707   2.690   3.902   3.803  0.4533  0.6723 -0.1192
11739TIP3    H156708   2.652   3.971   3.749 -1.2286 -0.2520 -0.1686
11739TIP3    H256709   2.764   3.870   3.752 -0.1776  0.8549 -1.1679
11740TIP3   OH256710   0.424   1.618  10.874  0.0198 -0.5904 -0.2225
11740TIP3    H156711   0.446   1.711  10.871  0.2281 -0.6485 -0.5425
11740TIP3    H256712   0.381   1.601  10.790 -2.6237 -0.1452  0.9107
11741TIP3   OH256713   4.458   5.282  16.055  0.0087 -0.1605 -0.4880
11741TIP3    H156714   4.527   5.346  16.075 -1.0769  0.3553  1.9470
11741TIP3    H256715   4.474   5.210  16.117 -3.0669  1.1413  2.0894
11742TIP3   OH256716   6.702   1.523   2.434  0.3925  0.3480  0.2043
11742TIP3    H156717   6.692   1.438   2.392 -1.1929 -0.2427  1.6235
11742TIP3    H256718   6.796   1.540   2.433  0.8911 -2.0028  0.9557
11743TIP3   OH256719   1.372   4.770   1.384  0.2605 -0.5859  0.2488
11743TIP3    H156720   1.367   4.817   1.301 -0.5243 -0.0395  0.5913
11743TIP3    H256721   1.423   4.827   1.441 -0.1823 -0.4209  0.4849
11744TIP3   OH256722   5.584   0.127  10.661 -1.0201 -0.1389 -0.4454
11744TIP3    H156723   5.508   0.175  10.629 -1.6601  0.0948  1.3397
11744TIP3    H256724   5.659   0.171  10.622 -1.7576  0.0787 -1.6499
11745TIP3   OH256725   2.747   1.544   4.932  0.1391 -0.3723 -0.0029
11745TIP3    H156726   2.751   1.638   4.914  0.8796  0.0047  1.8705
11745TIP3    H256727   2.736   1.503   4.846 -0.6431  1.4400 -0.8184
11746TIP3   OH256728   4.568   0.043   3.088  0.4324  0.3865 -0.0469
11746TIP3    H156729   4.475   0.037   3.066 -0.0904  3.0619  0.9107
11746TIP3    H256730   4.606   0.096   3.018  0.9472  0.4200  0.2531
11747TIP3   OH256731   4.882   2.271  16.369 -0.3081  0.0748  0.0409
11747TIP3    H156732   4.814   2.208  16.392 -1.2550  0.2691 -1.9963
11747TIP3    H256733   4.912   2.244  16.282  0.3987  1.4958 -0.1881
11748TIP3   OH256734   4.710   0.661   2.264  0.4901  0.8771 -0.4369
11748TIP3    H156735   4.665   0.619   2.191  0.4483 -0.0434  0.1028
11748TIP3    H256736   4.644   0.664   2.334  0.6654  1.3460 -0.2841
11749TIP3   OH256737   3.635   5.911   4.408 -0.2054 -0.5541 -0.5987
11749TIP3    H156738   3.582   5.903   4.329 -0.2978 -0.4061 -0.5534
11749TIP3    H256739   3.644   5.822   4.440  0.9312 -0.7807 -1.4872
11750TIP3   OH256740   1.090   5.868  11.051  0.0201  0.3528 -0.0438
11750TIP3    H156741   1.106   5.793  11.108 -2.9372  0.2064  0.7391
11750TIP3    H256742   1.080   5.942  11.110 -0.9987  0.5912 -0.4950
11751TIP3   OH256743   6.565   6.736  16.658 -0.2674  0.2800 -0.4418
11751TIP3    H156744   6.503   6.727  16.586  0.2222  3.2391 -1.3869
11751TIP3    H256745   6.562   6.829  16.681  1.5577 -0.0649  1.5581
11752TIP3   OH256746   2.931   0.640   6.657 -0.0912 -0.3445 -0.5694
11752TIP3    H156747   3.002   0.603   6.605  0.1709  1.3618 -1.5018
11752TIP3    H256748   2.863   0.660   6.593 -0.4092  0.3313 -0.0320
11753TIP3   OH256749   0.374   3.373  10.510  0.2112 -0.5111  0.1165
11753TIP3    H156750   0.458   3.400  10.547  1.9751 -2.8641 -1.8343
11753TIP3    H256751   0.387   3.377  10.415 -1.3792 -2.2386 -0.2293
11754TIP3   OH256752   6.481   6.025  13.621  0.0690 -0.0808  0.4490
11754TIP3    H156753   6.398   6.067  13.644  0.1037 -0.1354  0.6736
11754TIP3    H256754   6.532   6.094  13.578  0.6337  0.4962  1.9623
11755TIP3   OH256755   5.182   1.717  14.421 -0.0522 -0.1622 -0.1179
11755TIP3    H156756   5.257   1.657  14.417 -0.9819 -1.3305 -4.0532
11755TIP3    H256757   5.115   1.668  14.468  0.3459 -0.7551 -0.1590
11756TIP3   OH256758   3.385   1.548   2.812 -0.4700 -0.0431 -0.1248
11756TIP3    H156759   3.466   1.575   2.769  0.4318 -1.3818  0.6658
11756TIP3    H256760   3.371   1.613   2.881  0.2338 -0.1015  0.0793
11757TIP3   OH256761   1.351   5.277  13.058 -0.1031  0.4714 -0.3118
11757TIP3    H156762   1.414   5.348  13.044 -0.4597  0.8940  0.2185
11757TIP3    H256763   1.283   5.316  13.112 -1.2556  0.2615 -1.5590
11758TIP3   OH256764   6.356   6.503   2.315 -0.3603  0.1007  0.2958
11758TIP3    H156765   6.404   6.421   2.327 -0.3282 -0.2273 -1.6749
11758TIP3    H256766   6.318   6.522   2.401  1.6027 -0.6915  1.3981
11759TIP3   OH256767   2.932   0.564   3.240 -0.5792  0.5200  0.4835
11759TIP3    H156768   2.934   0.557   3.335 -0.4841 -1.7561  0.3568
11759TIP3    H256769   2.984   0.490   3.209 -1.9359  0.2762 -1.3718
11760TIP3   OH256770   4.551   1.634   5.864  0.0671 -0.1252  0.1306
11760TIP3    H156771   4.596   1.713   5.893 -1.6200  1.1000 -0.4058
11760TIP3    H256772   4.582   1.565   5.923  0.5904  1.2189  1.4767
11761TIP3   OH256773   1.164   5.330   2.451 -0.1821 -0.5262 -0.2120
11761TIP3    H156774   1.189   5.256   2.395 -0.2150 -1.8244  1.4228
11761TIP3    H256775   1.090   5.297   2.502  1.0475 -0.0941  1.9737
11762TIP3   OH256776   4.276   1.084  14.526 -0.2122  0.3144  0.0933
11762TIP3    H156777   4.217   1.132  14.468  1.5163  0.2871 -1.8268
11762TIP3    H256778   4.303   1.008  14.474  2.2320  0.8357  0.4918
11763TIP3   OH256779   6.449   4.723   3.838  0.1208  0.2621  0.5842
11763TIP3    H156780   6.455   4.813   3.868 -2.7084  0.5374  0.5935
11763TIP3    H256781   6.526   4.680   3.875  1.7594  2.7161  0.2401
11764TIP3   OH256782   3.063   3.914   5.958 -0.2782 -0.6021  0.4032
11764TIP3    H156783   3.022   3.935   5.873  0.3512  0.0117  0.2496
11764TIP3    H256784   3.032   3.826   5.977 -0.0777 -0.9296 -0.6887
11765TIP3   OH256785   1.236   0.335   1.761 -0.0365  0.0857  0.3682
11765TIP3    H156786   1.283   0.399   1.814 -1.1280  1.0294  0.2177
11765TIP3    H256787   1.147   0.337   1.794 -0.2622 -0.8139 -0.1485
11766TIP3   OH256788   3.316   2.100   4.413  0.1331 -0.1703 -0.2042
11766TIP3    H156789   3.383   2.031   4.410  1.1778  0.7844  0.1893
11766TIP3    H256790   3.362   2.175   4.452 -1.4390  0.2364  0.9273
11767TIP3   OH256791   1.686   1.783   6.260  0.5588 -0.5977  0.3082
11767TIP3    H156792   1.710   1.743   6.343  1.3763 -0.5750  0.0929
11767TIP3    H256793   1.759   1.841   6.240  0.5755 -0.9363 -0.6471
11768TIP3   OH256794   5.180   6.240  14.558  0.9544  0.0864  0.0793
11768TIP3    H156795   5.179   6.195  14.643  0.9614  0.1950  0.1366
11768TIP3    H256796   5.223   6.178  14.499 -0.2040 -0.5382 -0.1394
11769TIP3   OH256797   6.679   5.618  15.419  0.9358  0.0739  0.1267
11769TIP3    H156798   6.657   5.528  15.394 -0.4503 -0.8664  3.9851
11769TIP3    H256799   6.775   5.621  15.414  0.9761 -1.3379 -0.7834
11770TIP3   OH256800   4.153   6.637  12.029  0.3885 -0.0528 -0.7007
11770TIP3    H156801   4.226   6.642  12.090  0.6643 -0.7981 -0.9521
11770TIP3    H256802   4.098   6.565  12.061 -0.2546  0.5191 -0.4975
11771TIP3   OH256803   5.015   5.342   1.015 -0.6019 -0.0930 -0.0762
11771TIP3    H156804   4.931   5.319   0.975  0.5609 -2.4749 -1.3252
11771TIP3    H256805   5.010   5.307   1.104 -1.2272  0.5835  0.1690
11772TIP3   OH256806   3.758   3.186   1.700  0.1944  0.0843 -0.0874
11772TIP3    H156807   3.812   3.158   1.626 -0.5142  0.4655 -0.7603
11772TIP3    H256808   3.675   3.141   1.687  0.1820 -0.1326  0.6875
11773TIP3   OH256809   1.657   6.322  10.779  0.0348 -0.2790  0.1016
11773TIP3    H156810   1.668   6.318  10.874 -0.4850  0.2535  0.1891
11773TIP3    H256811   1.661   6.230  10.751 -0.5308 -0.5059  0.7217
11774TIP3   OH256812   2.518   0.237   1.402  0.1896 -0.0891  0.1767
11774TIP3    H156813   2.495   0.275   1.317 -0.2872  0.4573  0.5446
11774TIP3    H256814   2.449   0.171   1.418 -1.1273  1.4575  1.2186
11775TIP3   OH256815   2.204   6.250   2.318  0.3483 -0.3166 -0.3857
11775TIP3    H156816   2.276   6.195   2.350  2.3766  2.1876 -0.2865
11775TIP3    H256817   2.248   6.316   2.263 -1.7868  1.7281  0.2070
11776TIP3   OH256818   3.820   5.922   4.690  0.1187 -0.5805 -0.5051
11776TIP3    H156819   3.877   5.848   4.667  0.4488 -0.1617 -1.0547
11776TIP3    H256820   3.880   5.990   4.721 -0.2832 -0.9573  1.1619
11777TIP3   OH256821   0.414   6.390   0.952  0.3864  0.5827 -0.1183
11777TIP3    H156822   0.416   6.465   0.893  0.3548 -1.3023 -2.7507
11777TIP3    H256823   0.506   6.366   0.963  0.3564 -1.7390 -3.3702
11778TIP3   OH256824   2.798   6.729   4.739 -0.0341 -0.4532 -0.4065
11778TIP3    H156825   2.790   6.646   4.786 -1.9698  0.4345  0.9920
11778TIP3    H256826   2.871   6.774   4.782  0.0394 -0.8268 -0.1347
11779TIP3   OH256827   0.489   1.219   2.620 -0.0956  0.2933  0.0616
11779TIP3    H156828   0.407   1.172   2.605  0.1918 -1.5694  3.3830
11779TIP3    H256829   0.462   1.305   2.655 -0.6261  0.1994 -0.1172
11780TIP3   OH256830   2.454   6.478   4.911 -0.8015  0.4591  0.4061
11780TIP3    H156831   2.486   6.556   4.867  0.8655 -0.5531 -0.2867
11780TIP3    H256832   2.361   6.494   4.924 -0.1879  3.3358  2.0265
11781TIP3   OH256833   5.755   1.988  10.489 -0.1676 -0.0035 -0.4662
11781TIP3    H156834   5.698   1.942  10.428 -1.9118 -0.4567  1.3891
11781TIP3    H256835   5.749   2.080  10.463  0.1161 -0.3169 -1.7069
11782TIP3   OH256836   1.335   0.908   0.066  0.3883  0.4700 -0.7967
11782TIP3    H156837   1.266   0.933   0.004  0.0430  0.0510 -0.5837
11782TIP3    H256838   1.413   0.950   0.032 -0.1050  1.5332 -0.6643
11783TIP3   OH256839   1.967   3.478   0.014 -0.4467  0.0627 -0.2194
11783TIP3    H156840   2.005   3.566   0.013 -1.5368  0.5663  0.3899
11783TIP3    H256841   2.031   3.424   0.060 -0.2760  0.8002  0.4324
11784TIP3   OH256842   0.094   3.562   5.372  0.4966 -0.4317  0.4146
11784TIP3    H156843   0.159   3.506   5.329  0.2802  0.1759 -0.7572
11784TIP3    H256844   0.111   3.649   5.337 -0.4821 -0.1370  0.6437
11785TIP3   OH256845   1.237   0.328  12.654 -0.2353  0.1950 -0.2373
11785TIP3    H156846   1.220   0.411  12.698 -2.1891  0.1922 -0.8864
11785TIP3    H256847   1.332   0.325  12.644  0.1432  0.9816  2.3810
11786TIP3   OH256848   6.218   5.946   3.870 -0.2295 -0.1361 -0.0441
11786TIP3    H156849   6.288   5.916   3.927  0.6272  0.0338 -0.9689
11786TIP3    H256850   6.237   6.038   3.855 -0.2813 -0.2391 -0.7983
11787TIP3   OH256851   3.522   0.856  14.800  0.7329  0.0125  0.0788
11787TIP3    H156852   3.569   0.855  14.884 -0.1389  1.2402  0.5961
11787TIP3    H256853   3.516   0.948  14.777 -0.7939 -0.1699 -0.3358
11788TIP3   OH256854   6.389   2.762   4.048  0.2083 -0.3391  0.0405
11788TIP3    H156855   6.294   2.760   4.036  0.0904  0.1285  0.8747
11788TIP3    H256856   6.424   2.749   3.959 -0.6238 -0.9167 -0.2125
11789TIP3   OH256857   5.828   1.474   0.734 -0.9933 -0.3360  0.0080
11789TIP3    H156858   5.802   1.557   0.693  0.8438  0.0581 -0.4274
11789TIP3    H256859   5.923   1.481   0.745 -0.8774 -2.1640  0.4687
11790TIP3   OH256860   3.488   2.350  14.465 -0.2378  0.7740  0.3152
11790TIP3    H156861   3.558   2.374  14.404  0.2183 -0.4105  0.3475
11790TIP3    H256862   3.531   2.297  14.531 -1.0663  0.5363  0.6744
11791TIP3   OH256863   3.365   1.994  12.690  0.3466 -0.2947 -0.2662
11791TIP3    H156864   3.295   1.993  12.756 -1.1751 -2.0866 -1.7819
11791TIP3    H256865   3.379   2.087  12.671 -1.0649  0.1404  0.6468
11792TIP3   OH256866   4.845   6.402  11.119  0.7438 -0.2821  0.4498
11792TIP3    H156867   4.825   6.388  11.027 -0.4950 -1.1450  0.8191
11792TIP3    H256868   4.936   6.432  11.120  0.4392  0.7837 -1.1048
11793TIP3   OH256869   0.851   5.269  11.080 -0.1430  0.2664  0.1772
11793TIP3    H156870   0.770   5.217  11.078  0.8707 -1.3903 -0.1606
11793TIP3    H256871   0.893   5.250  10.996 -0.2100  2.5062 -0.4052
11794TIP3   OH256872   2.580   2.209  14.191 -0.6686 -0.2072 -0.2106
11794TIP3    H156873   2.667   2.170  14.206 -0.4123  0.9189  1.5765
11794TIP3    H256874   2.529   2.183  14.268 -2.1684 -1.3829 -1.5351
11795TIP3   OH256875   1.426   4.118  16.801 -0.2132 -0.5272 -0.0732
11795TIP3    H156876   1.514   4.085  16.783 -0.2468 -1.4422  1.2991
11795TIP3    H256877   1.369   4.065  16.746 -0.1268 -1.7619  0.9972
11796TIP3   OH256878   4.847   1.587   2.512  0.3123  0.0506  0.1254
11796TIP3    H156879   4.760   1.620   2.535  1.0083  0.3462  2.6464
11796TIP3    H256880   4.900   1.666   2.499  0.9361 -0.0336  1.8609
11797TIP3   OH256881   6.669   6.769   4.135  0.1714 -0.3596 -0.4550
11797TIP3    H156882   6.696   6.802   4.220  1.1626 -2.1704 -0.0301
11797TIP3    H256883   6.657   6.675   4.148 -1.5413 -0.4015 -1.8638
11798TIP3   OH256884   2.876   3.406  14.617 -0.4990  0.8656  0.2120
11798TIP3    H156885   2.924   3.368  14.543 -0.7831  1.7570 -0.4491
11798TIP3    H256886   2.876   3.337  14.683 -0.2929  0.0245 -0.6412
11799TIP3   OH256887   4.842   0.779  12.273 -0.5928  0.1175 -0.6943
11799TIP3    H156888   4.809   0.692  12.296 -0.4582 -0.3998 -2.3203
11799TIP3    H256889   4.937   0.773  12.285 -0.7982  0.8921  1.7446
11800TIP3   OH256890   1.864   5.578  13.439 -0.6517  0.8124 -0.2002
11800TIP3    H156891   1.950   5.609  13.411 -0.1448 -0.8665 -0.6670
11800TIP3    H256892   1.832   5.525  13.366 -0.2610 -1.8817  1.4228
11801TIP3   OH256893   1.515   6.425   2.567  0.2241 -0.3766 -0.8559
11801TIP3    H156894   1.575   6.361   2.529  0.3557  0.9270 -3.0728
11801TIP3    H256895   1.570   6.501   2.588 -0.5020  0.7049 -2.6052
11802TIP3   OH256896   2.134   1.263  10.930 -0.7710  0.0050 -0.4035
11802TIP3    H156897   2.108   1.173  10.910  0.4869 -0.4425 -0.1220
11802TIP3    H256898   2.172   1.259  11.018  1.5709  0.2991 -1.3287
11803TIP3   OH256899   3.228   5.032   3.420  0.1474 -0.1570 -0.3425
11803TIP3    H156900   3.300   5.054   3.360  0.9635 -0.6165  0.4468
11803TIP3    H256901   3.271   4.994   3.496 -0.7565  1.6916  1.1550
11804TIP3   OH256902   2.729   1.507   4.657  0.2532  0.1803 -0.2411
11804TIP3    H156903   2.780   1.427   4.641  0.6069  0.1271  1.0344
11804TIP3    H256904   2.638   1.479   4.647  0.4071 -0.1794 -0.6560
11805TIP3   OH256905   4.450   5.341  14.870  0.0815  0.1359  0.2578
11805TIP3    H156906   4.432   5.248  14.863  0.3472  0.1850 -3.2517
11805TIP3    H256907   4.539   5.351  14.837 -0.6911  1.7485 -1.6130
11806TIP3   OH256908   4.938   3.591  12.562 -0.0833 -0.3385  0.1120
11806TIP3    H156909   4.998   3.659  12.593 -1.8466  0.8100  1.1764
11806TIP3    H256910   4.943   3.522  12.629 -0.8231  0.3105  0.8653
11807TIP3   OH256911   3.165   3.915   2.664  0.1539  0.5977 -0.0275
11807TIP3    H156912   3.193   3.883   2.578 -1.0027  0.1303 -0.2571
11807TIP3    H256913   3.170   3.838   2.721 -4.5459 -0.7797 -1.0301
11808TIP3   OH256914   2.452   0.442   3.305  0.9121 -0.0270 -0.1515
11808TIP3    H156915   2.379   0.391   3.270 -0.4282  0.2976  2.0076
11808TIP3    H256916   2.526   0.420   3.248 -0.5629 -1.3087 -1.6665
11809TIP3   OH256917   3.601   5.757   5.451 -0.1863  0.3958 -0.0870
11809TIP3    H156918   3.536   5.691   5.427 -0.1071  0.5635 -0.8007
11809TIP3    H256919   3.561   5.841   5.426 -0.4500  0.6701  1.1657
11810TIP3   OH256920   4.364   0.313   3.217 -0.0860  0.3865  0.1125
11810TIP3    H156921   4.317   0.396   3.209  1.4175  1.4850  1.7762
11810TIP3    H256922   4.381   0.286   3.127 -0.9642  1.6526 -0.4726
11811TIP3   OH256923   4.965   3.759   3.424 -0.0722  0.2692 -0.7758
11811TIP3    H156924   4.997   3.729   3.339  2.8310 -1.7957  0.8494
11811TIP3    H256925   5.036   3.813   3.459 -0.9500  0.6000  0.6010
11812TIP3   OH256926   3.828   4.169   5.402 -0.2044 -0.6473 -0.2889
11812TIP3    H156927   3.871   4.137   5.322 -0.2101  0.2312 -0.6507
11812TIP3    H256928   3.819   4.091   5.457  0.1433 -1.1927 -0.9892
11813TIP3   OH256929   0.871   1.213   0.998 -0.0260  0.1876 -0.1399
11813TIP3    H156930   0.941   1.275   1.016 -0.2140  0.5933 -0.7503
11813TIP3    H256931   0.916   1.134   0.967  0.1852  0.2679 -0.0368
11814TIP3   OH256932   3.805   0.737  15.615  0.0625  0.5078 -0.8946
11814TIP3    H156933   3.830   0.656  15.572 -0.9175  0.5358 -1.5539
11814TIP3    H256934   3.711   0.745  15.599 -0.0872  1.1754  0.1723
11815TIP3   OH256935   0.681   0.058  11.570 -0.4872 -0.1447  0.1147
11815TIP3    H156936   0.694  -0.025  11.616 -1.7084  0.1525  1.0401
11815TIP3    H256937   0.756   0.064  11.510  0.9277 -0.7378  1.7530
11816TIP3   OH256938   0.152   0.531   4.171 -0.1679 -0.3368 -0.1104
11816TIP3    H156939   0.220   0.534   4.103  0.9896 -1.6971  0.8996
11816TIP3    H256940   0.173   0.605   4.228 -0.1197 -0.1871 -0.3179
11817TIP3   OH256941   4.456   6.119  15.428 -0.6614  0.5059 -0.2948
11817TIP3    H156942   4.542   6.144  15.462 -1.4729  1.3165  1.3001
11817TIP3    H256943   4.474   6.079  15.344  1.2507  0.9472 -0.1427
11818TIP3   OH256944   6.258   1.822  16.483 -0.7941 -0.1474  0.6836
11818TIP3    H156945   6.253   1.756  16.414 -2.2135 -0.2089  0.8223
11818TIP3    H256946   6.213   1.899  16.447  0.8927  0.7974  0.4995
11819TIP3   OH256947   3.108   2.256   0.714  0.0670 -0.1987  0.3370
11819TIP3    H156948   3.125   2.167   0.745 -0.3717  0.1366  1.6017
11819TIP3    H256949   3.074   2.302   0.791 -0.0717  0.9620 -0.3964
11820TIP3   OH256950   5.598   6.758  10.837 -0.1151  0.1755  0.0311
11820TIP3    H156951   5.602   6.827  10.772 -0.2888 -1.3454 -1.6591
11820TIP3    H256952   5.689   6.731  10.850 -0.2604 -1.3974 -1.7544
11821TIP3   OH256953   6.381   1.465  16.370  0.2315  0.9167  0.2930
11821TIP3    H156954   6.329   1.504  16.300  0.2591 -1.5310 -1.2428
11821TIP3    H256955   6.317   1.432  16.432  0.0808  0.8299  0.0934
11822TIP3   OH256956   1.503   0.594  11.262  0.0681 -0.8994 -0.2950
11822TIP3    H156957   1.597   0.578  11.268  0.0670 -0.5274  0.7662
11822TIP3    H256958   1.463   0.517  11.303 -0.0845 -0.8635 -0.3765
11823TIP3   OH256959   4.519   4.010  15.023 -0.2463 -0.0715  0.2664
11823TIP3    H156960   4.520   4.074  14.951 -0.1255  0.7612  0.9902
11823TIP3    H256961   4.453   3.946  14.997 -1.7164  1.3375  0.3585
11824TIP3   OH256962   6.062   3.645  16.393  0.4251 -0.2692 -0.0324
11824TIP3    H156963   6.153   3.619  16.376  0.5501 -0.1673  0.4441
11824TIP3    H256964   6.065   3.741  16.397  0.1250 -0.2207 -0.9270
11825TIP3   OH256965   2.795   0.475   0.838 -0.0640  0.3944 -0.2412
11825TIP3    H156966   2.832   0.563   0.828 -1.8694  1.0931 -1.1803
11825TIP3    H256967   2.773   0.469   0.931  0.0259  0.9632 -0.1790
11826TIP3   OH256968   0.663   5.205  16.924  0.3583 -0.3060 -0.4279
11826TIP3    H156969   0.709   5.237  16.847  0.8045  0.8535  0.3028
11826TIP3    H256970   0.574   5.238  16.914  0.4711  0.0236 -0.3396
11827TIP3   OH256971   5.488   4.722  15.367  0.2334 -0.0827  0.0004
11827TIP3    H156972   5.500   4.651  15.430  3.2232 -0.7100 -1.1230
11827TIP3    H256973   5.407   4.765  15.395 -0.1433 -2.1315  2.4475
11828TIP3   OH256974   4.131   0.435   0.379 -0.2086 -0.4652  0.1496
11828TIP3    H156975   4.095   0.476   0.457  0.6553  0.0368  0.3104
11828TIP3    H256976   4.196   0.499   0.347  1.6334 -1.9360  0.7505
11829TIP3   OH256977   2.602   2.772  12.690 -0.3240  0.0135  0.0916
11829TIP3    H156978   2.671   2.789  12.626  0.6725 -2.4962  0.3797
11829TIP3    H256979   2.649   2.749  12.771 -1.5215  0.0813  0.8270
11830TIP3   OH256980   4.822   3.581   5.083  0.2195  0.3851 -0.1799
11830TIP3    H156981   4.868   3.653   5.127 -1.4899  1.4334 -0.0018
11830TIP3    H256982   4.769   3.540   5.152  0.1455 -0.1711 -0.5616
11831TIP3   OH256983   3.227   2.857  16.124 -0.3374 -0.1435 -0.5865
11831TIP3    H156984   3.218   2.952  16.113 -0.5951  0.0581  1.0515
11831TIP3    H256985   3.305   2.847  16.178 -0.8835 -0.7759  0.1069
11832TIP3   OH256986   4.547   2.796   4.219  0.3247 -0.4534 -0.1031
11832TIP3    H156987   4.531   2.888   4.240 -2.1373 -0.4449 -1.6286
11832TIP3    H256988   4.621   2.798   4.159 -0.5149  0.7190 -1.1677
11833TIP3   OH256989   5.685   2.906  11.465  0.2795  0.1282  0.9309
11833TIP3    H156990   5.749   2.895  11.395 -0.2079  1.5395  0.2224
11833TIP3    H256991   5.616   2.843  11.445  0.5285 -0.0431  0.5996
11834TIP3   OH256992   5.432   0.773  15.022 -0.1414  0.5402 -0.1893
11834TIP3    H156993   5.468   0.818  14.945  0.4968  1.5526  0.6841
11834TIP3    H256994   5.342   0.804  15.028 -1.0222 -1.3780 -1.8972
11835TIP3   OH256995   0.586   1.987  17.190  0.4828  0.3495  0.6331
11835TIP3    H156996   0.673   1.986  17.149 -0.6190 -1.0206 -1.9361
11835TIP3    H256997   0.567   1.894  17.208 -1.0892  0.4117 -0.4637
11836TIP3   OH256998   2.408   0.852  15.342 -0.0870  0.0443  0.3730
11836TIP3    H156999   2.329   0.819  15.385  1.3370  0.8534  3.9142
11836TIP3    H257000   2.476   0.789  15.364  0.6186  0.1154 -1.4102
11837TIP3   OH257001   1.644   3.729   3.787 -0.2509 -0.2584 -0.3626
11837TIP3    H157002   1.675   3.712   3.697  0.6445 -4.5224  0.5057
11837TIP3    H257003   1.573   3.666   3.799 -0.9010  0.8107  1.6998
11838TIP3   OH257004   1.022   5.923   2.295 -0.3582 -0.9133 -0.9966
11838TIP3    H157005   1.016   5.877   2.379 -0.4494  0.0165 -0.4839
11838TIP3    H257006   0.932   5.948   2.275 -0.0187  1.3065  0.0345
11839TIP3   OH257007   3.371   4.456  13.357 -0.2380 -0.2490  1.1747
11839TIP3    H157008   3.399   4.541  13.322 -1.1369  0.1414  1.3729
11839TIP3    H257009   3.452   4.408  13.371  0.2821  0.5801  1.0617
11840TIP3   OH257010   3.918   5.799  13.148  1.1037  0.1794 -0.4676
11840TIP3    H157011   3.830   5.818  13.181  2.0312  1.7185  1.3157
11840TIP3    H257012   3.916   5.706  13.125 -1.0476  0.2515 -0.7588
11841TIP3   OH257013   2.507   4.102   1.635 -0.1745 -0.3658 -0.6151
11841TIP3    H157014   2.556   4.056   1.567 -0.5844  0.5686 -1.5740
11841TIP3    H257015   2.421   4.059   1.635  0.0957 -0.9161 -0.0913
11842TIP3   OH257016   3.067   4.715   0.356 -0.4390  0.0566 -1.0506
11842TIP3    H157017   3.039   4.734   0.446 -2.2046 -0.5316 -1.4456
11842TIP3    H257018   3.159   4.692   0.365 -0.0726  1.8067  0.3571
11843TIP3   OH257019   5.214   1.602   0.549 -0.3690 -0.7405  0.0972
11843TIP3    H157020   5.305   1.623   0.569 -1.0257  1.7078  0.8492
11843TIP3    H257021   5.194   1.654   0.472 -1.3543 -0.6253  0.4217
11844TIP3   OH257022   0.982   1.391   4.222 -0.3094  0.5644  0.0142
11844TIP3    H157023   1.074   1.411   4.207  0.2755 -0.8440  1.4018
11844TIP3    H257024   0.962   1.320   4.161 -0.2707  0.4056  0.1844
11845TIP3   OH257025   1.680   2.029   0.724  0.5836  0.1070  0.7749
11845TIP3    H157026   1.712   2.114   0.693  1.1310 -0.0241  0.9734
11845TIP3    H257027   1.759   1.981   0.748  0.2885 -0.5193  0.5153
11846TIP3   OH257028   0.793   4.632   5.382 -0.8941 -0.2629  0.0983
11846TIP3    H157029   0.778   4.716   5.424  4.8123  0.0234  2.4597
11846TIP3    H257030   0.851   4.651   5.309  1.2727 -2.0390  1.2208
11847TIP3   OH257031   0.404   2.292  12.598 -0.3874  0.1702 -0.2142
11847TIP3    H157032   0.352   2.367  12.570  0.2562  0.7980  0.2613
11847TIP3    H257033   0.493   2.313  12.572  0.0225  0.2086  1.1594
11848TIP3   OH257034   2.919   4.065  11.767  0.0306  0.4488 -0.3269
11848TIP3    H157035   2.979   4.042  11.696 -1.1990  2.4107 -2.1497
11848TIP3    H257036   2.864   3.988  11.779  0.7365 -0.1733 -1.0204
11849TIP3   OH257037   6.212   0.260   3.267 -0.1046 -0.5473 -0.1361
11849TIP3    H157038   6.284   0.212   3.309  1.3768  0.6819 -1.1380
11849TIP3    H257039   6.138   0.247   3.325  1.8470  1.1804  3.0441
11850TIP3   OH257040   0.423   2.199   3.513 -0.2935  0.3048 -0.3813
11850TIP3    H157041   0.458   2.117   3.545  0.2873  0.7987  0.2827
11850TIP3    H257042   0.374   2.176   3.434  0.6771 -0.5374 -0.7537
11851TIP3   OH257043   1.368   6.083   5.640 -0.0229  0.6166 -0.2794
11851TIP3    H157044   1.312   6.009   5.663 -0.1630  0.8017 -0.0150
11851TIP3    H257045   1.408   6.110   5.723 -0.1072  0.9465 -0.3438
11852TIP3   OH257046   0.546   1.889  12.651  0.4106 -0.3176  0.4324
11852TIP3    H157047   0.479   1.833  12.689  0.1151  0.0440  0.4480
11852TIP3    H257048   0.622   1.831  12.640  0.3732 -0.5269  1.1974
11853TIP3   OH257049   6.471   2.762   3.778  0.3417  0.1655  0.6317
11853TIP3    H157050   6.566   2.766   3.765  0.5111 -2.9851  0.1206
11853TIP3    H257051   6.434   2.795   3.696  1.0491 -0.3157  0.1087
11854TIP3   OH257052   1.619   3.283   2.719  0.2755 -0.5575  0.1503
11854TIP3    H157053   1.617   3.209   2.658 -0.4051 -1.3718  1.1279
11854TIP3    H257054   1.583   3.248   2.800 -1.0112  1.1082  0.3512
11855TIP3   OH257055   1.912   5.566   2.258 -0.1376 -0.1742 -0.6103
11855TIP3    H157056   1.964   5.646   2.264  1.3655 -1.1502 -0.2318
11855TIP3    H257057   1.976   5.496   2.243 -1.1661 -1.6097  1.2370
11856TIP3   OH257058   0.522   2.949  10.958  0.6535  0.3583  0.0194
11856TIP3    H157059   0.429   2.967  10.971  0.5208  0.2529 -0.7200
11856TIP3    H257060   0.531   2.938  10.863  1.4613  0.5861  0.0652
11857TIP3   OH257061   3.170   6.136  11.296 -0.0297 -0.0188  0.0824
11857TIP3    H157062   3.163   6.165  11.205 -0.2076 -0.3326 -0.0056
11857TIP3    H257063   3.093   6.174  11.338 -0.4741 -0.6626 -0.1205
11858TIP3   OH257064   2.542   5.496   1.320  0.6884  0.3057 -0.3898
11858TIP3    H157065   2.471   5.509   1.258  0.5012 -1.5126 -0.6268
11858TIP3    H257066   2.532   5.567   1.384  0.1878  1.5272 -1.7692
11859TIP3   OH257067   6.267   3.591   2.207 -0.5952 -0.2376  0.4743
11859TIP3    H157068   6.197   3.620   2.147 -0.6290 -0.3920  0.4394
11859TIP3    H257069   6.288   3.502   2.178 -0.7590 -0.3921  0.8277
11860TIP3   OH257070   3.596   4.068   4.250  0.5831  0.5652 -0.1807
11860TIP3    H157071   3.593   4.163   4.260  2.5156  0.5599  0.7966
11860TIP3    H257072   3.617   4.054   4.158  2.3417  1.1763  0.0921
11861TIP3   OH257073   4.678   4.921  14.340  0.1931  0.8454  0.4615
11861TIP3    H157074   4.705   5.011  14.321  1.9118  0.1363 -0.7735
11861TIP3    H257075   4.694   4.874  14.258  0.0370 -0.7336  1.2977
11862TIP3   OH257076   3.097   4.484  16.785  0.3178  0.3975 -0.3138
11862TIP3    H157077   3.097   4.389  16.787  0.5723  0.3976  1.6491
11862TIP3    H257078   3.138   4.507  16.701  2.1159 -1.2309  0.0508
11863TIP3   OH257079   6.488   2.951  17.047 -0.2452  0.0926  0.2525
11863TIP3    H157080   6.394   2.968  17.051 -0.7970 -2.6234  2.6175
11863TIP3    H257081   6.498   2.886  16.978  0.3542  2.1630 -1.7154
11864TIP3   OH257082   1.434   0.996  13.265 -0.4127 -0.3893  0.2039
11864TIP3    H157083   1.380   0.946  13.326  0.8588  0.7244  2.3550
11864TIP3    H257084   1.409   1.087  13.278 -0.7939 -0.1838 -1.6969
11865TIP3   OH257085   5.579   5.246  15.477  0.1828 -0.3225  0.5236
11865TIP3    H157086   5.547   5.290  15.556  0.0364  0.1859  0.1873
11865TIP3    H257087   5.550   5.302  15.405 -2.7209 -2.4771 -0.1797
11866TIP3   OH257088   2.985   0.755  15.032  0.0250  0.2494  0.1522
11866TIP3    H157089   3.081   0.748  15.036 -0.0092  0.0419  0.7038
11866TIP3    H257090   2.966   0.772  14.939  0.6676  1.5422  0.2486
11867TIP3   OH257091   0.354   0.729   4.301 -0.0001  0.4045  0.2352
11867TIP3    H157092   0.396   0.767   4.378 -1.5186 -0.9960  1.8590
11867TIP3    H257093   0.422   0.678   4.259  0.6548  0.5187  1.1319
11868TIP3   OH257094   6.470   6.691  17.008 -0.2472 -0.1176  0.1417
11868TIP3    H157095   6.440   6.651  16.927 -0.6311 -0.6408  0.5400
11868TIP3    H257096   6.435   6.780  17.006  0.0674 -0.0009 -0.4397
11869TIP3   OH257097   6.232   3.620   2.492 -0.3064  0.2016 -0.6953
11869TIP3    H157098   6.263   3.530   2.483  0.4520  0.3855 -0.1000
11869TIP3    H257099   6.261   3.664   2.412  0.4078  0.2096 -0.4370
11870TIP3   OH257100   1.557   2.656  16.675  0.1029 -0.2800 -0.2288
11870TIP3    H157101   1.571   2.569  16.637 -1.5698 -0.2022 -1.1052
11870TIP3    H257102   1.620   2.712  16.632 -1.7268 -0.1936 -3.0206
11871TIP3   OH257103   5.438   2.992   2.979  0.5572  0.0460  0.3529
11871TIP3    H157104   5.524   2.990   3.021  0.0212  0.3031  1.4975
11871TIP3    H257105   5.395   2.912   3.009  0.3189  0.0146 -0.0648
11872TIP3   OH257106   0.841   3.277   4.985 -0.0484 -0.4982 -0.0561
11872TIP3    H157107   0.922   3.327   4.982 -1.9797  3.0778  1.3998
11872TIP3    H257108   0.812   3.274   4.893  0.4051  0.6109 -0.2534
11873TIP3   OH257109   0.518   4.229  11.747 -0.0956  0.2706  0.4853
11873TIP3    H157110   0.573   4.241  11.824 -1.0091 -0.1851  1.2231
11873TIP3    H257111   0.506   4.134  11.740 -0.7763  0.3596  0.3262
11874TIP3   OH257112   0.705   6.654  12.074 -0.3195  0.4537  0.0862
11874TIP3    H157113   0.691   6.693  11.988  1.4910  0.8702 -0.0704
11874TIP3    H257114   0.691   6.560  12.062  0.4809  0.4380 -0.8217
11875TIP3   OH257115   1.339   4.670   4.019  0.8274  0.8907  0.0615
11875TIP3    H157116   1.249   4.660   4.052  1.1135  0.6244  0.7642
11875TIP3    H257117   1.354   4.764   4.019  0.8954  0.8876  0.8975
11876TIP3   OH257118   5.330   1.062   2.471  0.3240 -0.3547 -0.0234
11876TIP3    H157119   5.335   1.022   2.558  1.8340  1.2430  0.6691
11876TIP3    H257120   5.246   1.109   2.471  0.0565 -0.8175  0.3390
11877TIP3   OH257121   4.290   5.179   6.096  0.1806  0.0850 -0.4138
11877TIP3    H157122   4.324   5.211   6.180 -2.0298  2.1066 -0.1432
11877TIP3    H257123   4.352   5.210   6.031  1.9831 -1.5946  0.4152
11878TIP3   OH257124   2.389   1.666  15.568  0.0813  0.0439  0.5408
11878TIP3    H157125   2.466   1.665  15.511  0.2259 -2.0226  0.7238
11878TIP3    H257126   2.348   1.751  15.550  2.0190  0.9129 -0.0446
11879TIP3   OH257127   6.587   1.353  12.693  0.2242  0.1122 -0.2003
11879TIP3    H157128   6.664   1.305  12.662  1.3072  1.7568 -0.2056
11879TIP3    H257129   6.533   1.286  12.735  1.6289 -1.1148 -0.2402
11880TIP3   OH257130   3.531   3.915  16.756 -0.0122 -0.5427 -0.2807
11880TIP3    H157131   3.594   3.856  16.715 -0.5301 -0.3430 -1.4208
11880TIP3    H257132   3.495   3.965  16.683 -0.9014 -0.0918  0.4491
11881TIP3   OH257133   3.711   4.369  15.375 -0.3804 -0.0409 -0.2630
11881TIP3    H157134   3.794   4.337  15.409 -0.0553  0.0728 -0.9388
11881TIP3    H257135   3.650   4.296  15.386 -0.2271 -0.0802  0.3506
11882TIP3   OH257136   0.449   1.615   1.834 -0.6862 -0.0573  0.3821
11882TIP3    H157137   0.501   1.632   1.912  0.1860  0.2869 -0.2597
11882TIP3    H257138   0.372   1.672   1.845  1.6179  3.7658 -1.1539
11883TIP3   OH257139   4.862   3.179  16.338  0.4415 -0.2043 -0.0667
11883TIP3    H157140   4.820   3.144  16.260 -0.8487 -0.9356  0.9053
11883TIP3    H257141   4.790   3.202  16.396  1.3382 -1.9980  1.8909
11884TIP3   OH257142   4.103   1.183  16.213 -0.5628  0.2872  0.4712
11884TIP3    H157143   4.122   1.231  16.294  2.2176 -0.4105  0.3253
11884TIP3    H257144   4.020   1.138  16.232  0.6871 -1.0337  3.5628
11885TIP3   OH257145   0.882   3.289  14.603  0.1279 -0.1012 -0.6582
11885TIP3    H157146   0.949   3.357  14.612 -0.5537  0.4365  0.6735
11885TIP3    H257147   0.917   3.230  14.536  0.5190  1.7857 -2.1982
11886TIP3   OH257148   0.401   5.350   5.430 -0.4177  0.3599 -0.5230
11886TIP3    H157149   0.454   5.272   5.446 -0.1323  0.8222  0.9695
11886TIP3    H257150   0.313   5.316   5.418 -0.7717 -0.1388  2.5397
11887TIP3   OH257151   3.690   0.265  13.281 -0.1699  0.0427  0.2269
11887TIP3    H157152   3.754   0.336  13.283 -1.7506  1.5451  0.0080
11887TIP3    H257153   3.695   0.226  13.369  2.3167 -1.1557 -0.3405
11888TIP3   OH257154   6.755   6.363  13.133  0.0131 -0.3248  0.1101
11888TIP3    H157155   6.670   6.402  13.112 -0.1139  0.2036  1.4662
11888TIP3    H257156   6.733   6.275  13.164  0.0411 -0.4883 -0.3320
11889TIP3   OH257157   4.723   0.328  12.058  0.4443  0.1870  0.6158
11889TIP3    H157158   4.636   0.357  12.032  0.4608  1.3042  1.7338
11889TIP3    H257159   4.761   0.402  12.105  1.8160 -0.4504  0.5796
11890TIP3   OH257160   0.893   0.273  15.489  0.4638 -0.8964  0.4341
11890TIP3    H157161   0.959   0.325  15.535 -2.2974  0.6089  3.0405
11890TIP3    H257162   0.883   0.194  15.542 -0.6787 -0.5217  0.8003
11891TIP3   OH257163   2.062   6.551  14.351  0.7798  0.8461  0.0924
11891TIP3    H157164   2.076   6.463  14.315 -3.3548 -0.1864  0.4237
11891TIP3    H257165   2.068   6.609  14.276 -0.4765 -0.3455 -1.0000
11892TIP3   OH257166   3.278   4.543  16.592 -0.1413 -0.6994 -0.0646
11892TIP3    H157167   3.360   4.585  16.568 -1.1294  1.1040 -0.5188
11892TIP3    H257168   3.281   4.458  16.548  1.3303 -0.5381 -0.3298
11893TIP3   OH257169   0.770   2.355  16.088  0.0284  0.3130 -0.3401
11893TIP3    H157170   0.724   2.329  16.169  2.1058 -0.3740  0.6867
11893TIP3    H257171   0.724   2.307  16.019  0.2950 -1.8375  0.8715
11894TIP3   OH257172   0.698   3.869   5.366  0.4707  0.3077 -0.5221
11894TIP3    H157173   0.717   3.959   5.393  0.9289 -0.5968  2.4962
11894TIP3    H257174   0.658   3.878   5.279  0.2233  3.4205 -0.1938
11895TIP3   OH257175   1.443   2.139  11.915 -0.4798  0.5255  0.0286
11895TIP3    H157176   1.539   2.140  11.919 -0.4297 -0.8881 -0.3677
11895TIP3    H257177   1.416   2.115  12.003 -0.5095  1.6596  0.3409
11896TIP3   OH257178   2.516   1.306  13.189 -0.6188  0.1379 -0.1771
11896TIP3    H157179   2.436   1.257  13.210 -0.4253  0.1543  0.6016
11896TIP3    H257180   2.579   1.238  13.164 -0.2534 -0.0618  1.2079
11897TIP3   OH257181   6.274   3.823  17.305  0.5985 -0.4157  0.4504
11897TIP3    H157182   6.293   3.836  17.397 -0.4985  2.8123  0.3376
11897TIP3    H257183   6.357   3.835  17.260  0.4694  2.2104  0.7834
11898TIP3   OH257184   6.165   3.091  11.889 -0.2622  0.7202 -0.1204
11898TIP3    H157185   6.239   3.030  11.887  0.6231  1.7241  0.6825
11898TIP3    H257186   6.110   3.060  11.961 -1.4773 -0.9320 -1.6771
11899TIP3   OH257187   1.662   0.051   4.385  0.0273 -0.2145  0.1927
11899TIP3    H157188   1.684   0.134   4.428 -0.9955  0.8909 -1.3401
11899TIP3    H257189   1.653  -0.012   4.458  1.5779  0.8061  1.3199
11900TIP3   OH257190   2.291   0.162   2.723  0.3093  0.1394  0.1420
11900TIP3    H157191   2.372   0.137   2.678 -0.1486  0.7961 -1.0672
11900TIP3    H257192   2.291   0.109   2.803  0.2275 -2.4405 -1.4866
11901TIP3   OH257193   6.218   5.467   5.774  0.2112 -0.2665  0.2249
11901TIP3    H157194   6.133   5.481   5.732  0.9648  0.0631 -1.2740
11901TIP3    H257195   6.242   5.377   5.752  0.0062 -0.5572  1.1390
11902TIP3   OH257196   5.528   5.969  16.068 -0.6237  0.2171 -0.4291
11902TIP3    H157197   5.502   6.050  16.025 -1.6004 -0.4182 -1.0929
11902TIP3    H257198   5.458   5.907  16.046  1.1816 -1.4499 -1.8344
11903TIP3   OH257199   2.212   5.647   2.354  0.3484  0.7769 -0.1981
11903TIP3    H157200   2.291   5.674   2.402 -1.1583  1.3464  2.1538
11903TIP3    H257201   2.229   5.557   2.329  2.4021  1.4038 -1.2888
11904TIP3   OH257202   5.699   5.698   4.543  0.2923  0.1099 -0.8147
11904TIP3    H157203   5.630   5.725   4.482  0.8976 -0.0490 -1.5828
11904TIP3    H257204   5.765   5.767   4.538 -0.8547  1.5641  1.7711
11905TIP3   OH257205   5.843   6.072   2.788  0.1639 -0.5153 -0.0470
11905TIP3    H157206   5.847   6.160   2.826 -1.5818 -1.2287  2.0183
11905TIP3    H257207   5.762   6.072   2.737  0.8866 -0.5174 -1.2123
11906TIP3   OH257208   1.374   1.511  15.656  0.1936 -0.2946 -0.7287
11906TIP3    H157209   1.406   1.584  15.603 -0.5170 -0.2614 -1.1258
11906TIP3    H257210   1.404   1.531  15.745 -0.1419  0.5706 -0.8029
11907TIP3   OH257211   6.509   0.096   1.177  0.1107 -0.2088  0.3130
11907TIP3    H157212   6.450   0.171   1.172 -1.3078 -1.2730  0.4387
11907TIP3    H257213   6.508   0.059   1.089  1.1098  0.1082  0.1469
11908TIP3   OH257214   2.797   5.302  13.177  0.0788  0.0583 -0.4352
11908TIP3    H157215   2.786   5.396  13.163 -0.0220 -0.0863 -1.3795
11908TIP3    H257216   2.786   5.263  13.090 -0.1713 -0.8543 -0.0085
11909TIP3   OH257217   6.824   2.787   2.460 -0.3081  0.0843  0.0357
11909TIP3    H157218   6.903   2.764   2.412 -0.0411 -0.2740  0.6353
11909TIP3    H257219   6.828   2.882   2.468 -0.5142  0.1826 -0.9113
11910TIP3   OH257220   5.287   0.002  16.402  0.0988 -0.5472  0.4614
11910TIP3    H157221   5.282  -0.092  16.385 -0.6635 -0.0509 -2.6493
11910TIP3    H257222   5.335   0.038  16.328  2.2106  1.3648  2.6045
11911TIP3   OH257223   4.388   4.193   2.030 -0.5175 -0.4547  0.2167
11911TIP3    H157224   4.318   4.161   1.972 -1.4913 -0.5207  1.3865
11911TIP3    H257225   4.468   4.180   1.979 -1.3604 -0.0884 -1.2901
11912TIP3   OH257226   6.740   1.741  13.305  0.9568  0.1224 -0.1871
11912TIP3    H157227   6.761   1.678  13.235  1.6808 -0.5804  0.6420
11912TIP3    H257228   6.648   1.762  13.291  1.3299  0.7977 -1.9833
11913TIP3   OH257229   1.693   3.475   4.551  0.4566  0.1502 -0.8819
11913TIP3    H157230   1.763   3.445   4.492 -1.0620 -0.1897 -2.6022
11913TIP3    H257231   1.647   3.542   4.500  1.0290  2.2588  1.1987
11914TIP3   OH257232   5.604   5.786   5.296  0.7125 -0.4812  0.6082
11914TIP3    H157233   5.541   5.857   5.282  1.0304 -0.4227 -0.7565
11914TIP3    H257234   5.683   5.830   5.329 -0.1564 -0.6490  3.1079
11915TIP3   OH257235   2.337   5.738   5.580  0.0453 -0.2883 -0.2525
11915TIP3    H157236   2.289   5.780   5.652  0.0568  1.1077 -1.0218
11915TIP3    H257237   2.274   5.735   5.508  0.4397 -0.4547 -0.5953
11916TIP3   OH257238   4.236   6.724   2.654  0.1057  0.2312 -0.6346
11916TIP3    H157239   4.179   6.798   2.673 -1.2204 -0.6285 -1.0976
11916TIP3    H257240   4.184   6.669   2.595  1.6482 -0.2954 -1.5562
11917TIP3   OH257241   2.434   2.559  15.607  0.2611  0.6668  0.2982
11917TIP3    H157242   2.447   2.465  15.594  1.1752  0.9114 -0.6663
11917TIP3    H257243   2.375   2.585  15.536 -0.9609  0.6202  1.2678
11918TIP3   OH257244   2.238   5.709  10.823  0.5345  0.3994 -0.6128
11918TIP3    H157245   2.322   5.673  10.793  0.2290 -1.2209  0.3407
11918TIP3    H257246   2.177   5.636  10.814 -0.2903  0.8940  0.7365
11919TIP3   OH257247   4.791   4.535   1.439  0.8069 -0.2144 -0.0966
11919TIP3    H157248   4.796   4.505   1.530  1.6002  0.6089  0.1406
11919TIP3    H257249   4.873   4.582   1.424  0.2692  0.4933 -0.9418
11920TIP3   OH257250   2.629   3.329  17.019  0.2050 -0.5086  0.4421
11920TIP3    H157251   2.540   3.296  17.010 -0.0686  0.1973  0.5029
11920TIP3    H257252   2.678   3.256  17.057 -0.2700 -1.0071  0.1084
11921TIP3   OH257253   3.433   5.839  11.723  1.2526 -0.5757  0.5903
11921TIP3    H157254   3.375   5.846  11.647 -1.8498 -0.2297  2.8201
11921TIP3    H257255   3.477   5.924  11.727  0.4057 -0.0926 -0.0455
11922TIP3   OH257256   4.243   6.065  10.982  0.5646 -0.0017 -0.0534
11922TIP3    H157257   4.336   6.042  10.980  0.2488 -1.3448  0.1569
11922TIP3    H257258   4.220   6.081  10.890  1.0082  0.3830 -0.0997
11923TIP3   OH257259   1.798   3.499   4.832  0.1600 -0.3215  0.0834
11923TIP3    H157260   1.757   3.522   4.749 -0.2890 -0.6648  0.2075
11923TIP3    H257261   1.850   3.576   4.855 -0.1335 -0.0178 -0.2539
11924TIP3   OH257262   0.742   5.269   1.980 -0.1636 -0.4624  0.1201
11924TIP3    H157263   0.733   5.294   2.072 -1.1588  1.8129 -0.5260
11924TIP3    H257264   0.831   5.293   1.956 -0.0290 -0.7002  0.3815
11925TIP3   OH257265   1.241   6.695  11.633  0.1025  0.0879 -0.5715
11925TIP3    H157266   1.218   6.759  11.565 -0.9015 -0.1317 -0.4504
11925TIP3    H257267   1.159   6.677  11.678  0.7842  0.3326  0.8140
11926TIP3   OH257268   0.696   0.493   1.346  0.1453  0.0382  0.2897
11926TIP3    H157269   0.602   0.495   1.362  0.5907  1.4367  3.6634
11926TIP3    H257270   0.719   0.400   1.348 -1.2069 -0.3577 -1.1996
11927TIP3   OH257271   5.563   0.690   4.397  0.0594 -0.1107 -0.1171
11927TIP3    H157272   5.528   0.671   4.484  0.7123 -1.6201 -0.1637
11927TIP3    H257273   5.619   0.616   4.377 -0.4064  0.0071 -2.0237
11928TIP3   OH257274   0.105   2.352   0.186 -0.4267  0.5577 -0.1658
11928TIP3    H157275   0.185   2.327   0.140  0.9095  1.4449  1.5646
11928TIP3    H257276   0.084   2.277   0.240 -1.4752 -0.1227 -1.4438
11929TIP3   OH257277   5.386   2.371   0.637 -0.1106 -0.4338  0.2820
11929TIP3    H157278   5.324   2.352   0.707  0.4413 -0.3293  0.7972
11929TIP3    H257279   5.337   2.350   0.557 -1.1254  0.4713  0.6265
11930TIP3   OH257280   2.462   1.765  14.679 -0.7408 -0.1021 -0.0061
11930TIP3    H157281   2.374   1.771  14.717 -1.7602 -1.7581 -1.9302
11930TIP3    H257282   2.454   1.701  14.609  2.1059 -0.5259 -0.0737
11931TIP3   OH257283   3.372   1.861  12.210 -0.4747 -0.6226 -0.5010
11931TIP3    H157284   3.332   1.932  12.161 -3.0927 -1.2929  0.5293
11931TIP3    H257285   3.461   1.855  12.175 -1.0401  1.3583 -2.4798
11932TIP3   OH257286   0.351   0.963  11.769  0.0151  0.1744  0.3538
11932TIP3    H157287   0.342   1.058  11.779  0.2104  0.0531  1.9035
11932TIP3    H257288   0.446   0.948  11.768 -0.0141  0.0014 -0.0217
11933TIP3   OH257289   4.423   1.621   4.829 -0.0628 -0.2974 -0.0986
11933TIP3    H157290   4.398   1.677   4.903 -0.4198  0.9531 -1.1296
11933TIP3    H257291   4.507   1.657   4.799 -1.0782  0.8225 -1.8037
11934TIP3   OH257292   5.223   5.706  15.067 -0.4603 -0.2198  0.4159
11934TIP3    H157293   5.215   5.612  15.056 -1.1536 -0.2230  0.8927
11934TIP3    H257294   5.228   5.741  14.978 -1.1725 -0.6310  0.2068
11935TIP3   OH257295   3.235   5.894   6.698  0.5921  0.0979  0.1027
11935TIP3    H157296   3.214   5.834   6.627 -1.0056  0.9241 -0.1676
11935TIP3    H257297   3.152   5.936   6.720  0.6575 -1.2620  3.5660
11936TIP3   OH257298   5.334   4.719   1.141 -0.8548  0.0686  0.1488
11936TIP3    H157299   5.240   4.718   1.125 -0.6208 -0.1150 -1.3949
11936TIP3    H257300   5.373   4.695   1.057  0.5126 -2.1796  1.3184
11937TIP3   OH257301   0.961   6.278   0.426  0.2587  0.1175  0.4151
11937TIP3    H157302   1.041   6.310   0.385  0.0547 -0.5152 -0.5029
11937TIP3    H257303   0.903   6.258   0.353 -0.3008 -0.5471  1.0241
11938TIP3   OH257304   3.507   0.664  14.490 -0.5103  0.4533  0.1314
11938TIP3    H157305   3.547   0.592  14.538 -1.0224 -0.1323 -0.3007
11938TIP3    H257306   3.564   0.739  14.506  0.0892 -0.0760  0.4934
11939TIP3   OH257307   0.110   0.247   2.217  0.2314  0.2010  0.2155
11939TIP3    H157308   0.057   0.195   2.157 -0.6183  0.9525  0.2866
11939TIP3    H257309   0.187   0.193   2.234  0.7966  0.2193 -2.0138
11940TIP3   OH257310   2.240   1.107  16.220  0.0827  0.0271 -0.1070
11940TIP3    H157311   2.150   1.137  16.207 -0.3300 -0.5753  1.0925
11940TIP3    H257312   2.282   1.178  16.268 -0.1506 -0.2157  0.4758
11941TIP3   OH257313   0.818   5.583   1.932  0.4043 -0.1082 -0.0831
11941TIP3    H157314   0.764   5.658   1.910 -1.0960 -0.7058  1.3716
11941TIP3    H257315   0.901   5.620   1.963  0.1523  0.8887 -0.6012
11942TIP3   OH257316   2.925   2.934   0.128 -0.5815  0.9884  0.4797
11942TIP3    H157317   3.016   2.937   0.158 -0.6613 -0.3363  0.9440
11942TIP3    H257318   2.930   2.951   0.034  0.1269  1.1448  0.5428
11943TIP3   OH257319   3.502   4.305  11.899  0.3313 -0.1494  0.2504
11943TIP3    H157320   3.472   4.393  11.876 -0.0193 -0.4760 -0.6044
11943TIP3    H257321   3.529   4.266  11.816  0.6878 -0.7736  0.6483
11944TIP3   OH257322   3.370   3.522   5.235  0.0795  0.1898 -0.4353
11944TIP3    H157323   3.380   3.598   5.291 -1.5164 -0.1678  0.3772
11944TIP3    H257324   3.315   3.552   5.162 -2.4217 -0.6382  0.9860
11945TIP3   OH257325   1.324   6.782  12.103  0.2655 -0.2625 -0.1593
11945TIP3    H157326   1.256   6.847  12.084 -0.5019 -1.2932 -1.0062
11945TIP3    H257327   1.366   6.765  12.019 -1.3459 -2.8379 -0.5378
11946TIP3   OH257328   3.586   3.680   4.036  0.4036 -0.0614 -0.0586
11946TIP3    H157329   3.672   3.679   3.993 -0.2814 -2.0533 -1.5525
11946TIP3    H257330   3.560   3.588   4.038 -1.1547  0.3672  1.5416
11947TIP3   OH257331   4.023   6.795   3.136  0.4395  0.1131  0.3482
11947TIP3    H157332   4.101   6.760   3.094 -0.6370 -2.2982  0.1765
11947TIP3    H257333   3.950   6.758   3.086 -0.8347  1.4883  1.1046
11948TIP3   OH257334   4.668   3.618   2.687 -0.1948  0.4964  0.2193
11948TIP3    H157335   4.584   3.645   2.651 -0.7146 -0.3230  0.7750
11948TIP3    H257336   4.709   3.700   2.718  0.2931  1.2323 -2.1811
11949TIP3   OH257337   1.486   1.895  13.231  0.3390 -0.6315 -0.3183
11949TIP3    H157338   1.467   1.983  13.261  0.3081 -1.2809  1.7055
11949TIP3    H257339   1.417   1.875  13.168 -0.0130  0.5390 -0.3127
11950TIP3   OH257340   4.114   4.875  10.790 -0.5785  0.6351  0.1286
11950TIP3    H157341   4.138   4.806  10.851  0.3301 -0.1055 -1.0098
11950TIP3    H257342   4.064   4.830  10.721 -3.1278  1.7213  1.1143
11951TIP3   OH257343   2.806   2.109  13.793 -0.3262 -0.1211 -0.7160
11951TIP3    H157344   2.758   2.079  13.870 -2.1243 -1.2839 -2.2196
11951TIP3    H257345   2.857   2.033  13.765  1.3392  0.6733  0.0110
11952TIP3   OH257346   3.672   0.397  13.626  0.1325 -0.0326  0.0070
11952TIP3    H157347   3.644   0.474  13.674  0.5486  0.4378 -0.4965
11952TIP3    H257348   3.667   0.422  13.534 -1.6520 -1.2513 -0.2885
11953TIP3   OH257349   5.091   6.453   0.880  0.2067  0.0727  0.4671
11953TIP3    H157350   5.038   6.374   0.879  0.1019  0.1358 -1.0953
11953TIP3    H257351   5.060   6.502   0.956 -2.1887  0.2427 -0.5527
11954TIP3   OH257352   6.818   3.753  11.947  0.0110 -0.1777 -0.4164
11954TIP3    H157353   6.865   3.830  11.913  1.0758 -1.4817 -2.1048
11954TIP3    H257354   6.735   3.754  11.900  0.0336 -0.0570 -0.4553
11955TIP3   OH257355   4.554   1.859  14.791  0.4148  0.9399  0.0291
11955TIP3    H157356   4.505   1.843  14.711  2.4388 -1.4189 -0.8605
11955TIP3    H257357   4.641   1.886  14.762  0.6484  1.9027  1.4916
11956TIP3   OH257358   5.564   3.528   1.896 -0.3471  0.6227 -0.7345
11956TIP3    H157359   5.649   3.485   1.889 -1.2059 -0.9352 -2.4205
11956TIP3    H257360   5.544   3.555   1.806 -1.8065  0.5869 -0.4428
11957TIP3   OH257361   2.987   6.536  12.388  0.3087 -0.2390  0.2045
11957TIP3    H157362   2.992   6.544  12.293  2.2264  0.5293  0.3261
11957TIP3    H257363   2.894   6.546  12.408 -0.1623 -0.7245 -1.6066
11958TIP3   OH257364   4.030   6.042   0.737 -0.5078 -0.1804  0.6380
11958TIP3    H157365   4.096   5.985   0.775 -0.6915 -0.1452  1.0180
11958TIP3    H257366   3.951   5.988   0.733 -0.1624 -0.6274 -0.9764
11959TIP3   OH257367   5.702   1.654   2.483  0.3282 -0.0357  0.2669
11959TIP3    H157368   5.684   1.743   2.452  0.8753  0.0335  0.1295
11959TIP3    H257369   5.619   1.623   2.518 -0.2175  0.0131 -0.9431
11960TIP3   OH257370   6.637   0.690  13.267 -0.2793  0.0994 -0.4829
11960TIP3    H157371   6.626   0.642  13.350 -0.1107  1.0007  0.0717
11960TIP3    H257372   6.551   0.727  13.248  0.1235  1.5422  0.3445
11961TIP3   OH257373   4.737   4.395  15.510 -0.2261  0.1277 -0.2333
11961TIP3    H157374   4.683   4.316  15.503  0.9589 -0.5636 -2.7006
11961TIP3    H257375   4.791   4.394  15.431 -0.7115  3.8687 -0.7967
11962TIP3   OH257376   6.279   3.931   3.405 -0.8304  0.1818 -0.0638
11962TIP3    H157377   6.185   3.921   3.391 -0.6735  1.2917 -2.4795
11962TIP3    H257378   6.317   3.851   3.368 -0.7329  0.6789 -1.0752
11963TIP3   OH257379   2.139   6.349  16.370  0.2472 -0.5173  0.6565
11963TIP3    H157380   2.103   6.311  16.290 -0.7473 -1.4569  1.5098
11963TIP3    H257381   2.231   6.368  16.349  0.1920 -1.4141 -0.4766
11964TIP3   OH257382   4.567   2.821  16.407  0.0065 -0.2590 -0.8146
11964TIP3    H157383   4.604   2.847  16.323 -3.7980 -1.0384 -2.9706
11964TIP3    H257384   4.484   2.779  16.385 -0.2683 -2.4052  3.2544
11965TIP3   OH257385   4.260   2.070  12.294 -0.5697  0.1639 -0.6390
11965TIP3    H157386   4.176   2.027  12.278  0.1347 -1.6960  0.2273
11965TIP3    H257387   4.254   2.100  12.385 -0.8037  1.3215 -1.0287
11966TIP3   OH257388   2.517   5.226   0.703 -0.2545 -0.0501 -0.0672
11966TIP3    H157389   2.496   5.258   0.791  0.5078  0.6681 -0.1446
11966TIP3    H257390   2.577   5.153   0.718  0.2202  0.3481  0.0009
11967TIP3   OH257391   2.761   4.470  14.692 -0.1159  0.6419 -0.2037
11967TIP3    H157392   2.738   4.563  14.702 -0.8934  0.2238  3.7832
11967TIP3    H257393   2.684   4.424  14.724  1.7238 -1.2125  1.8386
11968TIP3   OH257394   2.063   3.059  14.433  0.3460 -0.3475  0.8361
11968TIP3    H157395   2.095   3.005  14.505 -0.8571 -0.4981  1.2811
11968TIP3    H257396   2.117   3.034  14.358  0.7352 -1.1441  1.3690
11969TIP3   OH257397   5.355   2.969   3.432 -0.4246  0.2235  0.1639
11969TIP3    H157398   5.384   2.941   3.519  1.9062 -1.9250 -1.1724
11969TIP3    H257399   5.378   3.062   3.429  3.9431 -0.6030  0.3753
11970TIP3   OH257400   5.797   1.446   4.735 -0.4421 -0.1591 -0.1104
11970TIP3    H157401   5.814   1.540   4.730 -1.4518  0.0860  0.6404
11970TIP3    H257402   5.870   1.406   4.689  0.0480  0.9902 -0.3755
11971TIP3   OH257403   5.603   6.097  16.830 -0.3081  0.7782 -0.0377
11971TIP3    H157404   5.694   6.086  16.859 -0.4539 -1.1962 -0.1672
11971TIP3    H257405   5.562   6.151  16.897  0.1448 -1.0888  1.8562
11972TIP3   OH257406   5.904   6.560  16.641 -0.1839  0.0384 -0.2719
11972TIP3    H157407   5.988   6.586  16.603 -0.0051 -0.4265 -0.2009
11972TIP3    H257408   5.927   6.497  16.710 -0.5195  0.7358  0.4871
11973TIP3   OH257409   2.483   2.621  15.859 -0.0122 -0.3514  0.0234
11973TIP3    H157410   2.441   2.555  15.915  1.0526 -0.6070  0.5532
11973TIP3    H257411   2.432   2.621  15.779  0.1273 -2.0346 -0.0930
11974TIP3   OH257412   3.417   4.554  14.462  0.7030  0.0122  0.2041
11974TIP3    H157413   3.480   4.486  14.486  0.5422  0.7437  3.0597
11974TIP3    H257414   3.464   4.609  14.399  2.0673 -0.7724  0.4982
11975TIP3   OH257415   0.351   1.653  14.911  0.3527  0.0172  0.0136
11975TIP3    H157416   0.280   1.680  14.969  0.9398 -0.7350  1.1036
11975TIP3    H257417   0.350   1.558  14.914 -0.2358 -0.0925 -2.0255
11976TIP3   OH257418   5.550   4.943   3.314  0.5393 -0.3870  0.0568
11976TIP3    H157419   5.549   4.854   3.349  2.1803 -0.4717 -0.0098
11976TIP3    H257420   5.556   4.999   3.392  2.1384 -0.4842  0.0393
11977TIP3   OH257421   6.612   3.973   1.098 -0.1918 -0.5053 -0.1741
11977TIP3    H157422   6.626   3.883   1.068  0.9836  0.0304 -1.3451
11977TIP3    H257423   6.644   4.027   1.026 -0.5281  0.8656  0.6689
11978TIP3   OH257424   3.490   5.276   0.703 -0.3968  0.2355  0.1256
11978TIP3    H157425   3.400   5.253   0.726 -1.0009  2.0259 -0.2432
11978TIP3    H257426   3.519   5.206   0.645 -2.3002  0.6309 -1.4220
11979TIP3   OH257427   2.653   4.440   2.395 -0.5419 -0.4852 -0.5841
11979TIP3    H157428   2.616   4.401   2.315 -1.4856  0.1947 -0.4912
11979TIP3    H257429   2.581   4.489   2.433  0.3788  0.6112 -0.2133
11980TIP3   OH257430   5.971   5.159   5.786 -0.2004  0.0921 -0.3837
11980TIP3    H157431   6.062   5.131   5.773 -0.3356 -0.3345 -0.4257
11980TIP3    H257432   5.928   5.140   5.703 -0.6992 -1.1906  0.1537
11981TIP3   OH257433   1.592   4.438   1.189  0.2622 -1.0428  0.3626
11981TIP3    H157434   1.668   4.495   1.179  0.7493 -1.8060 -0.4430
11981TIP3    H257435   1.528   4.473   1.127  0.3646 -1.0495  0.2520
11982TIP3   OH257436   0.715   2.204   0.083 -0.3168 -0.0108  0.7464
11982TIP3    H157437   0.680   2.264   0.149  1.3932  1.7784  0.1100
11982TIP3    H257438   0.652   2.209   0.010 -0.0786  1.2242  0.6084
11983TIP3   OH257439   5.790   6.382   5.126 -0.0232  0.1545 -0.2275
11983TIP3    H157440   5.730   6.344   5.189  0.8561  1.3785  1.4422
11983TIP3    H257441   5.752   6.468   5.105  1.4491  1.3151  1.4970
11984TIP3   OH257442   4.448   1.507  16.643 -0.2478  0.3773  0.1361
11984TIP3    H157443   4.441   1.588  16.693 -0.8276  0.3323  0.1365
11984TIP3    H257444   4.522   1.461  16.682 -0.1865  0.7132  0.4196
11985TIP3   OH257445   4.259   6.131  15.087 -0.0361 -0.0610  0.4892
11985TIP3    H157446   4.346   6.103  15.117  0.1197 -1.3507 -1.0508
11985TIP3    H257447   4.277   6.192  15.015 -0.4215  0.6414  0.9767
11986TIP3   OH257448   3.975   0.903   1.494  0.2977 -0.3429  0.2816
11986TIP3    H157449   4.020   0.985   1.515  1.9215 -1.5056  1.5490
11986TIP3    H257450   3.980   0.851   1.574 -0.0237 -1.9842 -0.7162
11987TIP3   OH257451   2.889   6.472   3.418 -0.6429 -0.5378  0.1037
11987TIP3    H157452   2.819   6.407   3.412 -0.2697 -0.8698 -0.8592
11987TIP3    H257453   2.954   6.432   3.475 -1.2221 -0.2281  1.0057
11988TIP3   OH257454   0.792   1.082  12.461  0.5048 -0.1803  0.2470
11988TIP3    H157455   0.806   1.159  12.405  0.1121 -0.3668 -0.1172
11988TIP3    H257456   0.702   1.055  12.441  0.7991 -1.0194  0.0184
11989TIP3   OH257457   2.827   6.494   1.724  0.0595 -0.2021  0.1255
11989TIP3    H157458   2.862   6.513   1.811  1.3650  0.9797 -0.6214
11989TIP3    H257459   2.904   6.470   1.672 -0.1405  2.4380 -1.5777
11990TIP3   OH257460   4.403   1.467  13.517  0.0707 -0.2251 -0.2845
11990TIP3    H157461   4.462   1.481  13.591  0.2466 -1.3272 -0.2049
11990TIP3    H257462   4.322   1.436  13.557  0.3026 -1.2250 -0.5773
11991TIP3   OH257463   0.046   3.962   2.856 -0.3587 -0.1199  0.7848
11991TIP3    H157464  -0.012   4.037   2.872 -1.0852 -0.5955  0.4294
11991TIP3    H257465  -0.013   3.891   2.832  0.5288  0.3690 -3.7148
11992TIP3   OH257466   3.178   0.452   5.727 -0.3303 -0.3004  0.1114
11992TIP3    H157467   3.258   0.410   5.760 -0.6121 -1.5608 -0.7236
11992TIP3    H257468   3.114   0.440   5.797  0.9388  3.5619  2.2416
11993TIP3   OH257469   1.655   5.437   5.081 -0.2676 -0.1842  0.4198
11993TIP3    H157470   1.644   5.526   5.114  0.6589  0.0156  0.2179
11993TIP3    H257471   1.570   5.416   5.042 -0.3280  0.8301 -0.0491
11994TIP3   OH257472   6.476   3.095  15.634  0.4135 -0.3280 -0.2339
11994TIP3    H157473   6.466   3.079  15.540  1.7704 -2.0431 -0.1337
11994TIP3    H257474   6.490   3.190  15.640 -1.9662  0.1965 -1.4952
11995TIP3   OH257475   3.260   4.473   4.178 -0.0421  0.1638 -0.5857
11995TIP3    H157476   3.302   4.401   4.132  0.5529 -0.6152  1.0979
11995TIP3    H257477   3.220   4.432   4.255 -1.3997  1.3394 -0.6163
11996TIP3   OH257478   1.728   6.674  13.799  0.2977  0.1159 -0.3850
11996TIP3    H157479   1.650   6.688  13.853 -0.1914 -0.9758 -0.7755
11996TIP3    H257480   1.796   6.650  13.862 -0.4393 -1.8378 -0.2495
11997TIP3   OH257481   4.639   0.329   3.287  0.3009 -0.0952  0.7416
11997TIP3    H157482   4.689   0.247   3.280  0.0816 -0.1877  0.1869
11997TIP3    H257483   4.548   0.301   3.288  0.2330  0.1295  0.7829
11998TIP3   OH257484   1.238   0.623   1.096  0.0756 -0.1689 -0.1966
11998TIP3    H157485   1.296   0.694   1.125  1.2519 -1.3405  0.4556
11998TIP3    H257486   1.172   0.617   1.165 -0.8403  1.1454 -0.9181
11999TIP3   OH257487   3.901   5.240   4.473 -0.5973 -0.3037 -0.0077
11999TIP3    H157488   3.926   5.299   4.402  1.9243 -0.1376  0.9275
11999TIP3    H257489   3.832   5.287   4.521  0.9013  1.6542  0.3298
12000TIP3   OH257490   4.538   3.159   4.752  0.1162  0.8849  0.2516
12000TIP3    H157491   4.570   3.105   4.824  0.9032  0.4566 -0.4021
12000TIP3    H257492   4.614   3.174   4.697 -0.4218  1.3917 -0.3800
12001TIP3   OH257493   2.596   0.234  11.504  0.2178 -0.6002  0.1823
12001TIP3    H157494   2.604   0.233  11.600 -0.1274 -0.3106  0.2146
12001TIP3    H257495   2.687   0.227  11.473  0.4627  0.6703  0.5407
12002TIP3   OH257496   4.402   0.419  15.450 -0.1646 -0.2183 -0.6156
12002TIP3    H157497   4.480   0.376  15.485 -0.4723 -0.9863 -0.8525
12002TIP3    H257498   4.387   0.376  15.366 -0.8573 -0.1034 -0.5565
12003TIP3   OH257499   5.221   2.302   5.269  0.2330 -0.1614 -0.2049
12003TIP3    H157500   5.259   2.233   5.323 -1.4150 -0.5235  0.5489
12003TIP3    H257501   5.289   2.369   5.265 -0.4346  1.1150  4.6266
12004TIP3   OH257502   3.680   6.411   5.450 -0.2783  0.3258  0.6591
12004TIP3    H157503   3.646   6.477   5.510 -1.0427  1.2210 -0.7057
12004TIP3    H257504   3.617   6.339   5.455  0.3838 -0.2085  1.9034
12005TIP3   OH257505   4.367   4.388  15.544  0.1766  0.4394 -0.2990
12005TIP3    H157506   4.325   4.320  15.596 -0.2054  0.2899 -0.7915
12005TIP3    H257507   4.350   4.470  15.591  0.4883  0.2189  0.2016
12006TIP3   OH257508   1.778   1.615  12.095  0.7515  0.3032  0.1629
12006TIP3    H157509   1.743   1.546  12.152  2.0164  0.4296  1.1347
12006TIP3    H257510   1.847   1.572  12.045  2.2005  1.0216  1.4478
12007TIP3   OH257511   6.246   5.198   5.252 -0.6190  0.1778  0.3233
12007TIP3    H157512   6.155   5.188   5.224 -0.9554  0.1215  1.3933
12007TIP3    H257513   6.245   5.178   5.346  0.5736 -0.2328  0.2642
12008TIP3   OH257514   0.800   2.972   0.066 -0.2923  0.0810  0.2032
12008TIP3    H157515   0.893   2.969   0.089 -0.3479 -0.0988  0.4096
12008TIP3    H257516   0.794   3.039  -0.002 -0.0156  0.1108  0.2071
12009TIP3   OH257517   2.448   1.341  14.341 -0.5783 -0.0767  1.0871
12009TIP3    H157518   2.476   1.353  14.251 -0.4849  2.4059  1.3827
12009TIP3    H257519   2.353   1.351  14.338 -1.0774 -3.6147  0.8159
12010TIP3   OH257520   4.386   6.073   5.850  0.6285  0.4080 -0.1285
12010TIP3    H157521   4.384   5.977   5.851 -1.7107  0.3855 -1.3608
12010TIP3    H257522   4.316   6.099   5.909  1.3083  1.4015  0.2659
12011TIP3   OH257523   4.357   1.597   3.021 -0.7076 -0.6136  1.2246
12011TIP3    H157524   4.379   1.534   2.953  0.4417 -1.5196  2.3717
12011TIP3    H257525   4.310   1.667   2.976  0.0213 -1.1821 -0.4775
12012TIP3   OH257526   3.540   5.125   0.288  0.1835  0.3348  0.6515
12012TIP3    H157527   3.518   5.090   0.374 -0.8541 -0.8632 -0.0679
12012TIP3    H257528   3.559   5.218   0.304 -0.4463  0.2403  2.1012
12013TIP3   OH257529   0.268   0.817  16.358  0.2499 -0.4617 -0.5328
12013TIP3    H157530   0.358   0.793  16.381  0.2632 -1.5469 -1.6137
12013TIP3    H257531   0.271   0.827  16.263  0.0471  3.1158 -0.2949
12014TIP3   OH257532   1.326   6.768  14.889 -0.1373  0.0701 -0.1632
12014TIP3    H157533   1.308   6.708  14.962 -1.6000 -0.4228 -0.8942
12014TIP3    H257534   1.279   6.848  14.912  1.3160  0.7722  0.5174
12015TIP3   OH257535   4.914   6.133   5.635  0.1763 -0.5203 -0.4019
12015TIP3    H157536   4.833   6.167   5.673  0.6772  0.1464  0.0842
12015TIP3    H257537   4.926   6.184   5.555  1.2265  0.8832  0.6171
12016TIP3   OH257538   1.432   3.924   2.440 -1.0723  0.2699 -0.1042
12016TIP3    H157539   1.498   3.990   2.418 -0.3940 -0.4753 -0.3851
12016TIP3    H257540   1.478   3.862   2.497 -2.0923  0.7795  1.3274
12017TIP3   OH257541   3.502   0.603  17.266  0.2244  0.3518  0.0399
12017TIP3    H157542   3.410   0.597  17.291 -0.4707  0.7967 -2.2171
12017TIP3    H257543   3.511   0.690  17.227  1.0017 -0.5218 -1.8574
12018TIP3   OH257544   2.788   0.429   6.419  0.1132 -0.0526 -0.1169
12018TIP3    H157545   2.738   0.430   6.337  0.5470 -1.1153 -0.4188
12018TIP3    H257546   2.785   0.519   6.450  0.9433  0.6629 -1.9381
12019TIP3   OH257547   5.153   4.452   4.585  0.1229  0.2160  0.1910
12019TIP3    H157548   5.204   4.428   4.507 -2.4308 -0.0651 -1.5285
12019TIP3    H257549   5.133   4.368   4.627 -0.2503  0.1793 -0.0538
12020TIP3   OH257550   3.269   1.755  12.587 -0.2822  0.3899 -0.5458
12020TIP3    H157551   3.220   1.796  12.516 -1.1435  1.1818  0.4725
12020TIP3    H257552   3.313   1.827  12.631 -0.6460  0.0547  0.3938
12021TIP3   OH257553   1.855   3.969   1.483 -0.0423  0.1904  0.0413
12021TIP3    H157554   1.900   4.044   1.444 -0.1656  0.3114  0.1361
12021TIP3    H257555   1.764   3.979   1.456 -0.2725  0.6639  0.9591
12022TIP3   OH257556   1.048   3.196   2.942 -0.1834  0.0209 -0.1252
12022TIP3    H157557   1.097   3.129   2.989 -1.1665  0.5430  1.7624
12022TIP3    H257558   1.006   3.248   3.011 -0.3848  1.8754 -1.5492
12023TIP3   OH257559   4.770   3.170  14.743  0.3395  0.1240  0.1183
12023TIP3    H157560   4.720   3.212  14.813  0.3348 -2.6198  1.9129
12023TIP3    H257561   4.849   3.224  14.734  0.8667 -0.0275  3.0675
12024TIP3   OH257562   6.009   5.030   0.692 -0.2833  0.6534 -0.4520
12024TIP3    H157563   5.951   5.097   0.729  0.9557  0.8888  1.2111
12024TIP3    H257564   6.060   5.077   0.626 -0.7301  0.8839 -0.6408
12025TIP3   OH257565   5.320   0.337  13.454 -0.0748  0.4144 -0.0555
12025TIP3    H157566   5.273   0.418  13.433  1.6408  1.1685 -1.2255
12025TIP3    H257567   5.410   0.366  13.472  1.0327 -1.3902 -2.2698
12026TIP3   OH257568   0.193   6.407   2.004  0.5090  0.0294  0.3828
12026TIP3    H157569   0.166   6.400   2.096  0.9991 -0.9968  0.4594
12026TIP3    H257570   0.154   6.332   1.962  0.2462  0.5267 -0.2711
12027TIP3   OH257571   1.447   4.039  13.223 -0.9571 -0.0156  0.4391
12027TIP3    H157572   1.526   4.086  13.196 -1.8255  0.5465 -1.2702
12027TIP3    H257573   1.461   3.949  13.196 -1.4458  0.3669 -1.2119
12028TIP3   OH257574   3.919   5.538  13.065  0.1507  0.3445  0.0689
12028TIP3    H157575   3.946   5.514  12.977  1.4837 -0.2307  0.6051
12028TIP3    H257576   3.875   5.459  13.099 -0.8069  0.7323 -0.2372
12029TIP3   OH257577   1.874   5.488  12.030 -0.0104  0.1807  0.2067
12029TIP3    H157578   1.960   5.452  12.009  0.2049  0.4087  0.6855
12029TIP3    H257579   1.855   5.548  11.958 -1.1535 -2.1537 -1.5405
12030TIP3   OH257580   5.194   0.075   6.419  0.5432 -0.4601  0.1378
12030TIP3    H157581   5.203   0.169   6.433  2.1075 -0.6111  0.2827
12030TIP3    H257582   5.107   0.065   6.380  1.2153  1.2917 -2.0066
12031TIP3   OH257583   2.863   4.236  14.999 -0.2820 -0.4979  0.1405
12031TIP3    H157584   2.851   4.309  15.060  1.0102 -0.8785  0.8855
12031TIP3    H257585   2.927   4.269  14.935  1.7892 -1.5555  1.5647
12032TIP3   OH257586   6.329   6.152  12.309 -0.3292  0.4934  0.5508
12032TIP3    H157587   6.333   6.071  12.257  2.0185  0.6898  0.3239
12032TIP3    H257588   6.325   6.222  12.243  0.2921  0.6508  0.6763
12033TIP3   OH257589   5.389   4.676  15.104 -0.2030  0.3267  0.1517
12033TIP3    H157590   5.442   4.629  15.040  1.2391  0.1376  1.4192
12033TIP3    H257591   5.447   4.688  15.179 -1.0626  2.6877  0.5249
12034TIP3   OH257592   6.454   5.247   5.494  0.2485  0.2592  0.4282
12034TIP3    H157593   6.421   5.197   5.569  0.1027 -0.7539 -0.2974
12034TIP3    H257594   6.501   5.183   5.441  0.4237  0.9839 -0.3103
12035TIP3   OH257595   5.593   5.425  13.491 -0.2300 -0.3557 -0.1982
12035TIP3    H157596   5.606   5.421  13.586  1.2306 -0.8012 -0.3795
12035TIP3    H257597   5.514   5.373  13.475 -0.8505  0.2397  0.8180
12036TIP3   OH257598   4.782   6.500   4.562  0.7861  0.2241 -0.4391
12036TIP3    H157599   4.876   6.502   4.545  1.0458 -1.4211  0.6171
12036TIP3    H257600   4.756   6.410   4.542 -0.9994  1.1327 -2.6711
12037TIP3   OH257601   1.832   0.193   1.893  0.1926 -0.2435 -0.6214
12037TIP3    H157602   1.855   0.281   1.921  0.5048 -0.6284  0.3863
12037TIP3    H257603   1.905   0.164   1.839  1.1245 -0.6723  0.8230
12038TIP3   OH257604   1.101   2.122  12.386 -0.3708 -0.1466  0.1079
12038TIP3    H157605   1.029   2.162  12.435 -1.8238 -3.1527  0.6569
12038TIP3    H257606   1.134   2.053  12.443  0.3394 -1.3783 -1.6882
12039TIP3   OH257607   0.665   2.470  15.754 -0.4128 -0.3899  0.3387
12039TIP3    H157608   0.607   2.460  15.679  0.6094 -0.7363 -0.4224
12039TIP3    H257609   0.692   2.381  15.777  0.7469 -0.1760 -0.0854
12040TIP3   OH257610   4.703   0.549  13.918 -0.4117 -0.6245  0.7603
12040TIP3    H157611   4.612   0.566  13.943 -0.7402  1.1583 -1.3359
12040TIP3    H257612   4.706   0.455  13.899 -2.5828 -0.2847 -1.7604
12041TIP3   OH257613   4.841   0.101   2.878 -0.0451  0.1746  0.4109
12041TIP3    H157614   4.767   0.040   2.879 -0.6286  0.8645  1.5851
12041TIP3    H257615   4.887   0.084   2.960  0.0746  0.9695  0.5104
12042TIP3   OH257616   3.287   4.718  15.281  0.5546  0.2600  0.3702
12042TIP3    H157617   3.310   4.664  15.206 -1.2760 -0.2862  0.1426
12042TIP3    H257618   3.358   4.705  15.344 -0.2986 -3.2685  0.7607
12043TIP3   OH257619   6.234   0.139  13.373 -0.0389 -0.0588 -0.2467
12043TIP3    H157620   6.142   0.156  13.394 -0.0808  0.0359 -0.5053
12043TIP3    H257621   6.274   0.225  13.368  0.4306 -0.1358  1.4503
12044TIP3   OH257622   2.184   6.615   2.549  0.0063 -0.5977  0.8634
12044TIP3    H157623   2.256   6.677   2.536 -0.0756 -0.8849 -1.4682
12044TIP3    H257624   2.227   6.536   2.584  0.8685 -0.7686 -0.5047
12045TIP3   OH257625   6.169   6.654   0.793 -0.5814 -0.2526 -0.6710
12045TIP3    H157626   6.198   6.593   0.861  1.6328  0.4060 -0.9553
12045TIP3    H257627   6.158   6.600   0.716 -0.2975 -0.5681 -0.4939
12046TIP3   OH257628   3.716   2.139  12.920  0.0408 -0.5195 -1.0127
12046TIP3    H157629   3.639   2.161  12.972  0.5321 -0.6448 -0.2199
12046TIP3    H257630   3.695   2.054  12.880  0.8010 -1.9264  1.3838
12047TIP3   OH257631   3.807   6.458  14.576  0.4859 -0.3926 -0.1999
12047TIP3    H157632   3.822   6.432  14.667 -0.7045 -1.4076 -0.2587
12047TIP3    H257633   3.747   6.532  14.582  0.1953 -0.6278 -0.1500
12048TIP3   OH257634   2.473   1.119  11.206  0.0860 -0.0574  0.0393
12048TIP3    H157635   2.408   1.049  11.202 -0.6744  0.6646 -1.9952
12048TIP3    H257636   2.556   1.077  11.184 -0.2730 -0.4412 -0.6296
12049TIP3   OH257637   6.103   2.787   3.182 -0.1210 -0.2549  0.0604
12049TIP3    H157638   6.119   2.859   3.243 -3.6457  0.0711  0.8310
12049TIP3    H257639   6.090   2.711   3.239 -1.2362 -0.4207 -0.4043
12050TIP3   OH257640   5.870   4.825   5.283 -0.5460  0.3764  0.1603
12050TIP3    H157641   5.842   4.779   5.362 -0.6353 -0.2571 -0.2254
12050TIP3    H257642   5.965   4.820   5.284 -0.5689 -1.7325 -0.9300
12051TIP3   OH257643   1.833   4.003   0.715  0.1530  0.4082 -0.4576
12051TIP3    H157644   1.857   3.911   0.721  1.4857  0.8045  0.9309
12051TIP3    H257645   1.745   4.003   0.677 -0.9201 -1.6012  1.7908
12052TIP3   OH257646   0.765   3.565  15.445  0.4950 -0.3662  0.2789
12052TIP3    H157647   0.852   3.585  15.411  0.8208 -1.9794  0.0868
12052TIP3    H257648   0.736   3.647  15.486  1.7914  0.4058 -0.2868
12053TIP3   OH257649   2.487   5.502  15.879  0.0343  0.3759 -0.2026
12053TIP3    H157650   2.434   5.582  15.881  0.5705  0.7230  0.5975
12053TIP3    H257651   2.522   5.499  15.790 -0.3057  0.8154 -0.3565
12054TIP3   OH257652   6.746   3.610  13.839  0.2744 -0.0219 -0.2563
12054TIP3    H157653   6.803   3.644  13.770  0.8107  0.5697  0.4609
12054TIP3    H257654   6.732   3.518  13.815 -0.1352  0.3360 -1.5249
12055TIP3   OH257655   1.790   3.498  12.402  0.0246  0.4579 -0.1604
12055TIP3    H157656   1.740   3.540  12.473 -0.2763  2.5456 -1.5340
12055TIP3    H257657   1.734   3.506  12.325  2.1867  2.3665 -1.6392
12056TIP3   OH257658   1.392   1.042   1.207  0.5330 -0.1884 -0.2083
12056TIP3    H157659   1.322   1.106   1.196  1.1420  0.4883 -0.2507
12056TIP3    H257660   1.470   1.095   1.224  0.8891 -0.9508  0.6279
12057TIP3   OH257661   6.600   1.766   3.633 -0.1679 -0.0241  0.7749
12057TIP3    H157662   6.667   1.804   3.576 -0.0452 -0.0614  0.8918
12057TIP3    H257663   6.572   1.686   3.588 -0.1783  0.0258  0.6943
12058TIP3   OH257664   3.498   5.570  11.683  0.6476 -0.2074 -0.3650
12058TIP3    H157665   3.452   5.531  11.758 -0.3229  0.7090 -0.4429
12058TIP3    H257666   3.462   5.659  11.678  0.6707 -0.2612 -1.9370
12059TIP3   OH257667   4.027   5.198  11.458 -0.5765  0.0073  0.1668
12059TIP3    H157668   4.024   5.111  11.420  0.9007  0.5027 -1.1717
12059TIP3    H257669   4.014   5.184  11.552 -0.1912 -1.6592 -0.0096
12060TIP3   OH257670   0.814   3.390   2.587  0.0299 -0.2839  0.5902
12060TIP3    H157671   0.811   3.403   2.682  1.1439  0.5182  0.5426
12060TIP3    H257672   0.886   3.328   2.574 -1.8315 -2.5341  0.4162
12061TIP3   OH257673   5.081   2.158   4.765  0.4910  0.0237 -0.2297
12061TIP3    H157674   5.039   2.072   4.769 -0.8575  0.6753  0.3855
12061TIP3    H257675   5.100   2.171   4.672  0.4375 -0.8045 -0.3653
12062TIP3   OH257676   4.500   3.646   1.748  0.5203  0.1966  0.1594
12062TIP3    H157677   4.460   3.655   1.835  1.2050  0.3049  0.4671
12062TIP3    H257678   4.435   3.683   1.688  0.6333  1.4458  0.7701
12063TIP3   OH257679   0.260   5.281   1.779 -0.1906 -0.0413 -0.0259
12063TIP3    H157680   0.260   5.337   1.857  0.2777  0.8656 -0.6540
12063TIP3    H257681   0.206   5.206   1.803  0.2597  0.0338  1.3056
12064TIP3   OH257682   2.824   5.242  13.979 -0.4049 -0.3422  0.3202
12064TIP3    H157683   2.807   5.191  14.058  0.6544 -2.1505 -0.5505
12064TIP3    H257684   2.837   5.176  13.911  0.8030  1.1156 -0.9245
12065TIP3   OH257685   4.734   5.822   6.437  0.1661  0.0764  0.1228
12065TIP3    H157686   4.646   5.850   6.461 -0.1319 -1.1238  0.4987
12065TIP3    H257687   4.740   5.839   6.343  0.0097  1.3429  0.3208
12066TIP3   OH257688   5.618   1.662   5.022  0.2751  0.3013 -0.6377
12066TIP3    H157689   5.695   1.687   5.072  1.1354 -1.0096 -1.2699
12066TIP3    H257690   5.640   1.681   4.931  0.2450 -0.9597 -0.9271
12067TIP3   OH257691   1.137   2.470   5.808 -0.3430 -0.0326  0.1146
12067TIP3    H157692   1.052   2.465   5.852 -0.5227 -0.6060 -0.2906
12067TIP3    H257693   1.148   2.564   5.789 -0.9632  0.0247  0.0144
12068TIP3   OH257694   3.191   0.747  17.038 -0.1927 -0.3679 -0.5371
12068TIP3    H157695   3.198   0.661  17.080 -2.7329 -1.4105 -1.9727
12068TIP3    H257696   3.169   0.726  16.947 -2.2696  1.7662 -0.6193
12069TIP3   OH257697   5.791   3.891   4.888  0.2410  0.5590 -0.5053
12069TIP3    H157698   5.755   3.808   4.856  1.4061 -1.0256  1.9277
12069TIP3    H257699   5.716   3.935   4.930  0.1237 -0.4823  0.4103
12070TIP3   OH257700   1.088   5.124  16.100 -0.0058 -0.2510  0.3251
12070TIP3    H157701   1.105   5.057  16.035 -1.0521  0.4356 -0.6912
12070TIP3    H257702   1.125   5.089  16.181  0.3848 -1.5767 -0.4050
12071TIP3   OH257703   3.591   6.151  15.724  0.1611 -0.1758 -0.6011
12071TIP3    H157704   3.583   6.060  15.696  0.9664  0.0382 -1.5625
12071TIP3    H257705   3.671   6.153  15.777  0.5406  0.1137 -1.1799
12072TIP3   OH257706   4.822   4.269  15.246 -0.1517  0.6095 -0.5315
12072TIP3    H157707   4.771   4.188  15.252 -0.6727  0.9828  0.3434
12072TIP3    H257708   4.789   4.312  15.167 -0.8656  0.6183 -0.2371
12073TIP3   OH257709   3.413   3.525   6.651 -0.1016 -0.1562 -0.3364
12073TIP3    H157710   3.358   3.447   6.645  0.6613 -0.8056  0.7436
12073TIP3    H257711   3.496   3.499   6.611  0.1661  0.0943  0.0522
12074TIP3   OH257712   4.287   5.448   5.544 -0.5508  0.4227 -0.2424
12074TIP3    H157713   4.359   5.388   5.563 -0.4339  0.5677 -0.2309
12074TIP3    H257714   4.327   5.520   5.495 -0.9720 -0.3588 -1.8075
12075TIP3   OH257715   1.966   0.093  13.119 -0.5361 -0.1440  0.3730
12075TIP3    H157716   1.874   0.113  13.137 -0.4748  0.7713 -0.2778
12075TIP3    H257717   1.991   0.032  13.189 -1.4439  0.1299  0.9559
12076TIP3   OH257718   2.265   1.580  16.317  0.2397 -0.3498  0.5026
12076TIP3    H157719   2.242   1.653  16.374 -3.1747 -0.0923 -0.9774
12076TIP3    H257720   2.231   1.503  16.361  0.9547 -0.6588  0.5330
12077TIP3   OH257721   2.793   4.458  15.166  0.3142  0.2127  0.3070
12077TIP3    H157722   2.754   4.511  15.235  0.3978  0.0567  0.4755
12077TIP3    H257723   2.758   4.494  15.085  1.5625  1.5202  0.3170
12078TIP3   OH257724   0.853   4.532  10.695  0.0310  0.2535 -0.1851
12078TIP3    H157725   0.847   4.458  10.756  0.8316 -0.8151 -1.3427
12078TIP3    H257726   0.789   4.513  10.627 -0.8489  1.4328  0.2744
12079TIP3   OH257727   3.895   3.966   5.572 -0.2687 -0.5860  0.3426
12079TIP3    H157728   3.938   3.904   5.512 -0.7773 -1.2402  0.6490
12079TIP3    H257729   3.864   3.913   5.645 -2.8718 -0.3934 -0.5118
12080TIP3   OH257730   3.284   2.718   1.954 -0.2019  0.6488  0.8251
12080TIP3    H157731   3.317   2.708   2.044 -0.4393 -1.6785  0.7009
12080TIP3    H257732   3.353   2.767   1.909  1.3975 -0.8358  1.5215
12081TIP3   OH257733   1.137   1.144  14.429  0.3375  0.1257  1.3364
12081TIP3    H157734   1.220   1.143  14.381 -0.6969  1.2227 -0.6231
12081TIP3    H257735   1.112   1.237  14.431 -0.9258 -0.2066  1.6994
12082TIP3   OH257736   1.216   0.799   0.310  0.4173  0.2452  0.0948
12082TIP3    H157737   1.275   0.834   0.243 -0.0194 -0.3261 -0.6020
12082TIP3    H257738   1.129   0.807   0.272  0.0832  0.5933  0.9052
12083TIP3   OH257739   6.597   4.928   5.091  0.0300  0.2083 -0.3737
12083TIP3    H157740   6.693   4.925   5.087  0.0993 -2.0808  1.1659
12083TIP3    H257741   6.568   4.890   5.008  0.5019 -0.1056 -0.4000
12084TIP3   OH257742   3.717   1.955  12.334 -0.4110  0.0062 -0.1999
12084TIP3    H157743   3.668   1.881  12.369 -1.4340 -0.1240 -1.8012
12084TIP3    H257744   3.705   2.025  12.398  0.9177 -1.2848  1.5588
12085TIP3   OH257745   5.873   2.067   3.329 -0.4603  0.0519  0.4973
12085TIP3    H157746   5.894   2.138   3.390 -0.9043 -1.0696  2.0074
12085TIP3    H257747   5.932   2.082   3.254  1.4192  0.4483  1.9741
12086TIP3   OH257748   6.450   1.057  13.934  0.0796  0.1118 -0.4115
12086TIP3    H157749   6.423   1.127  13.874 -2.0193 -0.2483  0.0153
12086TIP3    H257750   6.545   1.065  13.939  0.1257  1.4011 -2.2284
12087TIP3   OH257751   1.598   0.130  15.738 -0.2633 -0.1512 -0.1282
12087TIP3    H157752   1.632   0.040  15.738 -1.3377 -0.5891  1.4399
12087TIP3    H257753   1.511   0.122  15.700  0.5177  0.6497 -2.2214
12088TIP3   OH257754   5.354   5.594  16.272 -0.3859 -0.0330 -0.4140
12088TIP3    H157755   5.389   5.625  16.355 -1.2898  1.2228 -0.4766
12088TIP3    H257756   5.279   5.540  16.296  0.8254 -1.7573 -0.3338
12089TIP3   OH257757   4.938   1.661  14.083  0.8471  0.6184  0.4935
12089TIP3    H157758   4.985   1.720  14.023  1.7777 -1.0894 -0.5630
12089TIP3    H257759   4.917   1.585  14.029 -0.7288  0.1690  1.6889
12090TIP3   OH257760   2.445   6.081   1.923  0.0685  0.1064 -0.2449
12090TIP3    H157761   2.500   6.117   1.992 -1.7682 -1.9735  2.4879
12090TIP3    H257762   2.506   6.036   1.864  1.5048  0.1915  1.1224
12091TIP3   OH257763   6.411   4.316   2.856  0.6190 -0.0143 -0.3469
12091TIP3    H157764   6.453   4.266   2.926 -0.0914 -0.2669 -0.0855
12091TIP3    H257765   6.317   4.299   2.868  0.4709  0.1574 -1.1919
12092TIP3   OH257766   5.985   4.888   1.853  0.3892 -0.5569  0.5928
12092TIP3    H157767   6.042   4.874   1.928  1.3970 -0.9227 -0.2223
12092TIP3    H257768   6.043   4.922   1.785 -0.2744 -1.3448 -0.3862
12093TIP3   OH257769   3.327   1.808   1.357 -0.5224  0.2330  0.4220
12093TIP3    H157770   3.288   1.721   1.358  0.5597 -0.5197 -3.7594
12093TIP3    H257771   3.281   1.855   1.287  0.7534  2.0666  0.7300
12094TIP3   OH257772   3.387   0.890  15.159  0.1531 -0.1942  0.4655
12094TIP3    H157773   3.339   0.810  15.139  0.3997 -0.3005  0.2988
12094TIP3    H257774   3.418   0.878  15.249 -0.7704  0.1926  0.8456
12095TIP3   OH257775   1.520   0.025   2.377  0.0022 -0.0575 -0.3992
12095TIP3    H157776   1.543  -0.046   2.436  0.8068  0.3952 -0.1614
12095TIP3    H257777   1.427   0.010   2.357 -0.1259 -0.5487  0.5047
12096TIP3   OH257778   2.623   2.426   0.894 -0.1413  0.1173 -0.0729
12096TIP3    H157779   2.659   2.367   0.827 -0.9968 -1.1764  0.5683
12096TIP3    H257780   2.609   2.509   0.847  1.5760  0.0161 -0.8653
12097TIP3   OH257781   6.793   3.399  14.215 -0.4959  0.4656 -0.1754
12097TIP3    H157782   6.761   3.398  14.305 -1.9538  2.1581 -0.6266
12097TIP3    H257783   6.876   3.447  14.219 -0.4421  0.3358  0.2753
12098TIP3   OH257784   5.574   0.732   2.534 -0.0032 -0.1319  0.1885
12098TIP3    H157785   5.648   0.714   2.475  1.1929 -1.2223  1.9326
12098TIP3    H257786   5.505   0.674   2.502  0.9066 -1.3332  0.3128
12099TIP3   OH257787   5.879   4.286  11.120  0.4985 -0.0942  0.1276
12099TIP3    H157788   5.851   4.206  11.166 -2.8671 -0.9083 -2.8688
12099TIP3    H257789   5.844   4.358  11.173 -0.3193 -0.8286  0.6123
12100TIP3   OH257790   4.139   1.524  16.180  0.3416 -0.0282  1.0691
12100TIP3    H157791   4.104   1.556  16.264  1.3513  2.9247  0.4709
12100TIP3    H257792   4.071   1.545  16.116  0.0532 -1.2473  0.9564
12101TIP3   OH257793   0.908   3.787   5.694  0.2819  0.2677  0.0887
12101TIP3    H157794   0.899   3.797   5.789  1.4315 -0.2360  0.2586
12101TIP3    H257795   0.843   3.847   5.658 -0.4369  0.1863  1.1951
12102TIP3   OH257796   3.648   6.579   5.147 -0.1883  0.5154  0.0335
12102TIP3    H157797   3.635   6.486   5.167 -0.1164  0.9569  2.4038
12102TIP3    H257798   3.714   6.579   5.077  2.2538 -1.1768  2.1692
12103TIP3   OH257799   4.710   3.276  15.551 -0.2136  0.9379 -0.1869
12103TIP3    H157800   4.714   3.246  15.642  1.4504 -0.4951 -0.6663
12103TIP3    H257801   4.658   3.209  15.506 -0.0646  1.0260 -0.4927
12104TIP3   OH257802   5.408   3.236  15.971 -0.8013 -0.5850  0.6132
12104TIP3    H157803   5.403   3.141  15.985 -1.2491 -0.8035 -0.8095
12104TIP3    H257804   5.418   3.273  16.058 -0.1974 -1.9713  1.1588
12105TIP3   OH257805   3.445   6.069  10.254 -0.3429  0.1040  0.9528
12105TIP3    H157806   3.354   6.040  10.257 -0.0927 -0.6350  1.7763
12105TIP3    H257807   3.486   6.027  10.329  0.3135  1.7077  1.5291
12106TIP3   OH257808   0.405   3.007  14.125  0.4476 -0.2625 -0.0179
12106TIP3    H157809   0.478   2.985  14.068  2.3497  1.9583  1.3808
12106TIP3    H257810   0.405   2.938  14.192  1.9076  0.1618  0.4637
12107TIP3   OH257811   1.962   3.739  11.158  0.1092  0.0929  0.0996
12107TIP3    H157812   2.022   3.811  11.177  2.4689 -0.4730 -4.0109
12107TIP3    H257813   2.019   3.665  11.136 -2.1298 -1.3953 -1.1582
12108TIP3   OH257814   4.091   3.259   1.733  0.4025 -0.0093  0.0357
12108TIP3    H157815   4.121   3.349   1.745  1.5721 -0.3168 -0.4594
12108TIP3    H257816   3.996   3.264   1.744  0.6210  0.9562  1.8645
12109TIP3   OH257817   5.888   5.235   0.212 -0.9638  0.3276  0.6943
12109TIP3    H157818   5.852   5.154   0.177 -3.2787  1.7772 -0.4936
12109TIP3    H257819   5.859   5.236   0.304  1.3889 -1.3768  1.5636
12110TIP3   OH257820   2.567   5.794  15.697 -0.1118  0.5126 -1.0293
12110TIP3    H157821   2.622   5.773  15.621  1.0747 -0.6617  0.1186
12110TIP3    H257822   2.483   5.819  15.659  0.9460  1.5907 -2.8120
12111TIP3   OH257823   5.382   3.050  11.842 -0.2260 -0.4253  0.0605
12111TIP3    H157824   5.469   3.036  11.806 -0.0737 -0.4867  0.4467
12111TIP3    H257825   5.365   2.973  11.896 -0.4055 -0.2873  0.2061
12112TIP3   OH257826   3.782   0.059   2.053  0.3154  0.3056 -0.8694
12112TIP3    H157827   3.760   0.131   2.111 -0.9491 -0.8010  0.0800
12112TIP3    H257828   3.737  -0.017   2.090  2.1385 -1.1465 -1.4443
12113TIP3   OH257829   2.221   5.576  14.897 -0.1466 -0.1371  0.5101
12113TIP3    H157830   2.183   5.625  14.970  0.8900  0.7578  0.4651
12113TIP3    H257831   2.285   5.635  14.859 -0.5192 -0.6682 -1.0141
12114TIP3   OH257832   5.787   5.791   0.372 -0.1773  0.1066  0.0558
12114TIP3    H157833   5.820   5.863   0.319  1.5012 -0.8531 -0.2544
12114TIP3    H257834   5.852   5.779   0.441  0.0674 -1.6929 -0.4339
12115TIP3   OH257835   2.792   6.108  15.607  0.7577  0.7679  0.5117
12115TIP3    H157836   2.815   6.113  15.514 -1.4860  1.1968 -0.0753
12115TIP3    H257837   2.697   6.095  15.608  0.6901  0.9956  2.7638
12116TIP3   OH257838   1.052   4.607   4.758 -0.0849 -0.8932 -0.0621
12116TIP3    H157839   1.051   4.512   4.768  0.5171 -1.0399 -1.1799
12116TIP3    H257840   1.137   4.634   4.792 -1.3933 -0.3515  3.0782
12117TIP3   OH257841   2.250   6.686  10.623 -0.1489 -1.4058 -0.2782
12117TIP3    H157842   2.218   6.608  10.577 -0.6649 -0.2623 -1.9375
12117TIP3    H257843   2.343   6.691  10.601 -0.0101 -1.7796  0.1976
12118TIP3   OH257844   1.632   2.597   4.403  0.2848 -0.6066  0.0102
12118TIP3    H157845   1.579   2.677   4.399  0.1887 -0.6860 -0.3736
12118TIP3    H257846   1.675   2.601   4.488  0.2932 -0.1334 -0.0119
12119TIP3   OH257847   3.675   1.430   1.957 -0.0524  0.1305  0.2438
12119TIP3    H157848   3.684   1.472   1.871  1.8429  0.1496  0.4016
12119TIP3    H257849   3.765   1.409   1.982 -0.4331  1.1916  2.7565
12120TIP3   OH257850   1.512   5.160  17.266  0.2609  0.0415  0.2830
12120TIP3    H157851   1.476   5.227  17.208 -0.3959 -1.9239 -1.7611
12120TIP3    H257852   1.585   5.202  17.310 -0.9808  2.4824  0.1990
12121TIP3   OH257853   6.150   5.850   0.025  0.5515  0.0023 -0.6409
12121TIP3    H157854   6.182   5.813  -0.057  1.1493  2.4856 -1.6155
12121TIP3    H257855   6.093   5.782   0.061  2.5298 -2.3484 -1.6220
12122TIP3   OH257856   6.088   2.537  14.712  0.2509 -0.6086 -0.4449
12122TIP3    H157857   5.999   2.552  14.678  1.1454  0.9343 -2.3234
12122TIP3    H257858   6.138   2.612  14.680  1.9059 -0.6074  1.9420
12123TIP3   OH257859   3.697   4.708  13.424  0.2552  0.1187 -0.3369
12123TIP3    H157860   3.789   4.734  13.419  0.8380 -1.7229  0.0175
12123TIP3    H257861   3.695   4.639  13.490 -1.5159  0.6201  0.1768
12124TIP3   OH257862   2.466   3.757   1.300 -0.0196  0.4442 -0.2052
12124TIP3    H157863   2.441   3.682   1.354 -0.9428  1.8218  1.3486
12124TIP3    H257864   2.561   3.749   1.290  0.1715  0.0886  1.5770
12125TIP3   OH257865   3.347   5.164   4.078 -0.1848 -0.6663 -0.1180
12125TIP3    H157866   3.287   5.238   4.079  1.3182  0.6341  1.5027
12125TIP3    H257867   3.433   5.203   4.061  0.8577 -1.7697  2.1774
12126TIP3   OH257868   0.691   0.723   4.446  0.2647  0.1297  0.1623
12126TIP3    H157869   0.641   0.776   4.384  0.6325  1.0304  0.6256
12126TIP3    H257870   0.772   0.701   4.399  2.0109  3.4333  1.2870
12127TIP3   OH257871   3.030   3.326   1.315  0.2638  0.2485  0.4827
12127TIP3    H157872   3.049   3.237   1.343 -1.5246 -0.2598  0.2132
12127TIP3    H257873   3.081   3.338   1.235 -1.3071 -1.4556 -0.8745
12128TIP3   OH257874   2.072   1.019   3.408 -0.3506  0.1927 -0.3291
12128TIP3    H157875   2.099   1.012   3.317  0.7895 -0.6998  0.0496
12128TIP3    H257876   2.146   1.061   3.452  0.1122 -1.5095  0.5834
12129TIP3   OH257877   2.384   3.928   4.510 -0.5011  0.0177 -0.4054
12129TIP3    H157878   2.420   4.002   4.559  2.5472 -1.8912  0.4670
12129TIP3    H257879   2.394   3.953   4.418  0.0891  0.8339 -0.1282
12130TIP3   OH257880   5.843   4.533  12.947 -0.1415  0.5445 -0.2085
12130TIP3    H157881   5.857   4.438  12.953  2.1471  0.7903 -0.8235
12130TIP3    H257882   5.930   4.571  12.957 -0.9876  2.5945 -0.1919
12131TIP3   OH257883   4.572   6.122   4.083  0.2697 -0.3973 -0.0368
12131TIP3    H157884   4.491   6.165   4.108  0.1440 -0.6684  0.0202
12131TIP3    H257885   4.635   6.149   4.150  0.4330  0.4514 -0.5171
12132TIP3   OH257886   4.505   3.823  16.561 -0.3598  0.6687  0.0160
12132TIP3    H157887   4.580   3.883  16.566 -0.8482  1.2704  0.1971
12132TIP3    H257888   4.440   3.871  16.511  0.0236 -0.5602 -1.7504
12133TIP3   OH257889   4.199   3.572   4.331 -0.1947 -0.4359 -0.0013
12133TIP3    H157890   4.151   3.507   4.279  2.5091 -0.5019 -2.6883
12133TIP3    H257891   4.141   3.649   4.332 -1.1280 -1.0640 -1.6269
12134TIP3   OH257892   6.563   2.134  16.479  0.4563  0.4949  0.6315
12134TIP3    H157893   6.486   2.089  16.513  0.1850 -0.1855 -0.7915
12134TIP3    H257894   6.528   2.194  16.413  1.2325 -1.6403 -1.9381
12135TIP3   OH257895   3.801   0.365  10.906 -0.2297 -0.2842 -0.3728
12135TIP3    H157896   3.825   0.280  10.868  0.6975 -0.4533  0.5421
12135TIP3    H257897   3.878   0.391  10.957 -0.9244  0.5795  0.2641
12136TIP3   OH257898   6.309   1.281   1.891 -1.1177  0.2808  0.1944
12136TIP3    H157899   6.266   1.233   1.820 -1.6629 -0.5296  1.0576
12136TIP3    H257900   6.321   1.216   1.960  1.3133  0.5237  0.0878
12137TIP3   OH257901   3.556   4.689  16.232 -0.2847 -0.0827  0.4415
12137TIP3    H157902   3.572   4.654  16.145  0.8491 -1.1742  1.0645
12137TIP3    H257903   3.462   4.708  16.233 -0.5576 -1.2676 -0.5903
12138TIP3   OH257904   0.765   0.863   3.110  0.1222  0.8611 -0.3340
12138TIP3    H157905   0.823   0.919   3.058 -0.0880  1.8612  0.4654
12138TIP3    H257906   0.695   0.921   3.138  0.6636  0.5908  1.7562
12139TIP3   OH257907   0.808   6.811   2.167 -0.1375 -0.2697 -0.6464
12139TIP3    H157908   0.847   6.878   2.112 -0.0353  0.0224 -0.2178
12139TIP3    H257909   0.851   6.821   2.252 -1.4059  0.3240 -0.0449
12140TIP3   OH257910   5.121   3.263  15.731 -0.2486  0.6477  0.6968
12140TIP3    H157911   5.045   3.225  15.686 -0.0014 -0.1671  0.9576
12140TIP3    H257912   5.085   3.337  15.780 -1.3232 -1.0556  2.6340
12141TIP3   OH257913   4.351   5.487  13.904  0.1083 -1.0527 -0.3388
12141TIP3    H157914   4.302   5.430  13.963  1.8936 -0.6683  1.6228
12141TIP3    H257915   4.288   5.555  13.878 -1.1100 -2.0407 -0.0469
12142TIP3   OH257916   3.383   0.130  10.302 -0.5201 -0.7923  0.1263
12142TIP3    H157917   3.462   0.173  10.268 -0.3673 -1.9564 -1.1097
12142TIP3    H257918   3.368   0.170  10.387  0.6958  0.3285 -0.1573
12143TIP3   OH257919   5.424   3.979  11.334  0.7194  0.3890 -0.0811
12143TIP3    H157920   5.379   3.906  11.376  0.7812 -0.6027 -1.6605
12143TIP3    H257921   5.508   3.985  11.381  0.0949  0.4373  1.0469
12144TIP3   OH257922   1.479   5.989   0.480  0.0781  0.3129  0.0125
12144TIP3    H157923   1.434   5.962   0.560  0.3971 -0.2082  0.0232
12144TIP3    H257924   1.436   6.071   0.455  1.2187  1.5051  1.7348
12145TIP3   OH257925   3.211   6.560   0.203  0.1903 -0.0141  0.2903
12145TIP3    H157926   3.174   6.484   0.159  1.3074 -0.4064  0.0155
12145TIP3    H257927   3.205   6.631   0.139  1.6253 -0.5333 -0.4605
12146TIP3   OH257928   4.171   4.258   5.445 -0.3593 -0.3763 -0.0000
12146TIP3    H157929   4.144   4.183   5.393 -2.7499 -0.0453  0.6465
12146TIP3    H257930   4.247   4.293   5.398 -1.2529 -1.1909 -2.2217
12147TIP3   OH257931   0.451   2.723   4.071  0.6406 -0.3701 -0.3853
12147TIP3    H157932   0.440   2.672   3.992  1.7226 -2.0142  0.4788
12147TIP3    H257933   0.515   2.791   4.047 -0.4514  0.3442 -1.4008
12148TIP3   OH257934   3.560   5.046  12.600  0.5450  0.0576 -0.0832
12148TIP3    H157935   3.511   5.114  12.648 -0.9570 -0.2591 -1.0843
12148TIP3    H257936   3.544   4.966  12.650 -2.9497 -0.7459 -2.1538
12149TIP3   OH257937   4.739   4.705  16.628  0.3407  0.1263  0.0825
12149TIP3    H157938   4.669   4.760  16.591  0.5558  0.3774  0.0424
12149TIP3    H257939   4.799   4.691  16.555  0.1093 -0.4564  0.0047
12150TIP3   OH257940   0.568   1.961  16.197  0.2514 -0.1555  0.4463
12150TIP3    H157941   0.612   1.998  16.120 -0.3840 -1.6593 -0.7215
12150TIP3    H257942   0.516   1.889  16.161  1.0745 -1.8739  2.4839
12151TIP3   OH257943   1.367   1.900   5.972  0.0081 -0.2342 -0.0895
12151TIP3    H157944   1.376   1.898   5.876 -2.5507 -0.3294 -0.4075
12151TIP3    H257945   1.408   1.819   6.001  1.4783  0.1431 -1.0145
12152TIP3   OH257946   3.555   1.950   2.279  0.0719  0.2605  0.2877
12152TIP3    H157947   3.485   2.014   2.296  1.1931  1.4652  0.5621
12152TIP3    H257948   3.584   1.969   2.190 -1.4917 -1.8131 -0.7469
12153TIP3   OH257949   2.969   6.563  15.992  0.0936 -0.3381 -0.0940
12153TIP3    H157950   2.918   6.644  16.003 -1.4262 -0.7915 -2.8669
12153TIP3    H257951   2.903   6.495  15.976  1.2794 -2.3886  2.8344
12154TIP3   OH257952   6.383   6.642  16.016 -0.2152  0.2685  0.0695
12154TIP3    H157953   6.403   6.734  15.998 -0.4597  0.7018  1.7741
12154TIP3    H257954   6.443   6.618  16.087  0.7243 -1.2986 -1.1965
12155TIP3   OH257955   3.680   6.665   4.779 -0.3473  0.6851  0.4872
12155TIP3    H157956   3.590   6.645   4.806 -0.0010  0.6392  1.6311
12155TIP3    H257957   3.717   6.714   4.852  0.5280  0.8199 -0.0320
12156TIP3   OH257958   1.493   5.204  16.187  0.2761  0.3266  0.1032
12156TIP3    H157959   1.522   5.287  16.150 -0.5571  0.5029 -0.1763
12156TIP3    H257960   1.465   5.226  16.277 -0.3880  0.4481 -0.1270
12157TIP3   OH257961   4.697   5.706   1.448 -0.0314 -0.7512 -0.0353
12157TIP3    H157962   4.674   5.697   1.355  0.0339  1.0742 -0.2600
12157TIP3    H257963   4.725   5.618   1.474  0.3933 -1.2056 -1.8761
12158TIP3   OH257964   5.587   5.809  15.124  0.0901 -0.2158 -0.3535
12158TIP3    H157965   5.645   5.839  15.194 -1.1423 -1.1396  1.1488
12158TIP3    H257966   5.615   5.857  15.047  1.8079  0.5172  0.6645
12159TIP3   OH257967   1.719   2.690   6.197 -0.8599 -0.3593 -0.2231
12159TIP3    H157968   1.735   2.625   6.266 -0.9777 -1.0131 -0.8043
12159TIP3    H257969   1.805   2.725   6.176 -0.8755  0.2114  0.5967
12160TIP3   OH257970   3.443   4.251   0.675 -0.3007  0.4892 -0.0752
12160TIP3    H157971   3.383   4.305   0.625 -0.6551 -0.1906 -0.4026
12160TIP3    H257972   3.390   4.177   0.705  0.5133 -0.4891 -0.9573
12161TIP3   OH257973   4.549   1.452  12.882  0.4482  0.2347 -0.5719
12161TIP3    H157974   4.627   1.447  12.827  2.5246 -1.0985  2.2384
12161TIP3    H257975   4.578   1.500  12.960 -2.1698  1.4889 -0.2814
12162TIP3   OH257976   2.919   6.263  14.722 -0.0503  0.8733 -0.6987
12162TIP3    H157977   2.960   6.342  14.757  1.0750  0.3688 -0.8307
12162TIP3    H257978   2.989   6.198  14.721 -1.0876 -0.2994 -0.0626
12163TIP3   OH257979   1.231   1.506  13.393  0.0734  0.2104  0.0929
12163TIP3    H157980   1.301   1.557  13.352 -0.9102  0.4292 -1.3927
12163TIP3    H257981   1.277   1.441  13.446  1.3808  1.0948  0.1062
12164TIP3   OH257982   0.987   5.985  11.573 -0.2306  0.1100 -0.1601
12164TIP3    H157983   0.962   6.016  11.660  0.7586 -0.5991  0.3959
12164TIP3    H257984   0.907   5.945  11.538 -0.2473 -1.0342  1.0906
12165TIP3   OH257985   4.723   2.420  15.519  0.0793 -0.3809  0.5200
12165TIP3    H157986   4.722   2.503  15.565 -2.8752 -0.1576  0.2671
12165TIP3    H257987   4.767   2.438  15.436  0.3511  0.6520  0.8812
12166TIP3   OH257988   2.090   2.753  13.371  0.2051 -0.0046 -0.4938
12166TIP3    H157989   2.126   2.840  13.390  1.5347 -0.5833 -0.2486
12166TIP3    H257990   2.084   2.711  13.457 -0.7346 -0.0669 -0.5737
12167TIP3   OH257991   3.154   6.692  16.144  0.5554  0.2568 -0.0508
12167TIP3    H157992   3.208   6.636  16.199 -1.1555  0.9309  2.4491
12167TIP3    H257993   3.096   6.632  16.098 -1.4738 -0.1936  2.8288
12168TIP3   OH257994   3.116   4.246   1.520  0.1852 -0.3094  0.1737
12168TIP3    H157995   3.101   4.276   1.610 -1.3013 -3.3767  1.0542
12168TIP3    H257996   3.040   4.193   1.498  1.7704 -1.9251 -1.8720
12169TIP3   OH257997   1.461   2.206  14.707  0.2196  0.6736 -0.2644
12169TIP3    H157998   1.375   2.245  14.692  1.2202  2.5796 -1.3567
12169TIP3    H257999   1.484   2.230  14.796 -0.6297 -0.4311  0.2806
12170TIP3   OH258000   0.969   2.920   4.577  0.6399  0.0911 -0.1222
12170TIP3    H158001   0.937   2.837   4.542  1.3688 -0.2378 -0.0356
12170TIP3    H258002   0.928   2.927   4.663  0.4999 -0.1360 -0.1694
12171TIP3   OH258003   2.828   4.655   3.668  0.1384  0.0637  0.2815
12171TIP3    H158004   2.856   4.722   3.729 -1.1698  1.2140 -0.3250
12171TIP3    H258005   2.906   4.602   3.652  1.8544  2.7391 -0.8928
12172TIP3   OH258006   6.281   6.744   4.648 -0.4193  0.1120  0.0445
12172TIP3    H158007   6.320   6.785   4.724 -1.9608  0.4902  0.6814
12172TIP3    H258008   6.264   6.653   4.674 -0.6717  0.1602  0.0558
12173TIP3   OH258009   4.835   3.375  10.745  0.1424  0.2427 -0.1293
12173TIP3    H158010   4.792   3.362  10.830  1.2364 -0.9584  0.2866
12173TIP3    H258011   4.919   3.329  10.754  0.8841  1.2928 -1.3924
12174TIP3   OH258012   1.562   1.522   2.690  0.4812  0.5392  0.1571
12174TIP3    H158013   1.630   1.460   2.716  2.4925  2.9873  1.0474
12174TIP3    H258014   1.608   1.604   2.674 -1.7489  1.3064 -3.3260
12175TIP3   OH258015   5.803   1.160  14.476 -0.4660  1.1012  0.6869
12175TIP3    H158016   5.724   1.139  14.427  1.7171 -2.6945 -1.7892
12175TIP3    H258017   5.861   1.201  14.411  1.0501 -0.2621  1.0989
12176TIP3   OH258018   0.172   1.973  16.936  0.6327 -0.2274 -0.1480
12176TIP3    H158019   0.257   1.991  16.896 -0.6819  2.9597 -1.8790
12176TIP3    H258020   0.109   2.021  16.882 -2.4740 -3.1844  0.4671
12177TIP3   OH258021   5.484   0.574  12.432  0.6622 -0.4371  0.0409
12177TIP3    H158022   5.508   0.507  12.368 -1.7516  0.0697 -1.5292
12177TIP3    H258023   5.417   0.532  12.486  0.6490  0.0437  0.3979
12178TIP3   OH258024   3.566   6.064  13.374  0.0867 -0.0686 -0.3871
12178TIP3    H158025   3.594   5.989  13.321 -0.7360 -1.2918  0.8016
12178TIP3    H258026   3.591   6.040  13.464 -2.3546 -0.0975  0.3625
12179TIP3   OH258027   0.157   2.766  13.305 -0.2945 -0.0736  0.2278
12179TIP3    H158028   0.196   2.692  13.352  0.5502  0.1901 -0.0303
12179TIP3    H258029   0.196   2.761  13.217 -2.1797 -0.8230 -0.6116
12180TIP3   OH258030   5.754   5.282   5.909 -0.0651  0.0739 -0.6088
12180TIP3    H158031   5.758   5.370   5.871  0.0347 -0.2858 -1.4502
12180TIP3    H258032   5.826   5.235   5.868 -0.0048 -0.3567 -0.0249
12181TIP3   OH258033   4.766   5.624  14.215 -0.0773 -0.0248  0.3774
12181TIP3    H158034   4.672   5.610  14.209 -0.3117  1.5135  0.0635
12181TIP3    H258035   4.803   5.536  14.212 -1.5133 -0.6876  1.0326
12182TIP3   OH258036   4.273   5.440   2.360  0.2129 -0.0610 -0.1536
12182TIP3    H158037   4.364   5.422   2.335  0.2577 -1.5008  0.9472
12182TIP3    H258038   4.225   5.362   2.334 -0.3729 -0.0785  0.9461
12183TIP3   OH258039   3.745   0.511  12.381 -0.1963  0.6430 -0.4212
12183TIP3    H158040   3.745   0.431  12.433  0.5154  0.1065 -1.2220
12183TIP3    H258041   3.695   0.489  12.303  0.8067  0.6625 -1.0886
12184TIP3   OH258042   0.556   4.175   2.333 -0.3065  0.0787  0.4457
12184TIP3    H158043   0.645   4.160   2.301 -0.2881 -0.5507  0.7807
12184TIP3    H258044   0.511   4.091   2.322 -0.8263  0.3534  0.3948
12185TIP3   OH258045   1.608   3.271   0.342 -0.3575  0.2339  0.0591
12185TIP3    H158046   1.581   3.181   0.325  1.1483 -0.4224  1.0131
12185TIP3    H258047   1.612   3.312   0.256  1.4536 -1.3548 -0.6729
12186TIP3   OH258048   5.003   5.581  10.730  0.4699 -0.2288  0.1816
12186TIP3    H158049   4.910   5.582  10.753  0.3675 -0.3938 -0.2210
12186TIP3    H258050   5.006   5.541  10.644  0.8908  0.0120  0.0828
12187TIP3   OH258051   1.188   4.406   1.978  0.2365 -0.4711 -0.2910
12187TIP3    H158052   1.112   4.419   1.921 -0.0635  0.8992  0.3812
12187TIP3    H258053   1.189   4.483   2.035  2.2098 -0.3949 -0.3609
12188TIP3   OH258054   2.536   2.290  16.866 -0.4177 -0.6655  0.3665
12188TIP3    H158055   2.564   2.233  16.937  2.0286  0.2536  0.2336
12188TIP3    H258056   2.558   2.241  16.786 -0.8017 -0.6360  0.2398
12189TIP3   OH258057   4.706   4.620  12.552  0.1725  0.5639  0.2326
12189TIP3    H158058   4.627   4.632  12.501  1.9029 -0.4403 -2.9507
12189TIP3    H258059   4.687   4.545  12.609 -1.7866  1.6482  1.0895
12190TIP3   OH258060   5.269   6.620  12.970  0.1354 -0.2021 -0.1658
12190TIP3    H158061   5.189   6.642  13.017  0.4817  3.9709 -1.1587
12190TIP3    H258062   5.242   6.615  12.878  1.2535  4.9251 -1.0577
12191TIP3   OH258063   3.149   0.330  15.930  0.1504 -0.2774  0.4263
12191TIP3    H158064   3.239   0.350  15.956  0.1340 -0.8718  0.9702
12191TIP3    H258065   3.139   0.371  15.844  1.1651 -0.7691  0.0573
12192TIP3   OH258066   2.580   6.811  14.163  0.4131 -0.0104 -0.5741
12192TIP3    H158067   2.595   6.902  14.189  1.1965 -0.3676  0.2719
12192TIP3    H258068   2.615   6.805  14.073  1.6094  0.2071 -0.1433
12193TIP3   OH258069   5.158   3.450  10.861  0.2837 -0.0594 -0.6798
12193TIP3    H158070   5.117   3.363  10.865  2.2346 -0.9702  2.1911
12193TIP3    H258071   5.125   3.496  10.938 -0.0302  1.5101 -1.6937
12194TIP3   OH258072   1.325   5.168  14.973  0.3860  0.0680  0.0444
12194TIP3    H158073   1.266   5.242  14.987  0.8005  0.3035  0.6205
12194TIP3    H258074   1.355   5.145  15.061 -1.1882 -2.0172  0.1048
12195TIP3   OH258075   0.382   4.812   1.160  0.4630 -0.4310 -0.2001
12195TIP3    H158076   0.396   4.728   1.205  1.8635 -1.9861 -3.2328
12195TIP3    H258077   0.470   4.850   1.154  0.1350  0.2724 -0.6179
12196TIP3   OH258078   3.663   5.910  10.868  1.1882 -0.5657 -0.6631
12196TIP3    H158079   3.609   5.870  10.799 -1.3667 -0.1422  0.9615
12196TIP3    H258080   3.697   5.836  10.918 -1.1073 -0.9035  0.5574
12197TIP3   OH258081   5.063   6.389  12.087  0.4436 -0.5650 -0.3445
12197TIP3    H158082   5.137   6.371  12.029  0.4742  1.2779 -0.9480
12197TIP3    H258083   5.103   6.433  12.163 -0.0227  0.6772 -0.7943
12198TIP3   OH258084   5.814   1.791   5.550  0.5038  0.3580  0.0630
12198TIP3    H158085   5.885   1.730   5.532 -0.1558 -1.3507  2.6275
12198TIP3    H258086   5.747   1.737   5.592 -0.5035  2.6967  1.6608
12199TIP3   OH258087   0.022   5.914   0.585  0.1071  0.3274 -0.3356
12199TIP3    H158088  -0.031   5.878   0.514  1.4870 -0.3049 -1.0798
12199TIP3    H258089   0.097   5.855   0.592  0.8242  1.3034  0.5580
12200TIP3   OH258090   4.923   1.451   5.855 -0.2381 -0.1180  0.5613
12200TIP3    H158091   4.994   1.502   5.816  0.6448 -1.3038  0.5578
12200TIP3    H258092   4.916   1.485   5.944 -0.0696  0.4120  0.3789
12201TIP3   OH258093   4.539   0.643  15.350  0.1659  0.0437 -0.2246
12201TIP3    H158094   4.527   0.565  15.404  0.1344 -0.2464 -0.6544
12201TIP3    H258095   4.588   0.703  15.407  1.5328 -0.8532 -0.4090
12202TIP3   OH258096   0.072   5.238   3.393  0.2647  0.2083 -0.2656
12202TIP3    H158097   0.038   5.305   3.334  0.2738  0.4287 -0.0223
12202TIP3    H258098   0.039   5.263   3.480 -1.8451 -1.4707 -0.5008
12203TIP3   OH258099   0.811   5.540  16.758 -0.1092  0.1559 -0.0298
12203TIP3    H158100   0.861   5.576  16.832 -1.2516  0.7859  0.4608
12203TIP3    H258101   0.877   5.499  16.703  1.2842  2.8042 -0.5191
12204TIP3   OH258102   2.746   2.814  13.905  0.6551  0.5025  0.1346
12204TIP3    H158103   2.831   2.801  13.948  0.5802  1.5827  0.6538
12204TIP3    H258104   2.691   2.743  13.937  1.6278 -0.7814 -0.9541
12205TIP3   OH258105   1.318   5.945   2.787 -0.7792  0.2008 -0.5161
12205TIP3    H158106   1.371   5.937   2.708 -0.3027 -0.1165 -0.1769
12205TIP3    H258107   1.314   6.039   2.805 -0.5583  0.2457 -0.6991
12206TIP3   OH258108   1.994   0.016  11.501 -0.4950  0.2103 -0.8122
12206TIP3    H158109   2.063   0.002  11.435 -1.0061 -1.8859 -0.9962
12206TIP3    H258110   1.931   0.073  11.458 -0.4538 -0.5251 -1.9086
12207TIP3   OH258111   1.253   3.576  17.086 -0.1645  0.3473  0.0930
12207TIP3    H158112   1.253   3.481  17.094  0.8598  0.3837  0.6483
12207TIP3    H258113   1.201   3.606  17.161  3.7881  0.3879  3.1392
12208TIP3   OH258114   6.386   1.211  11.446  0.0645 -0.3830  0.0973
12208TIP3    H158115   6.427   1.136  11.402 -0.1196  0.6263 -1.9427
12208TIP3    H258116   6.455   1.247  11.501 -0.0496 -2.4102  1.6858
12209TIP3   OH258117   5.559   3.987   4.694 -0.1133  0.4873  0.0996
12209TIP3    H158118   5.540   4.052   4.762  0.9047  0.7793  0.1174
12209TIP3    H258119   5.623   3.928   4.734 -0.1500  0.1538 -0.3230
12210TIP3   OH258120   5.072   6.343   0.472  0.0062 -0.0088 -0.2733
12210TIP3    H158121   5.067   6.418   0.412 -0.4437  0.1130 -0.0871
12210TIP3    H258122   5.116   6.377   0.550  1.0722 -0.3027 -0.7324
12211TIP3   OH258123   2.548   3.934   3.426  0.3860 -0.2659  0.0248
12211TIP3    H158124   2.460   3.971   3.423  0.2712 -0.5616 -2.0685
12211TIP3    H258125   2.600   3.999   3.473 -0.0552  2.1100 -2.5145
12212TIP3   OH258126   3.585   3.309  11.944  0.5164  0.1935  0.1604
12212TIP3    H158127   3.563   3.218  11.962 -0.6214 -0.1899 -2.6836
12212TIP3    H258128   3.635   3.307  11.863  0.5673  2.0973  0.0882
12213TIP3   OH258129   5.197   3.678   5.223  0.8002 -0.8570 -0.0739
12213TIP3    H158130   5.136   3.631   5.280  0.0015 -0.9580 -0.9895
12213TIP3    H258131   5.280   3.632   5.235  0.6504 -0.8987  0.9701
12214TIP3   OH258132   2.896   4.902  16.646 -0.4705  0.4831 -0.3744
12214TIP3    H158133   2.966   4.964  16.667 -1.3270  1.1543  0.6076
12214TIP3    H258134   2.821   4.956  16.624 -1.1999 -0.1959  0.3683
12215TIP3   OH258135   6.679   0.182  13.539 -0.3398  0.2131  0.0430
12215TIP3    H158136   6.700   0.273  13.516  1.3633 -0.1293  0.0940
12215TIP3    H258137   6.640   0.187  13.625 -4.5160  1.2887 -1.6873
12216TIP3   OH258138   6.368   0.823  15.968  0.2272 -0.1597  0.2101
12216TIP3    H158139   6.299   0.823  15.901 -0.6176 -2.9387  0.9690
12216TIP3    H258140   6.390   0.731  15.980  2.4990  0.5029  1.6536
12217TIP3   OH258141   4.578   5.250   1.531 -0.3066  0.2171  0.0103
12217TIP3    H158142   4.591   5.211   1.444 -2.2845  0.0454 -0.2645
12217TIP3    H258143   4.484   5.269   1.534 -0.1670  0.7657  1.9048
12218TIP3   OH258144   3.821   5.568  12.794 -0.3514 -0.1315  0.4146
12218TIP3    H158145   3.913   5.566  12.766  0.7272 -0.2023  3.5567
12218TIP3    H258146   3.788   5.651  12.760  1.0833  0.2305 -0.1820
12219TIP3   OH258147   0.314   0.216   4.721 -0.3313 -0.2274  0.3483
12219TIP3    H158148   0.251   0.260   4.663 -2.0550 -1.5472  1.1277
12219TIP3    H258149   0.362   0.288   4.763 -0.6513  0.7933 -0.9661
12220TIP3   OH258150   2.923   2.100   0.968 -0.4253 -0.3895  0.3825
12220TIP3    H158151   2.835   2.082   1.002 -0.4568 -1.8451 -0.3830
12220TIP3    H258152   2.918   2.077   0.875  0.1100  1.9185 -0.2955
12221TIP3   OH258153   3.875   0.349   5.578  0.0792 -0.0170  0.5491
12221TIP3    H158154   3.962   0.328   5.546  0.1503  0.4069  0.4592
12221TIP3    H258155   3.865   0.296   5.657 -0.1891 -1.2446 -0.2898
12222TIP3   OH258156   3.939   5.405   4.813 -0.1938  0.5745  0.2189
12222TIP3    H158157   4.022   5.359   4.827 -0.1224  0.2755 -1.0440
12222TIP3    H258158   3.952   5.490   4.856 -0.0205 -0.2490  1.8439
12223TIP3   OH258159   3.482   5.351   5.395  0.2666  0.0619  0.2743
12223TIP3    H158160   3.549   5.355   5.326 -0.4090 -0.4737 -0.4248
12223TIP3    H258161   3.432   5.431   5.384  0.2195  0.0226  0.2011
12224TIP3   OH258162   4.530   5.800  16.564 -0.5418 -0.3217  0.1602
12224TIP3    H158163   4.580   5.802  16.482 -0.4625 -2.4267  0.1141
12224TIP3    H258164   4.439   5.802  16.537 -0.5286  0.9609  0.1372
12225TIP3   OH258165   3.541   6.659   0.742 -0.1193  0.0961 -0.5626
12225TIP3    H158166   3.577   6.748   0.740  1.5103 -0.5399 -2.0220
12225TIP3    H258167   3.598   6.611   0.803 -1.3661  0.1507  0.7069
12226TIP3   OH258168   6.265   6.543   2.620  0.2803  0.0982 -0.1184
12226TIP3    H158169   6.314   6.626   2.622  1.5060 -0.5821  2.4743
12226TIP3    H258170   6.196   6.555   2.685 -0.6821 -0.3050 -1.0430
12227TIP3   OH258171   1.195   1.049   4.928  0.3989 -0.2030  0.4724
12227TIP3    H158172   1.284   1.084   4.937  0.6389 -1.0352  1.6699
12227TIP3    H258173   1.184   0.993   5.005 -1.2495  0.0524  0.4544
12228TIP3   OH258174   6.390   3.269   3.960  0.0163 -0.6713 -0.2005
12228TIP3    H158175   6.419   3.319   4.037 -0.1309 -0.2272 -0.4319
12228TIP3    H258176   6.367   3.335   3.895 -0.2396 -1.0397 -0.4915
12229TIP3   OH258177   4.434   1.752  13.014 -0.1144  0.3051  0.0422
12229TIP3    H158178   4.405   1.676  12.964 -0.3990 -0.2294  1.0097
12229TIP3    H258179   4.502   1.719  13.072  0.3425  0.9581 -0.1116
12230TIP3   OH258180   4.963   3.917   4.294  0.2225  0.2197  0.0870
12230TIP3    H158181   4.885   3.882   4.337  0.2378  0.0189 -0.0514
12230TIP3    H258182   4.949   3.902   4.201  0.2036  0.6290  0.0179
12231TIP3   OH258183   0.878   2.266  16.760 -0.4507  0.8114 -0.5461
12231TIP3    H158184   0.939   2.207  16.806 -2.2570 -0.5976  0.2076
12231TIP3    H258185   0.929   2.303  16.689  1.2700 -0.3433  0.0172
12232TIP3   OH258186   5.184   2.116  13.711  0.2532 -0.0211 -0.3537
12232TIP3    H158187   5.097   2.090  13.682  0.1796 -1.5228  1.0396
12232TIP3    H258188   5.168   2.184  13.777  0.0281 -0.9114  0.5516
12233TIP3   OH258189   0.407   3.795  15.308  0.8022  0.2256  0.2687
12233TIP3    H158190   0.327   3.842  15.333 -0.2466 -1.6282  0.5682
12233TIP3    H258191   0.424   3.737  15.382  0.9798 -1.1955 -0.8471
12234TIP3   OH258192   4.840   2.598   5.855 -0.4558 -0.5514  0.5577
12234TIP3    H158193   4.787   2.537   5.908 -0.8239 -0.6030  0.1387
12234TIP3    H258194   4.794   2.681   5.861 -0.4563 -0.5381  0.3891
12235TIP3   OH258195   3.674   2.677   2.847 -0.1391 -0.2716  0.5315
12235TIP3    H158196   3.745   2.671   2.783  0.6189  0.1359  1.3206
12235TIP3    H258197   3.668   2.771   2.866 -0.1104 -0.4323  1.3398
12236TIP3   OH258198   2.938   4.751   5.052  0.2336 -1.1098 -0.2682
12236TIP3    H158199   2.895   4.729   4.970  0.4191 -0.4415 -0.5523
12236TIP3    H258200   2.945   4.846   5.051  0.0990 -1.0773  0.5949
12237TIP3   OH258201   0.655   4.492  11.247  0.2481  0.2530  0.3655
12237TIP3    H158202   0.747   4.500  11.223 -0.0470  0.7488 -0.6815
12237TIP3    H258203   0.650   4.527  11.336  1.2860 -1.0682  0.9901
12238TIP3   OH258204   0.374   5.365   4.128 -0.0647 -0.0560  0.2357
12238TIP3    H158205   0.353   5.279   4.092 -1.7309  0.2506  0.3797
12238TIP3    H258206   0.339   5.362   4.217 -1.7925  1.3524 -0.3415
12239TIP3   OH258207   3.622   2.813  14.764 -0.1167 -0.1975  0.5172
12239TIP3    H158208   3.628   2.857  14.679  2.6185  2.2813  1.8177
12239TIP3    H258209   3.558   2.865  14.813 -1.1996 -1.2353  0.2564
12240TIP3   OH258210   5.192   4.407   3.588  0.0473  0.1876 -0.1098
12240TIP3    H158211   5.098   4.397   3.581 -0.0349 -0.3325  1.3160
12240TIP3    H258212   5.218   4.345   3.656  1.8526 -1.8767 -2.5057
12241TIP3   OH258213   5.919   3.196  14.071 -0.1809 -0.2589  0.4496
12241TIP3    H158214   5.941   3.109  14.104  2.2454 -0.1729 -0.7163
12241TIP3    H258215   6.003   3.234  14.044 -1.4064  1.6103 -1.0774
12242TIP3   OH258216   2.844   0.638   2.991  0.2983 -0.2247 -0.3769
12242TIP3    H158217   2.892   0.605   3.067 -0.0243 -1.5287 -0.7062
12242TIP3    H258218   2.884   0.722   2.972  2.0054 -0.9619 -0.2411
12243TIP3   OH258219   2.607   1.580  15.927 -0.1173 -0.5941 -0.2080
12243TIP3    H158220   2.575   1.626  16.004 -0.7467  0.9731 -1.3608
12243TIP3    H258221   2.669   1.641  15.886  0.1175 -1.3428 -1.0101
12244TIP3   OH258222   0.590   0.782  12.449 -0.0340 -0.1626  0.0560
12244TIP3    H158223   0.596   0.722  12.523  3.1871 -0.7667 -0.5561
12244TIP3    H258224   0.572   0.867  12.488 -2.0755 -1.0402  1.1496
12245TIP3   OH258225   2.596   5.297  12.387 -0.0299 -0.5233  0.1149
12245TIP3    H158226   2.628   5.377  12.428  3.4486 -1.1571 -0.9950
12245TIP3    H258227   2.583   5.320  12.295  2.0912 -1.3869 -0.4607
12246TIP3   OH258228   5.323   5.180  11.882  0.8911  0.2524  0.1139
12246TIP3    H158229   5.281   5.260  11.915 -0.1554 -0.5031  0.6689
12246TIP3    H258230   5.362   5.140  11.959  0.1465 -0.5124  0.1015
12247TIP3   OH258231   4.575   5.085  12.148  0.1921 -0.0457 -0.1555
12247TIP3    H158232   4.582   4.992  12.127  2.6218  0.6710 -3.3311
12247TIP3    H258233   4.514   5.120  12.083 -0.7975  0.6567  1.0873
12248TIP3   OH258234   4.182   2.168  17.286 -0.8088  0.3379 -0.1370
12248TIP3    H158235   4.234   2.249  17.282  2.0487 -1.3138  0.5624
12248TIP3    H258236   4.198   2.125  17.202 -0.9843 -0.2502  0.1267
12249TIP3   OH258237   1.233   4.015  16.219  0.2736 -0.5013  0.0589
12249TIP3    H158238   1.214   3.939  16.164 -1.6206 -0.7108  0.9525
12249TIP3    H258239   1.218   3.984  16.309  2.3527  0.1118  0.6798
12250TIP3   OH258240   5.005   2.067   0.280  0.4051 -0.2038  0.0584
12250TIP3    H158241   4.937   2.102   0.222  0.2424 -1.2832 -0.4378
12250TIP3    H258242   5.087   2.100   0.244  0.2171  0.2132  0.0067
12251TIP3   OH258243   4.846   6.185  16.668 -0.1738 -0.2170  0.1183
12251TIP3    H158244   4.787   6.248  16.711 -0.7091 -1.0345  0.6229
12251TIP3    H258245   4.934   6.219  16.684 -0.5126  1.6354 -1.6051
12252TIP3   OH258246   4.190   3.329  11.615  0.1575  0.0492 -0.0601
12252TIP3    H158247   4.265   3.314  11.673  0.5912  0.8639 -0.3891
12252TIP3    H258248   4.166   3.420  11.630 -0.5268 -0.0940 -0.2468
12253TIP3   OH258249   1.669   0.070  16.201 -0.3146  0.4862 -0.4569
12253TIP3    H158250   1.621   0.150  16.225 -0.3955  0.6825 -1.2617
12253TIP3    H258251   1.638   0.049  16.113  1.7710  1.1665 -1.4028
12254TIP3   OH258252   1.374   0.462   5.966  0.5739 -0.4033  0.3416
12254TIP3    H158253   1.326   0.454   6.049 -0.8553 -0.3498 -0.4548
12254TIP3    H258254   1.375   0.556   5.948 -0.2957 -0.5151 -0.3533
12255TIP3   OH258255   3.199   1.882   2.107 -0.4239  0.5331  0.3925
12255TIP3    H158256   3.191   1.915   2.018  1.2385  0.3395  0.1287
12255TIP3    H258257   3.281   1.832   2.106 -0.5786  0.1998  1.9315
12256TIP3   OH258258   6.461   0.330  11.233 -0.1269  0.3076  0.6570
12256TIP3    H158259   6.454   0.284  11.316  1.6146  0.5633  0.9829
12256TIP3    H258260   6.493   0.417  11.256  0.2199  0.4363 -0.2689
12257TIP3   OH258261   3.763   0.546   1.552 -0.0552 -0.1010 -0.2813
12257TIP3    H158262   3.698   0.476   1.558 -0.2301  0.1227  0.4969
12257TIP3    H258263   3.712   0.626   1.567  0.1903  0.1774 -0.8903
12258TIP3   OH258264   6.202   3.356   1.584 -0.3488  0.0993  0.3566
12258TIP3    H158265   6.144   3.415   1.537 -1.9697  0.7507  2.9350
12258TIP3    H258266   6.185   3.269   1.546 -2.6770  0.3540  0.6568
12259TIP3   OH258267   0.502   5.765  17.287 -0.3745 -0.4573  0.1120
12259TIP3    H158268   0.480   5.769  17.195 -1.2754 -1.8905  0.2334
12259TIP3    H258269   0.565   5.836  17.300 -1.9951  1.2762 -1.0850
12260TIP3   OH258270   4.277   2.400   2.210  0.4187  0.3849 -0.1115
12260TIP3    H158271   4.247   2.489   2.225  2.0412  0.8705  0.4254
12260TIP3    H258272   4.292   2.395   2.116 -0.5300  0.3659 -0.2790
12261TIP3   OH258273   4.087   6.463  15.066  0.1962  0.5061  0.7188
12261TIP3    H158274   4.163   6.434  15.118 -1.4358 -2.3871  1.6839
12261TIP3    H258275   4.015   6.466  15.129 -1.0385  0.7054 -0.6590
12262TIP3   OH258276   3.166   6.342  16.039  0.3315  0.1002  0.8341
12262TIP3    H158277   3.179   6.280  15.967 -1.3123 -0.9836  1.4144
12262TIP3    H258278   3.105   6.406  16.004 -0.1597 -0.2069  1.1104
12263TIP3   OH258279   3.358   0.449   3.368  0.4021 -0.5510  0.7868
12263TIP3    H158280   3.436   0.437   3.314  1.0071  2.3263  0.8798
12263TIP3    H258281   3.291   0.479   3.307  0.3800  0.2955  1.2100
12264TIP3   OH258282   5.167   3.962   2.100  0.5576  0.3271  0.1107
12264TIP3    H158283   5.086   3.925   2.134  2.1440 -2.0289  1.6240
12264TIP3    H258284   5.149   3.979   2.007 -1.4209 -0.8441  0.2278
12265TIP3   OH258285   2.540   2.146   0.733  0.1577  0.6131 -0.0355
12265TIP3    H158286   2.466   2.199   0.701  0.3176 -0.4469 -2.3301
12265TIP3    H258287   2.501   2.088   0.798 -0.4180  2.0196  0.9518
12266TIP3   OH258288   3.858   5.672   2.175  0.4143 -0.0060 -0.1518
12266TIP3    H158289   3.763   5.670   2.168  0.4907  1.1922 -2.1308
12266TIP3    H258290   3.880   5.597   2.231 -1.7163  0.2049  1.0667
12267TIP3   OH258291   0.030   4.117  16.166  0.1793  0.4733  0.1892
12267TIP3    H158292  -0.039   4.159  16.216 -2.4718 -1.5159 -1.4919
12267TIP3    H258293   0.023   4.024  16.188  1.6978  0.1068 -0.7198
12268TIP3   OH258294   5.635   1.350   6.413 -0.0102 -0.2203  0.0162
12268TIP3    H158295   5.628   1.414   6.485 -0.3927 -0.7220  0.4374
12268TIP3    H258296   5.685   1.395   6.346  0.5173  0.2016  0.6733
12269TIP3   OH258297   4.920   3.108  14.041  0.2688 -0.2039 -0.8259
12269TIP3    H158298   4.933   3.193  14.083 -1.5951  0.7873 -2.0910
12269TIP3    H258299   4.837   3.077  14.076  0.6332 -1.2239 -0.8492
12270TIP3   OH258300   1.129   6.581   5.340 -0.4649 -0.1162  0.4063
12270TIP3    H158301   1.084   6.614   5.417 -2.9549 -2.3161  0.0575
12270TIP3    H258302   1.184   6.509   5.373 -1.9150 -1.3917  0.1603
12271TIP3   OH258303   5.444   1.636   3.827  0.3115 -0.3502 -0.0621
12271TIP3    H158304   5.442   1.584   3.746  0.8257 -1.4763  0.6265
12271TIP3    H258305   5.396   1.584   3.891 -0.8943  0.9596  0.1537
12272TIP3   OH258306   0.689   2.865  11.557 -0.1819 -0.7235  0.0950
12272TIP3    H158307   0.726   2.785  11.519 -1.3857 -1.0859 -0.3681
12272TIP3    H258308   0.635   2.902  11.487 -0.7673 -0.2664  0.7734
12273TIP3   OH258309   2.964   0.899  13.511  0.6313  0.2571  0.2092
12273TIP3    H158310   2.897   0.851  13.559  0.7601  0.0541  0.1852
12273TIP3    H258311   3.020   0.831  13.473 -0.1960  0.3602 -1.3058
12274TIP3   OH258312   0.967   2.512   2.913 -0.4180  0.3876  0.1195
12274TIP3    H158313   1.021   2.448   2.868  1.0686  1.5799  0.1170
12274TIP3    H258314   1.017   2.535   2.992 -1.0015  1.3877  0.2235
12275TIP3   OH258315   5.103   3.604  12.988 -0.4870 -0.5391 -0.2700
12275TIP3    H158316   5.099   3.658  12.909 -4.1329  0.2866  0.3094
12275TIP3    H258317   5.052   3.526  12.965  0.9396 -1.6883  0.3643
12276TIP3   OH258318   3.574   5.808   0.755 -0.0273 -0.3625 -0.3083
12276TIP3    H158319   3.518   5.881   0.730  0.1351 -0.6597 -1.6080
12276TIP3    H258320   3.518   5.730   0.750  0.2819 -0.5588 -0.8169
12277TIP3   OH258321   4.952   0.845  14.851  0.3856 -0.4868 -0.3534
12277TIP3    H158322   4.870   0.801  14.828 -0.4635 -1.1839  3.3308
12277TIP3    H258323   5.020   0.778  14.837  0.2350 -0.2837 -2.3094
12278TIP3   OH258324   0.687   6.096   3.235 -0.5479  0.2590  0.7543
12278TIP3    H158325   0.597   6.071   3.213 -0.2146 -0.4507  0.1984
12278TIP3    H258326   0.708   6.165   3.172 -0.3991 -0.1839  0.3134
12279TIP3   OH258327   3.010   4.055   4.913 -0.6078 -0.0232 -0.3895
12279TIP3    H158328   3.015   3.998   4.837  0.1950 -0.4628 -0.0096
12279TIP3    H258329   3.070   4.017   4.977  1.4111  2.2816 -0.8027
12280TIP3   OH258330   4.533   3.002  13.895  0.3425 -0.1901  0.4366
12280TIP3    H158331   4.522   3.068  13.827 -0.9923 -0.1781  0.6282
12280TIP3    H258332   4.563   3.051  13.971 -0.7276  0.2293  0.6032
12281TIP3   OH258333   5.912   0.858  14.806 -0.0079  0.0026 -0.0270
12281TIP3    H158334   5.825   0.866  14.845  1.1390  0.5260  2.6504
12281TIP3    H258335   5.938   0.948  14.788  0.0925 -0.1390 -0.6125
12282TIP3   OH258336   2.293   1.493  14.893  0.3060 -0.0170 -0.2391
12282TIP3    H158337   2.271   1.469  14.983 -0.0016 -0.4315 -0.4237
12282TIP3    H258338   2.346   1.420  14.861  0.3281  0.0829 -0.4341
12283TIP3   OH258339   3.263   5.655   1.881  0.3890  0.0633  0.0741
12283TIP3    H158340   3.211   5.607   1.945  2.8373 -1.9080  0.7313
12283TIP3    H258341   3.265   5.745   1.914  1.1880 -0.8021  2.5673
12284TIP3   OH258342   3.121   4.368   1.770 -0.3710 -0.8139  0.1270
12284TIP3    H158343   3.206   4.354   1.729 -0.5679  1.0613 -1.0373
12284TIP3    H258344   3.142   4.385   1.862  0.5205 -0.4973 -0.1211
12285TIP3   OH258345   1.701   2.171  16.425 -0.4458 -0.3207 -0.2249
12285TIP3    H158346   1.763   2.162  16.353 -1.2736  0.0348 -1.0198
12285TIP3    H258347   1.616   2.147  16.386 -0.9216 -0.0310  0.6047
12286TIP3   OH258348   0.184   2.919  13.549  0.1207  0.3153  0.4542
12286TIP3    H158349   0.114   2.869  13.590 -2.3356  2.0492 -1.3753
12286TIP3    H258350   0.184   2.890  13.458  1.2725  0.9275  0.2424
12287TIP3   OH258351   2.153   5.860   3.622  0.4393  0.0368 -0.1105
12287TIP3    H158352   2.077   5.831   3.673  0.4704  1.7422  0.9746
12287TIP3    H258353   2.182   5.940   3.665  1.7721  0.3962 -1.5809
12288TIP3   OH258354   2.570   2.767   5.467  0.5379  0.1028  0.6133
12288TIP3    H158355   2.611   2.840   5.514  0.0583  1.2976 -0.7671
12288TIP3    H258356   2.501   2.736   5.526  1.3650  0.0995  1.6228
12289TIP3   OH258357   4.583   0.398  10.923  0.4761 -0.1334 -0.2196
12289TIP3    H158358   4.668   0.356  10.935  0.8882  0.4318 -1.0470
12289TIP3    H258359   4.543   0.397  11.010  0.5091 -2.1185 -0.1754
12290TIP3   OH258360   5.716   6.759  16.728  0.3176 -0.2100 -0.3539
12290TIP3    H158361   5.726   6.773  16.822  3.7088  2.5991 -0.8848
12290TIP3    H258362   5.779   6.691  16.707 -0.0359 -0.4442 -0.6568
12291TIP3   OH258363   4.428   5.045   4.596 -0.0207 -0.7010 -0.4749
12291TIP3    H158364   4.482   5.107   4.549 -1.9062  1.4280  0.0244
12291TIP3    H258365   4.485   5.012   4.666  1.1028  0.2591 -0.9079
12292TIP3   OH258366   6.549   5.557   5.984  0.3174  0.9728 -0.4068
12292TIP3    H158367   6.526   5.476   6.029  1.2893 -0.7035 -2.7281
12292TIP3    H258368   6.510   5.626   6.038 -1.0520 -1.0352  1.3554
12293TIP3   OH258369   0.222   4.792  13.177 -0.3380  0.0953  0.1171
12293TIP3    H158370   0.186   4.715  13.220 -0.2987  0.9917  1.8511
12293TIP3    H258371   0.156   4.860  13.190  0.5883  0.9311  0.5796
12294TIP3   OH258372   3.966   5.472   1.109  1.1091  0.0484 -0.4593
12294TIP3    H158373   4.052   5.513   1.100  0.3200  1.9368  0.1795
12294TIP3    H258374   3.908   5.525   1.055 -0.6923  2.2718  3.3145
12295TIP3   OH258375   6.510   5.909  13.340 -0.6686  0.7981  0.9234
12295TIP3    H158376   6.449   5.930  13.411 -0.8049 -2.2013  1.8423
12295TIP3    H258377   6.584   5.867  13.383 -0.7491 -1.1200 -0.6320
12296TIP3   OH258378   5.405   2.527  15.246 -0.4158  0.2418 -0.8400
12296TIP3    H158379   5.460   2.568  15.180 -0.7289  0.4150 -0.9968
12296TIP3    H258380   5.389   2.439  15.213  1.8392 -0.7229  0.4038
12297TIP3   OH258381   0.818   1.557   0.432  0.2833  0.9940 -0.3016
12297TIP3    H158382   0.903   1.523   0.402  0.2254  1.0895 -0.5849
12297TIP3    H258383   0.795   1.622   0.366  0.0219  1.0179 -0.1858
12298TIP3   OH258384   6.333   0.986   2.350  0.0221  0.2941  0.0515
12298TIP3    H158385   6.270   1.024   2.410  0.8261  0.5147  0.7750
12298TIP3    H258386   6.408   1.046   2.352  0.2776  0.0222 -0.7598
12299TIP3   OH258387   6.047   2.312   6.764  0.2155 -0.0828 -1.1117
12299TIP3    H158388   6.015   2.400   6.782 -2.1494 -0.8894 -0.9817
12299TIP3    H258389   6.079   2.317   6.674  1.7928  1.2945 -0.5279
12300TIP3   OH258390   3.507   4.585   3.970  0.6280  0.0226  0.0522
12300TIP3    H158391   3.484   4.630   3.888 -0.8176  0.2574  0.5606
12300TIP3    H258392   3.458   4.632   4.037 -1.6056 -2.7423  0.5143
12301TIP3   OH258393   1.972   4.696  14.747 -0.1917 -0.1896  1.1285
12301TIP3    H158394   1.936   4.773  14.703  1.1653  0.4149  1.0183
12301TIP3    H258395   2.021   4.731  14.821 -0.4453 -1.0369  1.7190
12302TIP3   OH258396   3.399   3.641   3.336  0.1554 -0.2152  0.3346
12302TIP3    H158397   3.322   3.626   3.390  0.1604 -1.7786 -0.0482
12302TIP3    H258398   3.431   3.727   3.363 -1.2291  0.0915  1.0909
12303TIP3   OH258399   5.275   3.314  12.824 -0.5039  0.5175 -0.0947
12303TIP3    H158400   5.352   3.318  12.881 -1.0420  3.6984  0.5992
12303TIP3    H258401   5.289   3.236  12.771  2.1456 -0.1932  1.4384
12304TIP3   OH258402   2.355   4.141   6.542 -0.4720  0.0567  0.3751
12304TIP3    H158403   2.384   4.224   6.578 -2.5198  0.7555  0.5393
12304TIP3    H258404   2.416   4.077   6.578  0.3892  1.3326  1.2629
12305TIP3   OH258405   5.357   5.678   5.410 -0.2128 -0.4221  0.3628
12305TIP3    H158406   5.432   5.713   5.362 -0.1686 -3.3494 -2.0572
12305TIP3    H258407   5.384   5.589   5.435 -2.0966 -0.7642  1.3413
12306TIP3   OH258408   4.807   4.221  16.390  0.2223 -0.6635 -0.0862
12306TIP3    H158409   4.819   4.301  16.440 -0.1183 -1.1546  0.8055
12306TIP3    H258410   4.771   4.249  16.306 -1.5352 -0.0074  0.8398
12307TIP3   OH258411   6.613   0.211  12.611  0.5312 -0.0749 -0.0649
12307TIP3    H158412   6.690   0.195  12.557  0.8323  0.3838  0.2215
12307TIP3    H258413   6.539   0.182  12.557  0.6773  1.7863 -1.3451
12308TIP3   OH258414   5.857   5.401  16.513  0.6156  0.3899 -0.2087
12308TIP3    H158415   5.919   5.386  16.585 -1.5392  1.1175  1.9030
12308TIP3    H258416   5.804   5.475  16.542 -1.6358 -0.5616 -1.6575
12309TIP3   OH258417   4.066   2.527   3.361  0.0129  0.2530 -0.4154
12309TIP3    H158418   4.034   2.476   3.288 -1.7474 -0.3790  0.7235
12309TIP3    H258419   4.125   2.468   3.408 -1.2935 -0.4984  0.3737
12310TIP3   OH258420   6.667   2.755  14.767 -0.7998  0.2214 -0.0595
12310TIP3    H158421   6.582   2.739  14.727 -0.6870 -0.0087 -0.2048
12310TIP3    H258422   6.646   2.781  14.857 -1.0496  0.7065 -0.2532
12311TIP3   OH258423   5.723   3.551  10.494  0.1859 -0.0984 -0.1865
12311TIP3    H158424   5.817   3.566  10.479  0.1753  1.8382  1.2630
12311TIP3    H258425   5.713   3.456  10.491  2.6568 -0.5459  1.8810
12312TIP3   OH258426   3.914   5.374   0.214  0.2375  0.8942  0.4234
12312TIP3    H158427   4.000   5.362   0.172  0.4097 -1.1141  1.2210
12312TIP3    H258428   3.861   5.301   0.181 -0.0439  0.0498  2.5903
12313TIP3   OH258429   0.517   2.132   0.425  0.3923  0.0506 -0.2318
12313TIP3    H158430   0.550   2.109   0.512 -0.9302 -0.6487  0.1172
12313TIP3    H258431   0.425   2.106   0.427 -0.2079  1.8952 -1.1509
12314TIP3   OH258432   3.410   5.380   1.073 -0.0465 -0.6645  0.6858
12314TIP3    H158433   3.372   5.359   1.158 -1.3032 -1.7901 -0.1027
12314TIP3    H258434   3.336   5.375   1.012  0.3460  2.3313 -0.1991
12315TIP3   OH258435   5.050   5.523  10.456 -0.5286  0.1545  0.1649
12315TIP3    H158436   4.996   5.493  10.384  0.8629  1.2561 -1.4173
12315TIP3    H258437   5.134   5.478  10.444  0.0768  1.1764  0.4205
12316TIP3   OH258438   1.571   0.558  14.537 -0.6285  0.2885  0.0102
12316TIP3    H158439   1.658   0.596  14.520  0.4649 -2.0143  0.0103
12316TIP3    H258440   1.563   0.559  14.633  0.0530 -0.7592  0.0946
12317TIP3   OH258441   6.738   3.095   4.030 -0.2783  0.1624  0.8217
12317TIP3    H158442   6.654   3.107   4.073 -2.3199  0.5367 -2.8508
12317TIP3    H258443   6.770   3.184   4.014 -0.3436  0.0735  0.1786
12318TIP3   OH258444   1.109   4.194   2.163  1.1660  0.1960 -0.3437
12318TIP3    H158445   1.163   4.263   2.124  1.0606  1.3006  1.3305
12318TIP3    H258446   1.132   4.115   2.116  3.1051  0.9317 -0.7111
12319TIP3   OH258447   3.616   2.293  12.342 -0.2319 -0.4118  0.3923
12319TIP3    H158448   3.631   2.268  12.250 -1.1536 -0.7505  0.3319
12319TIP3    H258449   3.530   2.258  12.363  0.2988 -1.0293  1.6402
12320TIP3   OH258450   1.833   4.511   4.080 -0.5790  0.2639 -0.1934
12320TIP3    H158451   1.861   4.597   4.046 -1.1159  0.4244 -0.2390
12320TIP3    H258452   1.749   4.528   4.122 -0.6023 -0.2115 -0.0413
12321TIP3   OH258453   1.802   0.666  13.137 -0.5527 -0.4175  0.2876
12321TIP3    H158454   1.744   0.741  13.152 -0.2973 -0.0274 -0.6091
12321TIP3    H258455   1.774   0.630  13.054  1.3447  0.6336 -0.8808
12322TIP3   OH258456   2.848   3.447  13.716 -0.6262 -0.1782 -0.0893
12322TIP3    H158457   2.770   3.483  13.759  0.3923  2.5922 -0.3422
12322TIP3    H258458   2.815   3.413  13.633 -1.7617 -0.2923  0.3812
12323TIP3   OH258459   5.186   1.510  16.710  0.4155 -0.4894  0.2708
12323TIP3    H158460   5.096   1.541  16.700  0.9736  0.7970 -1.2054
12323TIP3    H258461   5.239   1.590  16.708  1.6185 -1.2410  0.8579
12324TIP3   OH258462   5.461   1.581  12.164 -0.2798  0.3705  0.4822
12324TIP3    H158463   5.529   1.522  12.130 -1.9405 -2.1175  1.1602
12324TIP3    H258464   5.431   1.629  12.087 -0.3954 -1.3676 -0.6334
12325TIP3   OH258465   0.121   3.838   0.374 -0.8506  0.1929  0.3445
12325TIP3    H158466   0.101   3.750   0.341  2.0886 -1.1421  1.7515
12325TIP3    H258467   0.093   3.896   0.303  0.2776 -2.1316 -2.2421
12326TIP3   OH258468   0.201   3.027   4.951  0.1830  0.0096 -0.4234
12326TIP3    H158469   0.153   3.059   4.875 -1.5466  1.6594  1.2332
12326TIP3    H258470   0.150   2.952   4.982 -0.0479  0.3300 -0.0046
12327TIP3   OH258471   3.174   1.530  11.727  0.3555 -0.4741  0.4712
12327TIP3    H158472   3.111   1.600  11.711 -1.6698 -2.0918  0.9858
12327TIP3    H258473   3.210   1.550  11.814 -0.7187 -0.4392  0.9161
12328TIP3   OH258474   0.858   1.339   2.214 -0.2392  0.0303 -0.5322
12328TIP3    H158475   0.921   1.349   2.143  0.0739 -1.2812 -0.4657
12328TIP3    H258476   0.871   1.417   2.268 -0.7941  1.2985 -2.1125
12329TIP3   OH258477   0.188   1.683  13.626 -0.4589  0.3022  0.5668
12329TIP3    H158478   0.124   1.723  13.568  1.1922  1.1743 -0.7611
12329TIP3    H258479   0.263   1.743  13.624  1.6679 -2.1784 -0.5383
12330TIP3   OH258480   3.172   4.061  13.523 -0.1494  0.2636  0.1035
12330TIP3    H158481   3.186   3.969  13.500 -1.4233 -0.2826  1.3796
12330TIP3    H258482   3.225   4.110  13.460  1.4132 -1.3747  0.0734
12331TIP3   OH258483   5.753   1.853  12.317 -0.2563 -0.2135  0.7267
12331TIP3    H158484   5.710   1.939  12.318 -0.0847  0.0301  5.0847
12331TIP3    H258485   5.845   1.873  12.337  0.5723 -1.2589 -1.7006
12332TIP3   OH258486   1.823   1.728   3.000 -0.4849 -0.1779 -0.2882
12332TIP3    H158487   1.878   1.688   3.068  0.2128 -1.6437 -1.6478
12332TIP3    H258488   1.735   1.695   3.020 -0.4409  0.0998  0.4004
12333TIP3   OH258489   2.503   2.891   2.751  0.0795 -0.0386 -0.6320
12333TIP3    H158490   2.506   2.932   2.664 -1.1077 -0.8610 -1.0843
12333TIP3    H258491   2.507   2.797   2.733 -0.4803 -0.2213  0.1867
12334TIP3   OH258492   1.595   4.830   3.198 -0.1065  0.2202  0.1611
12334TIP3    H158493   1.598   4.925   3.203  1.2352  0.1783  0.4245
12334TIP3    H258494   1.618   4.800   3.285  0.1537 -0.3540 -0.0976
12335TIP3   OH258495   2.701   1.448  17.090 -0.6605 -0.1828  0.0537
12335TIP3    H158496   2.660   1.402  17.017  1.1584 -0.2973 -0.9372
12335TIP3    H258497   2.774   1.392  17.116  1.1454  1.7135 -0.6900
12336TIP3   OH258498   5.155   5.874   1.656  0.5184  0.7416  0.2613
12336TIP3    H158499   5.131   5.782   1.643  1.4625  0.6782 -1.1736
12336TIP3    H258500   5.250   5.873   1.665  0.4883  1.5396  0.7782
12337TIP3   OH258501   5.906   4.981   4.385  0.2035  0.1792  0.2380
12337TIP3    H158502   5.830   5.006   4.333 -0.2670 -0.2852  0.6798
12337TIP3    H258503   5.980   4.988   4.325 -0.0168  1.7824  0.1261
12338TIP3   OH258504   5.884   2.898  14.826  0.4060  0.1399 -0.3532
12338TIP3    H158505   5.819   2.968  14.830  0.7315  0.3712  1.6920
12338TIP3    H258506   5.967   2.941  14.843  0.6517 -0.6822  0.6259
12339TIP3   OH258507   3.852   1.841   5.896 -0.4646  0.4294  0.2230
12339TIP3    H158508   3.936   1.882   5.874 -1.2722  1.6683 -0.6855
12339TIP3    H258509   3.815   1.897   5.964 -0.6752  0.0320  0.4406
12340TIP3   OH258510   1.322   4.017  10.661 -0.7631 -0.8485  0.3824
12340TIP3    H158511   1.358   4.086  10.717  0.8398 -0.0964 -1.4542
12340TIP3    H258512   1.253   3.976  10.714 -1.0184  1.4257  1.9309
12341TIP3   OH258513   2.624   0.011   2.683  0.1679 -0.3134  0.1115
12341TIP3    H158514   2.619   0.004   2.778 -0.3282 -0.1465  0.0985
12341TIP3    H258515   2.715  -0.009   2.662  0.7569  1.5091  0.7710
12342TIP3   OH258516   5.526   5.895   2.356 -0.1753 -0.1163  0.2845
12342TIP3    H158517   5.482   5.974   2.389 -2.2174 -0.4645 -1.3973
12342TIP3    H258518   5.481   5.823   2.400  1.0036 -0.4034  1.0525
12343TIP3   OH258519   0.824   0.995   5.180 -0.0256 -0.2919 -0.4577
12343TIP3    H158520   0.839   1.038   5.096  0.8488 -1.8516 -1.1424
12343TIP3    H258521   0.749   1.041   5.217 -0.2022  0.6712 -1.9207
12344TIP3   OH258522   4.417   4.484   0.132  0.1825 -0.6748  0.6966
12344TIP3    H158523   4.454   4.430   0.201  2.7730  0.0581 -0.0037
12344TIP3    H258524   4.457   4.570   0.144  0.0486 -0.3023 -1.1956
12345TIP3   OH258525   0.136   3.534  14.951  0.9644 -0.6503 -0.5434
12345TIP3    H158526   0.126   3.612  14.895  0.1795 -0.3351  0.0203
12345TIP3    H258527   0.069   3.474  14.920 -0.0694 -0.1317  0.5990
12346TIP3   OH258528   0.560   4.112  11.373 -0.4212 -0.2519  0.7048
12346TIP3    H158529   0.479   4.061  11.378 -2.3240  2.4619 -0.0480
12346TIP3    H258530   0.604   4.095  11.457 -0.5505 -3.5339  0.2309
12347TIP3   OH258531   0.708   2.733  16.262  0.0909 -0.2701 -0.1093
12347TIP3    H158532   0.632   2.774  16.302  0.2236  0.3323 -0.4698
12347TIP3    H258533   0.769   2.805  16.245  0.7500 -0.7480  0.1905
12348TIP3   OH258534   0.566   5.080  14.148  0.0711  0.5209 -0.2783
12348TIP3    H158535   0.518   5.145  14.096 -2.8826 -1.5382 -0.3788
12348TIP3    H258536   0.564   5.001  14.094  1.8636 -0.2217  0.6623
12349TIP3   OH258537   0.949   4.784   3.532  0.2033  0.2976  0.0015
12349TIP3    H158538   1.018   4.718   3.541  0.1732  0.4196  1.2080
12349TIP3    H258539   0.994   4.867   3.543  0.2611  0.5266 -1.6319
12350TIP3   OH258540   2.924   3.793  13.289 -0.4761 -0.0076 -0.6734
12350TIP3    H158541   2.952   3.749  13.369 -1.4348 -1.2028 -0.9706
12350TIP3    H258542   2.889   3.877  13.319  0.7095  0.2950 -0.0328
12351TIP3   OH258543   3.018   3.123   4.110  0.4400  0.2680 -0.2032
12351TIP3    H158544   2.998   3.140   4.018  1.8823  2.4949 -0.1993
12351TIP3    H258545   2.939   3.150   4.157 -0.3248 -0.9329 -0.7625
12352TIP3   OH258546   5.367   2.303  15.080 -0.0107  1.0940  0.1025
12352TIP3    H158547   5.345   2.213  15.056 -1.1400  1.7516 -1.4987
12352TIP3    H258548   5.462   2.307  15.073  0.1329 -0.1647  0.9909
12353TIP3   OH258549   1.734   3.240   4.907 -0.4856  0.1131  0.4511
12353TIP3    H158550   1.689   3.308   4.956  0.5871 -0.0429  1.7158
12353TIP3    H258551   1.786   3.287   4.842  1.6510  0.7196  2.4613
12354TIP3   OH258552   3.183   6.802  10.200  0.7618  0.7986  0.2199
12354TIP3    H158553   3.246   6.871  10.221  0.2530  0.8743  1.5940
12354TIP3    H258554   3.115   6.812  10.266  0.2243 -0.4442 -0.1367
12355TIP3   OH258555   3.833   1.728   3.303  0.6754 -0.0100  0.1928
12355TIP3    H158556   3.883   1.683   3.235  1.6757  0.5667  0.5322
12355TIP3    H258557   3.824   1.663   3.373  2.2448  0.3176  0.7467
12356TIP3   OH258558   0.319   1.333   2.949 -0.2407  0.0343 -0.1839
12356TIP3    H158559   0.312   1.398   2.880 -2.1847  1.2256  1.0507
12356TIP3    H258560   0.233   1.332   2.991  1.2774  0.7066  3.3534
12357TIP3   OH258561   0.316   5.824   0.261 -0.1514  0.3408 -0.4658
12357TIP3    H158562   0.362   5.760   0.206 -0.2164  0.7091 -0.9506
12357TIP3    H258563   0.276   5.771   0.330  1.9190  0.1123  0.6372
12358TIP3   OH258564   3.461   1.773  11.157 -0.5361 -0.3111 -0.1356
12358TIP3    H158565   3.526   1.741  11.220 -2.1155 -2.9740  0.2683
12358TIP3    H258566   3.400   1.824  11.211 -1.1674 -1.4948  0.2957
12359TIP3   OH258567   2.662   5.642   3.261 -0.9054 -0.5903  0.2965
12359TIP3    H158568   2.612   5.723   3.252 -0.4519 -0.4225 -0.8485
12359TIP3    H258569   2.748   5.671   3.292 -0.3049 -0.4771 -1.4178
12360TIP3   OH258570   3.871   4.336   2.003 -0.2053 -0.3098  0.4901
12360TIP3    H158571   3.866   4.427   1.975 -1.5475 -0.1046  1.2912
12360TIP3    H258572   3.956   4.328   2.046  0.8143 -0.0032 -1.3843
12361TIP3   OH258573   3.063   6.822  16.947 -0.4007 -0.2894  0.8927
12361TIP3    H158574   3.034   6.883  17.015  3.3190  1.4120  1.2010
12361TIP3    H258575   3.097   6.878  16.878  2.3162 -1.9155  0.7669
12362TIP3   OH258576   2.584   5.916   3.355  0.3296  0.0396 -0.3839
12362TIP3    H158577   2.663   5.941   3.402  0.5364  0.8907 -1.1597
12362TIP3    H258578   2.526   5.879   3.422  0.4852  1.4984  0.5981
12363TIP3   OH258579   4.036   1.238  12.772 -0.2490 -0.5787 -0.0547
12363TIP3    H158580   3.967   1.304  12.760  1.0843  0.8137 -0.4796
12363TIP3    H258581   4.109   1.287  12.810  0.8757 -1.7902 -0.5886
12364TIP3   OH258582   1.762   6.503   2.362 -0.7899 -0.0721 -0.3917
12364TIP3    H158583   1.841   6.458   2.392 -1.3251  0.5404  2.2325
12364TIP3    H258584   1.768   6.590   2.401 -2.9916 -0.1966  0.3632
12365TIP3   OH258585   2.894   6.240   4.436 -0.0418 -0.0993 -0.7850
12365TIP3    H158586   2.861   6.297   4.505 -0.6062 -0.1496 -1.0050
12365TIP3    H258587   2.985   6.225   4.459 -0.7400 -1.9113  1.1998
12366TIP3   OH258588   4.983   6.224  13.624  0.9000  0.1873 -0.7135
12366TIP3    H158589   4.971   6.318  13.631 -2.0323 -0.2111  1.1663
12366TIP3    H258590   5.047   6.202  13.692  0.0598  0.6334  0.2458
12367TIP3   OH258591   2.256   0.991  12.688  0.0313 -0.1487  0.1386
12367TIP3    H158592   2.311   0.938  12.630 -0.9849 -0.1030 -0.8999
12367TIP3    H258593   2.272   1.081  12.661  0.7113 -0.0034  0.9800
12368TIP3   OH258594   3.472   4.020   6.640  0.3411 -0.3400  0.2821
12368TIP3    H158595   3.564   4.006   6.618  1.0860  1.4272  2.0140
12368TIP3    H258596   3.466   3.997   6.733 -0.8240  0.1913  0.3489
12369TIP3   OH258597   0.923   3.365  11.732 -0.1969  0.0291  0.2975
12369TIP3    H158598   1.016   3.382  11.716  0.1116 -1.4494  0.4091
12369TIP3    H258599   0.877   3.421  11.669  0.6845  2.0077  1.3293
12370TIP3   OH258600   2.955   0.472  11.669  0.0124  0.7076  0.8119
12370TIP3    H158601   3.039   0.517  11.660  0.4169 -0.2220 -0.3623
12370TIP3    H258602   2.931   0.483  11.761  1.5402  0.7863  1.2242
12371TIP3   OH258603   1.611   5.115  12.791 -0.1425  0.7095 -0.0442
12371TIP3    H158604   1.554   5.188  12.767 -1.4429  0.6175  2.4007
12371TIP3    H258605   1.635   5.133  12.882  0.9162 -1.0396  0.0607
12372TIP3   OH258606   2.009   4.598   0.312 -0.4924 -0.1434 -0.1869
12372TIP3    H158607   1.939   4.615   0.249  0.7903  1.6415 -1.2065
12372TIP3    H258608   2.084   4.571   0.259  1.2487  3.3494  0.1770
12373TIP3   OH258609   4.540   5.355   5.670  0.3703 -0.2318  0.4436
12373TIP3    H158610   4.546   5.267   5.631  0.8698  1.1257 -2.9421
12373TIP3    H258611   4.631   5.387   5.670 -0.0331  1.0062 -0.3905
12374TIP3   OH258612   3.507   2.674  14.493  0.0611  0.1186 -0.4790
12374TIP3    H158613   3.499   2.684  14.588 -0.8578  0.4871 -0.5836
12374TIP3    H258614   3.575   2.608  14.481  2.6470  2.4531  0.3651
12375TIP3   OH258615   3.490   5.605   6.164 -0.0212  0.1615  0.2366
12375TIP3    H158616   3.543   5.539   6.210 -1.8985 -0.6139  1.4142
12375TIP3    H258617   3.485   5.678   6.225 -0.5334  0.1110  0.2577
12376TIP3   OH258618   3.728   0.248   4.822 -0.1931 -0.1951  0.0885
12376TIP3    H158619   3.759   0.334   4.791  0.8294 -0.3081  0.7614
12376TIP3    H258620   3.672   0.269   4.897 -3.6271  0.1734 -2.2974
12377TIP3   OH258621   0.767   4.565   1.229 -0.1725  0.2579  0.2312
12377TIP3    H158622   0.675   4.565   1.202 -0.5024  1.3671  1.2334
12377TIP3    H258623   0.766   4.611   1.313  1.5153  1.8233 -0.5443
12378TIP3   OH258624   6.825   5.670  15.984  0.8669  0.1512 -0.0846
12378TIP3    H158625   6.916   5.674  16.014  0.2985  0.7027  1.6964
12378TIP3    H258626   6.788   5.754  16.011 -0.8660 -1.0898  1.7161
12379TIP3   OH258627   6.166   3.569  12.302  0.2898  0.0466  0.0561
12379TIP3    H158628   6.191   3.508  12.233 -0.1444  1.4545 -1.3908
12379TIP3    H258629   6.226   3.549  12.374  2.4031  0.1387 -1.5924
12380TIP3   OH258630   3.310   3.947  14.899 -0.2477 -0.3040 -0.3294
12380TIP3    H158631   3.329   3.900  14.818 -1.1152 -0.4780 -0.4356
12380TIP3    H258632   3.234   4.001  14.878  2.4904  3.6568 -1.2335
12381TIP3   OH258633   0.026   4.140   4.589  0.1631  0.1936  0.0850
12381TIP3    H158634  -0.029   4.217   4.579  1.6772  1.3917  0.5748
12381TIP3    H258635   0.047   4.113   4.499  1.4909  1.7976 -0.1456
12382TIP3   OH258636   2.342   6.217   3.474  0.3254  0.0562  0.2168
12382TIP3    H158637   2.404   6.205   3.545  0.1522 -0.6473  0.2573
12382TIP3    H258638   2.306   6.130   3.458  1.6837 -0.1979 -1.9531
12383TIP3   OH258639   2.014   3.960  13.498  0.4392 -0.6748  0.2016
12383TIP3    H158640   2.063   3.986  13.420 -0.0155 -0.4443 -0.0109
12383TIP3    H258641   2.069   3.894  13.540 -0.3242 -2.5271 -1.5483
12384TIP3   OH258642   6.401   1.989   0.241  0.4103  0.4480  0.3984
12384TIP3    H158643   6.361   2.073   0.265  0.7876  0.0425  2.6437
12384TIP3    H258644   6.328   1.934   0.213 -0.0042  1.1080  0.1755
12385TIP3   OH258645   0.929   3.352   4.007  0.0337  0.0749  0.4465
12385TIP3    H158646   0.888   3.408   3.942  2.5536  2.1787  0.4594
12385TIP3    H258647   0.873   3.359   4.084  0.2617  2.7889  0.4729
12386TIP3   OH258648   3.106   2.345  13.775 -0.3697 -0.0687  0.2689
12386TIP3    H158649   3.127   2.369  13.865  0.3522 -1.3971  0.4754
12386TIP3    H258650   3.011   2.355  13.770 -0.4536 -0.2474  1.2609
12387TIP3   OH258651   6.025   2.427  11.242 -0.0390 -0.4068  0.1851
12387TIP3    H158652   5.931   2.408  11.236 -0.6087  1.9912  0.5462
12387TIP3    H258653   6.052   2.445  11.152 -0.2280  0.1449  0.2362
12388TIP3   OH258654   6.528   0.876   5.214  0.7733 -0.2881 -1.0439
12388TIP3    H158655   6.527   0.971   5.209 -1.4679 -0.1868  0.2991
12388TIP3    H258656   6.456   0.853   5.273  1.0799 -2.8321 -1.5172
12389TIP3   OH258657   5.685   4.284  16.019 -0.3585  0.1322 -0.0508
12389TIP3    H158658   5.716   4.324  15.937 -1.1213  1.4057  0.2449
12389TIP3    H258659   5.756   4.299  16.081 -0.0249 -0.3026 -0.3236
12390TIP3   OH258660   3.136   0.692   5.048  0.6607  0.5918 -0.3860
12390TIP3    H158661   3.206   0.755   5.065  1.0276  0.2021 -0.4508
12390TIP3    H258662   3.174   0.629   4.987  0.6958 -0.3859  0.6076
12391TIP3   OH258663   3.546   1.021  14.484 -0.3865  0.8365 -0.1357
12391TIP3    H158664   3.514   1.101  14.525 -0.9694  0.6760 -0.2615
12391TIP3    H258665   3.639   1.019  14.504 -0.8817  0.0219  2.4385
12392TIP3   OH258666   5.646   3.828  14.531 -0.5621  0.3361 -0.0606
12392TIP3    H158667   5.583   3.890  14.568  1.0985  2.1017 -0.0126
12392TIP3    H258668   5.719   3.827  14.593  0.2585 -0.2129 -0.9994
12393TIP3   OH258669   4.486   0.069   2.047 -0.2688 -0.4254 -0.3894
12393TIP3    H158670   4.479   0.072   1.952  1.3221  2.2670 -0.5107
12393TIP3    H258671   4.404   0.107   2.078 -1.4024 -2.5913 -0.5741
12394TIP3   OH258672   2.613   4.189  14.453 -1.3218 -0.0078 -0.2352
12394TIP3    H158673   2.676   4.257  14.430  2.4700 -3.8552 -2.5017
12394TIP3    H258674   2.544   4.197  14.387 -0.7916  1.3254 -0.6596
12395TIP3   OH258675   5.416   5.069   0.422 -0.4004  0.3491  0.0035
12395TIP3    H158676   5.457   5.103   0.343 -1.3781 -0.0650 -0.7055
12395TIP3    H258677   5.488   5.052   0.482  0.2286  2.6739  0.0175
12396TIP3   OH258678   5.266   4.070  11.036 -0.1026 -0.3975  0.5262
12396TIP3    H158679   5.294   4.003  10.974 -0.2430 -0.5789  0.6565
12396TIP3    H258680   5.199   4.119  10.990  0.3888  0.0095  0.2286
12397TIP3   OH258681   6.016   6.448   2.188 -0.8041 -0.3009 -0.1245
12397TIP3    H158682   6.109   6.467   2.177 -1.0784  0.6900 -0.8678
12397TIP3    H258683   6.000   6.459   2.281 -0.6540  1.8699 -0.3141
12398TIP3   OH258684   4.512   4.541   3.610 -0.1328  0.4729 -0.5635
12398TIP3    H158685   4.532   4.484   3.684  0.5389 -0.9996 -1.8118
12398TIP3    H258686   4.439   4.595   3.639 -3.7036 -3.7909 -0.5548
12399TIP3   OH258687   6.590   1.020   6.746 -0.4643  0.8939  0.1888
12399TIP3    H158688   6.627   0.999   6.661 -0.7957 -0.4683  0.3639
12399TIP3    H258689   6.665   1.025   6.805 -0.4401 -1.4443  0.4552
12400TIP3   OH258690   3.793   4.677   3.257  0.3122 -0.3258 -0.4617
12400TIP3    H158691   3.868   4.724   3.292  1.0589 -1.6236 -0.2728
12400TIP3    H258692   3.831   4.611   3.198 -0.7266 -0.4486 -1.0226
12401TIP3   OH258693   3.397   3.409  12.133  0.1446 -0.3064  0.0262
12401TIP3    H158694   3.432   3.369  12.054  1.2934  1.0507 -0.1959
12401TIP3    H258695   3.309   3.439  12.109 -0.0108 -1.0485 -0.3396
12402TIP3   OH258696   5.787   5.898  13.468  0.3049  0.4727  0.4472
12402TIP3    H158697   5.880   5.876  13.476  0.1544  0.0375  1.1126
12402TIP3    H258698   5.746   5.855  13.543 -0.6832 -0.7507 -0.7429
12403TIP3   OH258699   6.527   2.154   2.966  0.1221  0.2418 -0.3276
12403TIP3    H158700   6.460   2.182   2.904 -0.2610  0.2897  0.0949
12403TIP3    H258701   6.499   2.192   3.050 -1.1569 -2.3747  0.5738
12404TIP3   OH258702   4.462   0.464  14.014 -0.1577 -0.1560 -0.4376
12404TIP3    H158703   4.429   0.454  13.925  0.5265  0.8071 -0.8128
12404TIP3    H258704   4.452   0.377  14.053 -1.3803 -0.3487 -1.1242
12405TIP3   OH258705   3.882   1.700   0.571 -0.1915 -0.2399  0.1159
12405TIP3    H158706   3.818   1.672   0.636  0.9599  0.0578  1.4162
12405TIP3    H258707   3.863   1.792   0.556 -0.1324 -0.1742  0.4371
12406TIP3   OH258708   6.755   5.090  12.403 -0.9047  0.1181  0.9404
12406TIP3    H158709   6.837   5.120  12.443 -1.3103  0.6472  1.3740
12406TIP3    H258710   6.705   5.169  12.388 -0.2910  0.0746 -1.7543
12407TIP3   OH258711   1.604   2.511  14.760 -0.3789 -0.1261 -0.3167
12407TIP3    H158712   1.624   2.425  14.797 -2.2429 -0.9593 -1.1024
12407TIP3    H258713   1.557   2.492  14.679 -1.2667  1.6193 -0.2599
12408TIP3   OH258714   2.410   1.558   2.477 -0.4580  0.4578  0.0194
12408TIP3    H158715   2.465   1.614   2.532  0.0086 -0.2738  0.3006
12408TIP3    H258716   2.336   1.614   2.453  0.9723  1.8555 -1.3565
12409TIP3   OH258717   4.907   4.270  14.052  0.4303  0.0622  0.0105
12409TIP3    H158718   4.813   4.268  14.035  0.2731 -1.4865  0.9366
12409TIP3    H258719   4.947   4.246  13.968 -0.0525 -0.6321 -0.0233
12410TIP3   OH258720   5.217   1.367  13.008 -0.0082 -0.0010 -0.1258
12410TIP3    H158721   5.171   1.379  12.925 -0.9169 -1.3914  0.1495
12410TIP3    H258722   5.299   1.324  12.984  0.5418  1.2063 -0.4697
12411TIP3   OH258723   3.456   3.764   5.334  0.4659 -0.2418 -0.2284
12411TIP3    H158724   3.471   3.808   5.250  1.0654 -0.2692 -0.1381
12411TIP3    H258725   3.421   3.833   5.391  0.2238 -0.1820 -0.4436
12412TIP3   OH258726   6.730   0.192   5.594  0.4926  0.2403 -0.0468
12412TIP3    H158727   6.676   0.149   5.660  0.2797  1.0716  0.3250
12412TIP3    H258728   6.794   0.125   5.569  0.7695 -0.0007  1.2207
12413TIP3   OH258729   0.429   1.517   4.520 -0.2180  0.7465  0.1871
12413TIP3    H158730   0.367   1.483   4.584  1.8599 -0.9748  1.4116
12413TIP3    H258731   0.493   1.447   4.508 -0.1643  1.2274 -3.3793
12414TIP3   OH258732   0.223   4.451  11.454 -0.2837  0.2836 -0.4207
12414TIP3    H158733   0.203   4.359  11.468 -0.3117  0.4877  1.0376
12414TIP3    H258734   0.314   4.460  11.483  0.1080  0.4808 -1.6890
12415TIP3   OH258735   4.524   1.611   5.363  0.3866 -0.3189  0.4054
12415TIP3    H158736   4.507   1.671   5.435  0.6167  0.7402 -0.3843
12415TIP3    H258737   4.438   1.594   5.326  0.3745  0.0562  0.2459
12416TIP3   OH258738   6.825   0.799   0.043  0.5623  0.4621  0.2024
12416TIP3    H158739   6.879   0.865   0.000 -0.7789  0.5148 -1.5221
12416TIP3    H258740   6.882   0.723   0.051  1.5735  1.2248  0.5557
12417TIP3   OH258741   5.645   1.494  11.980 -0.3333  0.1539  0.3400
12417TIP3    H158742   5.718   1.475  12.039 -1.1984 -0.4063  1.2392
12417TIP3    H258743   5.647   1.423  11.917 -0.8835 -0.5680  1.1258
12418TIP3   OH258744   2.837   0.071  12.962 -0.6501 -0.0140  0.4215
12418TIP3    H158745   2.805   0.152  12.922  1.7857 -0.1013 -2.0690
12418TIP3    H258746   2.899   0.101  13.029  0.3341  0.2637 -0.5724
12419TIP3   OH258747   3.570   4.924   0.740  0.3969 -0.2104 -0.7916
12419TIP3    H158748   3.618   4.855   0.693  0.9098 -0.9977  0.8196
12419TIP3    H258749   3.608   4.924   0.828 -1.6202  0.1000  0.1259
12420TIP3   OH258750   4.177   5.734  16.756 -0.0048  0.4563  0.2981
12420TIP3    H158751   4.191   5.824  16.727  0.7784 -0.2574 -1.6986
12420TIP3    H258752   4.086   5.715  16.731  0.6747 -0.1677 -1.9485
12421TIP3   OH258753   2.228   4.529   5.567 -0.4165  0.1226 -0.0087
12421TIP3    H158754   2.152   4.586   5.580 -0.8259 -0.2936 -0.5413
12421TIP3    H258755   2.196   4.442   5.593 -0.2810 -0.1463 -0.7422
12422TIP3   OH258756   6.446   0.670   5.016 -0.1698 -0.0340  0.1223
12422TIP3    H158757   6.356   0.676   5.049  0.8961 -0.2561  3.4032
12422TIP3    H258758   6.484   0.756   5.036  0.8267 -0.5139  0.3130
12423TIP3   OH258759   3.592   4.709  12.086 -0.3237  0.1387 -0.6077
12423TIP3    H158760   3.685   4.718  12.067 -0.2810 -1.1931 -1.1210
12423TIP3    H258761   3.557   4.798  12.074  0.8012  0.5801 -0.7718
12424TIP3   OH258762   4.708   4.118   0.089  0.2921  0.2786  0.3367
12424TIP3    H158763   4.740   4.148   0.004 -1.4473  1.0466 -0.0761
12424TIP3    H258764   4.703   4.198   0.142 -0.2796  0.0679  0.6018
12425TIP3   OH258765   1.459   6.432  17.237  0.2450  0.0549 -0.3140
12425TIP3    H158766   1.508   6.514  17.228 -0.7864  0.5134 -2.4947
12425TIP3    H258767   1.368   6.458  17.227 -0.3017 -1.1006  1.2664
12426TIP3   OH258768   2.327   6.036  15.502  0.6399 -0.5698  0.5376
12426TIP3    H158769   2.279   5.969  15.551  0.4813  0.2485  1.5319
12426TIP3    H258770   2.338   6.108  15.564 -0.3225  0.8627 -0.8810
12427TIP3   OH258771   5.478   6.042   0.083  0.4841 -0.8641 -0.4439
12427TIP3    H158772   5.507   5.963   0.129 -1.2137 -0.4009  1.5721
12427TIP3    H258773   5.437   6.009   0.002  0.8672 -1.9397 -0.2158
12428TIP3   OH258774   5.564   3.561  16.380  0.1135 -0.8850  0.1190
12428TIP3    H158775   5.654   3.529  16.389  1.4202  2.6995  1.8149
12428TIP3    H258776   5.525   3.547  16.466 -1.0200 -2.4178 -0.6088
12429TIP3   OH258777   4.268   0.171  12.520  0.0955  0.2355  0.4940
12429TIP3    H158778   4.272   0.077  12.505 -1.4252  0.2579 -0.3074
12429TIP3    H258779   4.359   0.199  12.526  0.5832 -1.1785 -0.0213
12430TIP3   OH258780   1.695   4.449  12.748  0.3637  0.2228 -0.0859
12430TIP3    H158781   1.637   4.493  12.811 -0.3632 -1.0351  0.1542
12430TIP3    H258782   1.781   4.486  12.765 -0.0742  0.9255  0.6913
12431TIP3   OH258783   5.341   5.623  10.493  0.7092  0.1498  0.0759
12431TIP3    H158784   5.414   5.562  10.491  0.6456  0.0954 -1.1364
12431TIP3    H258785   5.373   5.701  10.450  0.1843  0.2810 -0.0871
12432TIP3   OH258786   6.309   3.918  14.673  0.3172 -0.5189 -0.1739
12432TIP3    H158787   6.259   3.944  14.596 -0.7002 -1.0429  0.2695
12432TIP3    H258788   6.254   3.851  14.714  1.5107 -1.2836  0.2275
12433TIP3   OH258789   5.050   1.662  16.086 -0.0186 -0.4627  0.0295
12433TIP3    H158790   5.113   1.732  16.104  0.9237 -1.7026  1.8002
12433TIP3    H258791   4.982   1.705  16.034  1.9768  1.0606 -1.4893
12434TIP3   OH258792   1.704   6.333   1.003 -0.6967 -0.1536 -0.4586
12434TIP3    H158793   1.726   6.242   1.025 -2.0290 -1.1080 -2.7050
12434TIP3    H258794   1.772   6.360   0.942 -0.4116  0.2896  0.0559
12435TIP3   OH258795   6.492   0.472   3.400 -0.0114 -0.0584  0.7153
12435TIP3    H158796   6.481   0.513   3.486  1.6103 -0.8936  1.3559
12435TIP3    H258797   6.579   0.434   3.403  0.5702  0.9493 -1.7734
12436TIP3   OH258798   4.532   3.931  13.680 -0.4849 -0.8209  0.0526
12436TIP3    H158799   4.537   3.978  13.763  1.7253  0.1710 -0.5911
12436TIP3    H258800   4.552   3.840  13.703  1.0768 -0.3875  0.5060
12437TIP3   OH258801   4.867   0.143  11.932  0.7268 -0.0623 -0.1807
12437TIP3    H158802   4.798   0.201  11.963 -1.6145 -2.3078 -0.9101
12437TIP3    H258803   4.948   0.194  11.944 -0.7695  1.9233  2.5933
12438TIP3   OH258804   5.782   1.516  10.716 -0.0472  0.2684 -0.4725
12438TIP3    H158805   5.711   1.548  10.660 -0.0025 -0.4652 -0.9616
12438TIP3    H258806   5.740   1.452  10.773  0.2817 -0.3804 -0.9612
12439TIP3   OH258807   4.173   0.536  14.238  0.1568  0.1138  0.2909
12439TIP3    H158808   4.221   0.526  14.321 -0.3752  3.2800  1.1175
12439TIP3    H258809   4.085   0.504  14.258  0.5999 -1.2081  0.2277
12440TIP3   OH258810   3.336   1.607   6.182  0.0590 -0.1341  0.6023
12440TIP3    H158811   3.418   1.564   6.207  0.8827  0.7103 -0.5428
12440TIP3    H258812   3.267   1.547   6.212  1.1184 -1.4389  0.5074
12441TIP3   OH258813   5.395   6.046  12.379  0.6468 -0.0332  0.7230
12441TIP3    H158814   5.328   6.055  12.312 -2.1289 -0.7412  3.1842
12441TIP3    H258815   5.454   5.978  12.345 -0.3591 -0.0238 -1.1552
12442TIP3   OH258816   4.097   5.417   5.273  0.7253 -0.2368  0.0609
12442TIP3    H158817   4.083   5.508   5.246  0.5366 -0.5395 -0.8977
12442TIP3    H258818   4.193   5.407   5.275  0.7787 -0.6752 -2.2297
12443TIP3   OH258819   3.681   2.646   5.891  0.6001 -0.0089  0.3571
12443TIP3    H158820   3.748   2.659   5.959  0.6935 -1.8824  0.6657
12443TIP3    H258821   3.598   2.660   5.937  0.6647 -1.2260  0.8870
12444TIP3   OH258822   3.027   3.760  15.220 -0.6762 -0.2855  0.5247
12444TIP3    H158823   3.029   3.748  15.125 -0.0617  0.4377  0.4353
12444TIP3    H258824   3.093   3.827  15.237 -0.2575 -0.9166  1.5341
12445TIP3   OH258825   2.409   6.109   0.992 -0.1477  0.5615  0.2810
12445TIP3    H158826   2.464   6.125   0.915 -1.3544  1.7605 -0.3876
12445TIP3    H258827   2.324   6.083   0.955  0.3570 -3.0776  1.2858
12446TIP3   OH258828   1.893   5.825   5.184  0.5500  0.2761  0.0592
12446TIP3    H158829   1.819   5.871   5.224 -1.3476 -1.5849 -1.1441
12446TIP3    H258830   1.970   5.859   5.230 -1.1344  1.4022  2.2082
12447TIP3   OH258831   6.225   0.908   3.456 -0.1449  0.4793  0.4652
12447TIP3    H158832   6.248   0.843   3.523 -2.1316 -0.3135  0.4560
12447TIP3    H258833   6.209   0.988   3.505 -1.9925 -0.1990  1.0578
12448TIP3   OH258834   1.133   4.714  12.175  0.1954 -0.0857  0.6024
12448TIP3    H158835   1.091   4.759  12.249  0.4583 -0.6386  1.1013
12448TIP3    H258836   1.144   4.781  12.109 -1.5568  0.0753  0.4238
12449TIP3   OH258837   4.400   6.397  16.715  0.2049 -0.3653 -0.2566
12449TIP3    H158838   4.475   6.456  16.724 -0.2956  0.0311  1.6408
12449TIP3    H258839   4.439   6.311  16.702  0.9744 -0.0466 -0.1501
12450TIP3   OH258840   5.762   3.172   0.771  0.1746  0.0782 -0.0919
12450TIP3    H158841   5.696   3.234   0.801  0.2462  1.3705 -2.3964
12450TIP3    H258842   5.729   3.087   0.800 -0.8548  0.9694  1.5396
12451TIP3   OH258843   3.931   4.949   5.939  0.1009  0.2320 -0.1976
12451TIP3    H158844   4.026   4.942   5.934  0.0523  0.3227 -2.0842
12451TIP3    H258845   3.915   5.037   5.973  0.7023  0.5754 -0.7760
12452TIP3   OH258846   0.655   1.135  14.429 -0.2781  0.5488 -0.1740
12452TIP3    H158847   0.581   1.114  14.486  0.6424 -0.6662  0.6215
12452TIP3    H258848   0.617   1.190  14.360 -1.5349  1.5339  1.2450
12453TIP3   OH258849   0.705   0.537   6.266 -0.0179  0.1043 -0.4729
12453TIP3    H158850   0.729   0.515   6.176  0.9089  2.4191 -0.8449
12453TIP3    H258851   0.782   0.580   6.302 -0.9315  0.6725  0.8990
12454TIP3   OH258852   1.775   2.966  16.209  0.2077 -0.4654 -0.1401
12454TIP3    H158853   1.741   3.010  16.286 -0.6417 -0.9603 -0.2257
12454TIP3    H258854   1.748   3.022  16.136 -0.2035 -0.7262 -0.1882
12455TIP3   OH258855   4.914   1.848   0.066 -0.7114 -0.0089  0.1474
12455TIP3    H158856   4.860   1.903   0.122  0.1340  1.6724 -0.6442
12455TIP3    H258857   4.958   1.788   0.127 -0.3382  1.3221  1.2257
12456TIP3   OH258858   0.138   3.471   2.909  0.9550 -0.2704  0.5966
12456TIP3    H158859   0.212   3.531   2.916  0.0055  0.9296  0.6227
12456TIP3    H258860   0.061   3.525   2.929  0.0984 -1.5636  0.9149
12457TIP3   OH258861   2.129   5.045  11.222 -0.1948  0.2151  0.3002
12457TIP3    H158862   2.056   4.984  11.235 -0.5850  0.6257  0.0548
12457TIP3    H258863   2.193   4.994  11.172 -0.5390  0.0150  0.0504
12458TIP3   OH258864   5.445   1.689  16.630 -0.0609  0.5824 -0.0088
12458TIP3    H158865   5.475   1.766  16.582  3.2042 -1.8771 -2.4184
12458TIP3    H258866   5.401   1.635  16.564  0.1825 -0.7983  0.9114
12459TIP3   OH258867   6.435   4.481  11.578 -0.3049  0.1861 -0.5911
12459TIP3    H158868   6.362   4.528  11.538 -1.1506 -1.7764 -1.5081
12459TIP3    H258869   6.422   4.492  11.673 -0.4907  1.6890 -0.7700
12460TIP3   OH258870   5.108   5.080  15.091  0.6796  0.0570 -0.8429
12460TIP3    H158871   5.026   5.126  15.106  0.2521 -1.4448  2.2088
12460TIP3    H258872   5.090   5.023  15.016 -0.4558  1.0768 -1.3732
12461TIP3   OH258873   1.139   3.958   2.017 -0.8419  0.0084  0.2369
12461TIP3    H158874   1.179   3.920   2.096  0.9574  1.8448  0.2942
12461TIP3    H258875   1.093   3.885   1.976 -0.8866 -1.2664  2.3819
12462TIP3   OH258876   6.414   6.197  15.895 -0.1169  1.0119 -0.4320
12462TIP3    H158877   6.383   6.264  15.833  2.2263  1.0345 -1.7151
12462TIP3    H258878   6.464   6.136  15.841  0.7667  0.1896  1.2303
12463TIP3   OH258879   0.508   3.577   0.825 -0.1813 -0.0985 -0.4284
12463TIP3    H158880   0.543   3.657   0.863 -2.0079  0.4717  0.1595
12463TIP3    H258881   0.466   3.606   0.744 -0.2817 -0.5760 -0.5506
12464TIP3   OH258882   1.324   1.371   2.255 -0.2579 -0.1630  0.2209
12464TIP3    H158883   1.404   1.403   2.211  0.2684  0.9637  1.8980
12464TIP3    H258884   1.340   1.388   2.348 -1.5793 -1.9215  0.8146
12465TIP3   OH258885   2.636   0.771   3.771  0.2077 -0.0236  0.4462
12465TIP3    H158886   2.605   0.837   3.834 -0.0392  0.3831 -0.0932
12465TIP3    H258887   2.659   0.822   3.693  0.6517 -0.5102  0.2566
12466TIP3   OH258888   6.216   0.974  14.424  0.4081  0.2217 -0.0004
12466TIP3    H158889   6.243   1.060  14.390  2.0337 -0.1473  0.2489
12466TIP3    H258890   6.252   0.972  14.513 -0.5028 -0.3282  0.3663
12467TIP3   OH258891   1.594   6.344  11.963 -0.0903  0.3498 -0.3689
12467TIP3    H158892   1.594   6.357  11.869 -1.2203  0.8007 -0.3269
12467TIP3    H258893   1.583   6.249  11.975  2.2607 -0.0158 -0.6645
12468TIP3   OH258894   1.401   4.465  11.141 -0.2688 -0.2912 -0.3618
12468TIP3    H158895   1.464   4.508  11.198 -1.3898 -1.1728  1.6471
12468TIP3    H258896   1.368   4.391  11.192 -2.5628 -0.1591 -1.4959
12469TIP3   OH258897   5.173   2.104  13.236 -0.7997 -0.2912  0.4191
12469TIP3    H158898   5.170   2.071  13.326  1.0332 -1.2326  0.1597
12469TIP3    H258899   5.166   2.026  13.181  0.4951  0.0207 -0.2226
12470TIP3   OH258900   4.171   6.768  12.367 -0.8721  0.2518 -0.0203
12470TIP3    H158901   4.157   6.849  12.317 -0.3710 -0.0986 -0.7552
12470TIP3    H258902   4.100   6.710  12.340  1.1776 -1.1405 -2.9346
12471TIP3   OH258903   3.702   0.606   0.331 -0.1135  0.1201  0.9836
12471TIP3    H158904   3.640   0.669   0.367 -1.4506 -1.5020  1.6500
12471TIP3    H258905   3.784   0.626   0.376 -0.8686  0.4708  2.2580
12472TIP3   OH258906   2.600   4.718  13.949  0.0847 -0.8909 -0.0170
12472TIP3    H158907   2.664   4.763  13.895  0.8355 -0.5562  1.1079
12472TIP3    H258908   2.569   4.785  14.011 -1.6621 -0.9322 -0.7779
12473TIP3   OH258909   3.042   5.112  12.493 -0.2262 -0.6481  0.1521
12473TIP3    H158910   3.042   5.191  12.547  1.1604  0.6353 -1.5865
12473TIP3    H258911   2.950   5.086  12.486 -0.7158  0.8960  0.6504
12474TIP3   OH258912   1.826   2.865  12.690 -0.4388  0.0753 -0.9556
12474TIP3    H158913   1.897   2.852  12.628  0.6856  0.6576  0.1796
12474TIP3    H258914   1.849   2.810  12.765 -1.0284  0.5219 -0.4378
12475TIP3   OH258915   3.451   6.548  14.592 -0.3142  0.7206 -0.1221
12475TIP3    H158916   3.431   6.636  14.558 -0.8788  1.1518  1.2683
12475TIP3    H258917   3.460   6.560  14.686 -0.9982 -0.8246  0.1695
12476TIP3   OH258918   1.742   4.201  11.980 -0.1634 -0.5855  0.3507
12476TIP3    H158919   1.684   4.152  12.038 -0.1325 -0.8513  0.1566
12476TIP3    H258920   1.785   4.265  12.038 -0.3736 -0.6314  0.5598
12477TIP3   OH258921   3.541   1.353  17.306  0.4055  0.0851  0.4454
12477TIP3    H158922   3.531   1.259  17.323 -0.9738  0.1883  0.3144
12477TIP3    H258923   3.583   1.387  17.385 -0.6908 -0.3718  1.2471
12478TIP3   OH258924   4.961   3.356   2.989  0.3576 -0.4362 -0.3328
12478TIP3    H158925   4.909   3.437   2.993 -0.4373 -0.9567 -0.0376
12478TIP3    H258926   4.904   3.293   2.945  0.3684 -1.2934  0.8431
12479TIP3   OH258927   4.979   3.770  11.519  0.1523 -0.3068 -0.0509
12479TIP3    H158928   5.072   3.753  11.510  0.0264 -0.9823 -0.1282
12479TIP3    H258929   4.957   3.740  11.607 -0.3738 -2.0687 -0.7270
12480TIP3   OH258930   6.826   6.360   3.261 -0.0747 -0.0204  0.0050
12480TIP3    H158931   6.802   6.434   3.318 -2.0694 -0.5290 -0.0712
12480TIP3    H258932   6.775   6.374   3.181  0.4147 -0.8770 -0.4685
12481TIP3   OH258933   2.715   5.027   0.827  0.3873 -0.5037  0.3120
12481TIP3    H158934   2.677   4.966   0.890 -0.1865 -1.6299 -1.0880
12481TIP3    H258935   2.784   5.072   0.876  0.1167 -1.5121  1.6688
12482TIP3   OH258936   0.342   5.384   0.687  0.5477  0.1447 -0.5046
12482TIP3    H158937   0.304   5.383   0.599 -1.3611  0.4499  0.2723
12482TIP3    H258938   0.276   5.341   0.742  1.6567  0.0677  0.8100
12483TIP3   OH258939   3.190   6.534   2.201  0.0603  0.0437 -0.3492
12483TIP3    H158940   3.220   6.623   2.217  1.3058 -0.7009  1.9990
12483TIP3    H258941   3.270   6.482   2.195 -0.6504 -1.0279 -0.9714
12484TIP3   OH258942   0.791   3.162   3.311  0.4990 -0.1826  0.0642
12484TIP3    H158943   0.854   3.137   3.378 -0.2702 -3.4416 -0.2263
12484TIP3    H258944   0.716   3.196   3.359  0.6845 -0.7370  0.7549
12485TIP3   OH258945   0.172   0.363  14.107  0.0129  0.5762  0.0973
12485TIP3    H158946   0.097   0.422  14.103 -0.3270  0.2630  1.2984
12485TIP3    H258947   0.219   0.390  14.186  0.4356 -0.0787  0.0748
12486TIP3   OH258948   2.218   5.354  15.098 -0.1640 -0.5899  0.2754
12486TIP3    H158949   2.236   5.428  15.156 -0.3945 -0.2748 -0.0537
12486TIP3    H258950   2.215   5.392  15.011  1.6670 -1.2815 -0.1360
12487TIP3   OH258951   5.725   3.690   0.013 -0.1648  0.1161 -0.1488
12487TIP3    H158952   5.698   3.612   0.062  0.2687 -0.5087 -0.8973
12487TIP3    H258953   5.661   3.757   0.039 -0.5775 -0.4961  0.4579
12488TIP3   OH258954   2.397   3.489   4.023  0.2719  0.1898  0.0548
12488TIP3    H158955   2.448   3.532   4.092 -0.2524  0.9435 -0.0116
12488TIP3    H258956   2.445   3.408   4.004  2.3643  1.6331 -1.1848
12489TIP3   OH258957   5.981   3.361   2.558 -0.0390  0.2107  0.1739
12489TIP3    H158958   6.018   3.353   2.470  1.2008 -2.7984  0.8304
12489TIP3    H258959   6.010   3.282   2.603  0.0584  1.9914  3.5840
12490TIP3   OH258960   5.729   4.076  14.284  0.5001  0.4084 -0.2721
12490TIP3    H158961   5.737   4.010  14.214 -1.2998  0.7325 -0.8534
12490TIP3    H258962   5.669   4.141  14.248 -0.1833  0.7824  1.4534
12491TIP3   OH258963   2.056   0.105   4.448 -0.9437 -0.2081  0.4532
12491TIP3    H158964   2.009   0.164   4.389 -0.8772 -0.5422  0.0589
12491TIP3    H258965   2.148   0.120   4.428 -0.9355 -0.6814  0.1089
12492TIP3   OH258966   1.071   4.052   3.706 -0.2308  0.8021 -0.0101
12492TIP3    H158967   1.102   3.980   3.761 -0.6551  0.0866 -0.7050
12492TIP3    H258968   1.138   4.061   3.639  0.4495  1.8881  0.7752
12493TIP3   OH258969   6.545   2.057  13.177 -0.2867 -0.1377 -0.1845
12493TIP3    H158970   6.528   1.971  13.214 -2.6725  0.6739  0.8373
12493TIP3    H258971   6.490   2.061  13.099  0.5020  0.1467 -0.7345
12494TIP3   OH258972   4.495   0.646   4.564 -0.1534 -0.0960 -0.4362
12494TIP3    H158973   4.453   0.563   4.539  0.1881 -0.2830 -0.4022
12494TIP3    H258974   4.424   0.698   4.602 -0.7849  0.3570 -2.1263
12495TIP3   OH258975   6.007   3.031   4.506  0.5037 -0.3979 -0.0575
12495TIP3    H158976   6.094   3.034   4.465  0.1294  0.0582 -0.8244
12495TIP3    H258977   5.979   2.940   4.496  0.0497 -0.1149 -1.6164
12496TIP3   OH258978   6.198   2.341  11.788  0.8315 -0.3355 -0.1043
12496TIP3    H158979   6.110   2.305  11.794  0.6752  0.0226 -0.2299
12496TIP3    H258980   6.193   2.405  11.716  0.8687  0.6121  0.7220
12497TIP3   OH258981   5.507   6.269  15.655  0.8592 -0.1773 -0.0121
12497TIP3    H158982   5.582   6.266  15.714 -0.6832 -1.3654  2.0253
12497TIP3    H258983   5.488   6.362  15.646  1.5870  0.0655  0.7791
12498TIP3   OH258984   2.696   0.844  11.650  0.3103  0.2417 -0.5246
12498TIP3    H158985   2.607   0.870  11.626  0.1120 -0.2191 -0.2917
12498TIP3    H258986   2.685   0.765  11.702  0.7844  0.8390  0.5196
12499TIP3   OH258987   2.782   0.267   0.111 -0.3686 -0.4054  0.1453
12499TIP3    H158988   2.852   0.215   0.149 -0.8205 -0.9249  0.2698
12499TIP3    H258989   2.760   0.221   0.030 -1.8549 -1.3156  1.0375
12500TIP3   OH258990   2.024   1.948  12.030 -0.3114  0.3076  0.2333
12500TIP3    H158991   2.072   1.963  12.111 -0.5868  0.4810  0.3692
12500TIP3    H258992   2.088   1.963  11.960 -0.3975  1.4622  0.3859
12501TIP3   OH258993   6.056   4.783   4.009  0.5651 -0.2198  0.3302
12501TIP3    H158994   6.014   4.729   4.076 -1.0280  1.3146  0.6445
12501TIP3    H258995   6.007   4.865   4.011  1.1551  0.2472 -2.0137
12502TIP3   OH258996   0.701   1.642   3.148  0.3577 -0.7167  0.0883
12502TIP3    H158997   0.704   1.548   3.131 -1.8125 -0.8730  0.3320
12502TIP3    H258998   0.664   1.649   3.236  0.9290  0.3584  0.2526
12503TIP3   OH258999   0.715   2.937   3.169 -0.1872 -0.2312 -0.1049
12503TIP3    H159000   0.733   3.013   3.225  1.5821 -1.4183  1.0129
12503TIP3    H259001   0.674   2.975   3.091  2.2342  2.1135 -0.3716
12504TIP3   OH259002   3.224   1.829   0.163  0.5939 -0.1335 -0.3317
12504TIP3    H159003   3.275   1.907   0.187 -1.1681  0.7215  0.8718
12504TIP3    H259004   3.188   1.797   0.246 -1.7536  0.0123 -1.2112
12505TIP3   OH259005   2.386   2.155   2.654 -0.8866 -0.3656 -0.4798
12505TIP3    H159006   2.444   2.175   2.580 -1.7233  1.6366 -0.6579
12505TIP3    H259007   2.365   2.062   2.644 -1.2868 -0.0605 -2.9969
12506TIP3   OH259008   2.409   1.859  11.483 -0.2290 -0.2419  0.3365
12506TIP3    H159009   2.384   1.846  11.392 -0.9066  0.4666  0.4118
12506TIP3    H259010   2.497   1.897  11.479  0.2632 -1.3741  0.0274
12507TIP3   OH259011   0.669   4.297   3.026  0.6946 -0.0665 -0.1232
12507TIP3    H159012   0.708   4.236   2.964  2.8749  0.1084  0.9897
12507TIP3    H259013   0.732   4.302   3.098 -1.7467 -0.3858  2.2275
12508TIP3   OH259014   5.411   5.183  11.421 -0.1404  0.0537 -0.2225
12508TIP3    H159015   5.401   5.278  11.421  0.3642  0.1309  1.4891
12508TIP3    H259016   5.491   5.167  11.371 -0.2548  0.5058 -0.5568
12509TIP3   OH259017   6.665   4.077  12.086 -0.2317  0.5126  0.4931
12509TIP3    H159018   6.723   4.111  12.019  0.1099  2.7667  1.8265
12509TIP3    H259019   6.722   4.027  12.144 -0.4955 -1.2728 -0.7258
12510TIP3   OH259020   1.735   0.240  16.434 -0.0781 -0.2144  0.2747
12510TIP3    H159021   1.794   0.165  16.443  0.6317  0.1553 -0.9646
12510TIP3    H259022   1.777   0.295  16.368 -1.7970  0.0990 -0.6083
12511TIP3   OH259023   0.068   4.240   5.618 -0.2467  0.1626 -0.1337
12511TIP3    H159024   0.160   4.232   5.643 -0.7687 -1.9637  1.3672
12511TIP3    H259025   0.041   4.151   5.596 -2.0209  0.7044 -0.3285
12512TIP3   OH259026   6.686   6.506  11.715 -0.2501 -0.1043  0.4963
12512TIP3    H159027   6.611   6.447  11.720  0.9736 -1.8519 -0.8254
12512TIP3    H259028   6.669   6.562  11.640 -1.2158  1.0394  1.5105
12513TIP3   OH259029   1.119   4.737  12.947 -0.4990 -0.1282 -0.4469
12513TIP3    H159030   1.174   4.754  13.024 -0.4677 -2.3164  0.0958
12513TIP3    H259031   1.162   4.785  12.876  1.8470 -1.3008  0.0751
12514TIP3   OH259032   0.963   1.247  11.029 -0.1348 -0.1658  0.1288
12514TIP3    H159033   0.896   1.308  10.997  0.3962 -1.2895 -3.5815
12514TIP3    H259034   0.915   1.165  11.043  0.0786 -0.3799 -0.3775
12515TIP3   OH259035   3.813   6.056  15.851  0.7103 -0.5284  0.2234
12515TIP3    H159036   3.771   5.970  15.854  2.4274 -1.3689  2.0195
12515TIP3    H259037   3.863   6.055  15.769 -1.8080  0.1047 -1.4332
12516TIP3   OH259038   5.969   4.897  12.120 -0.1340 -0.5923 -0.3047
12516TIP3    H159039   6.060   4.920  12.139 -1.3047  2.8094  2.2027
12516TIP3    H259040   5.938   4.853  12.199 -1.0623 -0.3353 -0.5070
12517TIP3   OH259041   4.008   1.717  12.653  0.3569 -0.0738 -0.3094
12517TIP3    H159042   3.954   1.678  12.585 -1.4808  0.2018  0.9259
12517TIP3    H259043   3.983   1.810  12.654  2.0740  0.4283 -0.8011
12518TIP3   OH259044   2.513   0.113  14.585  0.5222  0.6005  0.8336
12518TIP3    H159045   2.461   0.134  14.508  0.0119 -1.5541  0.5367
12518TIP3    H259046   2.449   0.090  14.652  0.9886 -1.9997  0.4879
12519TIP3   OH259047   3.048   2.168   4.102  0.0690  0.0151  0.3045
12519TIP3    H159048   2.984   2.146   4.169  0.3990  0.8685  0.9180
12519TIP3    H259049   3.085   2.251   4.130  0.2700  0.3594 -0.9015
12520TIP3   OH259050   5.692   0.160  11.747 -0.3154 -0.7434  0.1415
12520TIP3    H159051   5.656   0.234  11.796  1.2995 -0.4106  0.9206
12520TIP3    H259052   5.690   0.188  11.656 -0.2076  0.0631  0.3767
12521TIP3   OH259053   4.881   5.785   0.160 -0.1869 -0.2866 -0.7852
12521TIP3    H159054   4.944   5.831   0.215 -0.7772  0.5864 -0.8218
12521TIP3    H259055   4.797   5.799   0.202 -0.2112 -2.7775  0.1532
12522TIP3   OH259056   1.463   5.439   4.208 -0.8070 -0.8520  0.5480
12522TIP3    H159057   1.430   5.465   4.122 -2.3241 -1.6927  0.8303
12522TIP3    H259058   1.461   5.519   4.261  1.1814 -0.0789 -0.4576
12523TIP3   OH259059   1.724   6.158   6.562 -0.4006 -0.0259 -0.4625
12523TIP3    H159060   1.723   6.150   6.658  1.6146 -1.7795 -0.5066
12523TIP3    H259061   1.773   6.239   6.545  0.4882 -0.4525  0.0066
12524TIP3   OH259062   1.012   6.369   4.955 -0.1030  0.0200  0.5382
12524TIP3    H159063   0.960   6.417   5.020 -1.9980 -0.8566 -0.2317
12524TIP3    H259064   0.946   6.322   4.903  1.5636 -2.1886  0.3067
12525TIP3   OH259065   0.509   6.111   1.767 -0.3198 -0.2527 -0.3688
12525TIP3    H159066   0.565   6.159   1.828 -0.9306  0.2203 -0.1687
12525TIP3    H259067   0.452   6.058   1.823 -0.7701  0.0556 -0.5360
12526TIP3   OH259068   4.829   5.105   6.492 -0.4408  0.4627 -0.0506
12526TIP3    H159069   4.890   5.032   6.501  0.5038  1.1863 -0.4490
12526TIP3    H259070   4.806   5.128   6.582 -0.4935 -0.1117  0.0858
12527TIP3   OH259071   6.332   4.064   2.272  0.0349 -0.7168 -0.1020
12527TIP3    H159072   6.308   4.156   2.286 -0.8168 -1.0254  0.5644
12527TIP3    H259073   6.323   4.024   2.358  0.5474 -1.4030 -0.3616
12528TIP3   OH259074   0.858   6.175   3.443  0.1384 -0.1564 -0.5255
12528TIP3    H159075   0.799   6.244   3.473 -0.2834  0.1935 -2.0793
12528TIP3    H259076   0.824   6.150   3.357  1.6980 -0.6098 -1.0425
12529TIP3   OH259077   0.986   3.305  10.908  0.3091  0.5822 -0.6654
12529TIP3    H159078   1.072   3.280  10.874 -0.4672 -1.0447 -1.5560
12529TIP3    H259079   0.938   3.335  10.832 -0.5495 -0.4525 -0.5583
12530TIP3   OH259080   5.759   5.538   1.391 -0.3172  0.2185  0.2086
12530TIP3    H159081   5.854   5.547   1.388 -0.3663  0.7604  0.1742
12530TIP3    H259082   5.740   5.517   1.482 -0.1417 -0.2179  0.1485
12531TIP3   OH259083   5.841   2.924  16.099 -0.8859 -0.2859 -0.6437
12531TIP3    H159084   5.930   2.943  16.130 -1.1123 -0.3357  0.0660
12531TIP3    H259085   5.834   2.969  16.015 -0.2885 -0.0369 -0.5638
12532TIP3   OH259086   5.784   2.246  17.159  0.2484 -0.6308 -0.2023
12532TIP3    H159087   5.817   2.336  17.147  0.2205 -0.0417  3.2072
12532TIP3    H259088   5.689   2.257  17.168  0.2009 -1.0574 -0.1926
12533TIP3   OH259089   5.071   0.444  11.178 -0.0674  0.0317 -0.3259
12533TIP3    H159090   5.095   0.417  11.089  2.7709  1.2330 -0.0482
12533TIP3    H259091   5.085   0.538  11.178  0.7635 -0.0553  1.5657
12534TIP3   OH259092   2.945   6.317  16.797  0.0277  0.4632 -0.4050
12534TIP3    H159093   2.954   6.280  16.885 -0.0441 -0.3811 -0.7466
12534TIP3    H259094   3.033   6.344  16.773 -0.1399  1.7617  0.3775
12535TIP3   OH259095   4.163   3.734  12.173  0.1087  0.1106 -0.2240
12535TIP3    H159096   4.170   3.641  12.154  0.7892  0.2306 -0.6007
12535TIP3    H259097   4.137   3.738  12.265  0.3156 -0.4525 -0.1373
12536TIP3   OH259098   2.685   6.075   0.010 -0.1987 -0.0452  0.7477
12536TIP3    H159099   2.599   6.065  -0.030  0.6582 -2.5659 -0.7260
12536TIP3    H259100   2.684   6.014   0.084  1.2746 -2.8076 -1.2878
12537TIP3   OH259101   0.016   0.564   1.754  0.2371 -0.2360  0.5356
12537TIP3    H159102  -0.026   0.586   1.670 -0.1306 -0.9780  0.5195
12537TIP3    H259103   0.005   0.643   1.807 -2.9686 -0.9791  1.2385
12538TIP3   OH259104   1.887   0.660  16.317 -0.0014  0.2913 -0.6324
12538TIP3    H159105   1.967   0.608  16.316  0.6357  1.2224  0.0898
12538TIP3    H259106   1.839   0.630  16.394  0.4289  0.8524 -0.1399
12539TIP3   OH259107   0.607   0.828   4.695  1.1556  0.0963 -0.0577
12539TIP3    H159108   0.694   0.863   4.717  1.6887 -0.8327 -0.6196
12539TIP3    H259109   0.622   0.776   4.616  0.1184 -0.2163 -0.0561
12540TIP3   OH259110   4.563   3.864  13.234  0.0241 -0.1471 -0.4773
12540TIP3    H159111   4.542   3.941  13.285 -0.0420  0.0486 -0.7964
12540TIP3    H259112   4.596   3.801  13.298 -0.8232 -0.1997 -0.0807
12541TIP3   OH259113   3.196   2.513  10.537 -0.3094  0.3609  0.4327
12541TIP3    H159114   3.218   2.438  10.593 -1.1583 -1.4791 -1.5712
12541TIP3    H259115   3.249   2.500  10.458 -2.6507  0.1752 -1.1897
12542TIP3   OH259116   3.641   5.427   0.047  0.1707  0.4880 -0.0090
12542TIP3    H159117   3.664   5.511   0.086  0.4298  0.3333  0.1805
12542TIP3    H259118   3.580   5.387   0.110 -1.8422  1.5296 -1.2115
12543TIP3   OH259119   6.590   6.521   4.226  0.2224 -0.8748 -0.3921
12543TIP3    H159120   6.562   6.465   4.154 -0.4196  0.0319 -0.8782
12543TIP3    H259121   6.519   6.517   4.289 -0.0924 -0.1875 -0.6879
12544TIP3   OH259122   3.864   1.106  13.948  0.1238  0.2076  0.0514
12544TIP3    H159123   3.921   1.182  13.936 -0.1325  0.8580  2.4500
12544TIP3    H259124   3.783   1.142  13.984 -1.2399 -0.8931 -1.7412
12545TIP3   OH259125   4.570   0.871   4.828  0.0003  0.3375  0.7368
12545TIP3    H159126   4.618   0.893   4.907 -0.3143 -0.2204  1.0897
12545TIP3    H259127   4.615   0.919   4.758 -0.4334  1.7863  1.4118
12546TIP3   OH259128   3.214   2.954  13.643  0.6946  0.0575  0.1158
12546TIP3    H159129   3.282   3.021  13.642 -0.1032  0.8778 -0.6853
12546TIP3    H259130   3.254   2.880  13.689  0.8962  1.8042  2.9862
12547TIP3   OH259131   2.560   2.981  16.452 -0.1630  0.1498 -0.3603
12547TIP3    H159132   2.644   2.936  16.446 -0.8230 -1.3257  0.8747
12547TIP3    H259133   2.565   3.029  16.535 -0.2663  0.6538 -0.6417
12548TIP3   OH259134   4.043   3.274  15.351  0.2683  0.6573 -0.0628
12548TIP3    H159135   3.999   3.312  15.427 -0.7063 -1.7600  0.6779
12548TIP3    H259136   4.057   3.182  15.375  0.8502  0.0722 -2.4135
12549TIP3   OH259137   1.706   2.363  16.646 -0.7436  0.1804 -0.1645
12549TIP3    H159138   1.731   2.280  16.604  0.1571  0.6066 -0.4964
12549TIP3    H259139   1.668   2.415  16.574 -0.5515  0.3559 -0.1422
12550TIP3   OH259140   0.878   3.923   0.946 -0.7169  0.5114  0.2082
12550TIP3    H159141   0.863   3.898   1.037 -1.0407  1.5068  0.4511
12550TIP3    H259142   0.801   3.891   0.900 -0.3385 -0.3981  0.1930
12551TIP3   OH259143   0.667   1.303  13.746  0.5029  0.2100 -0.4266
12551TIP3    H159144   0.645   1.259  13.663 -0.0437  1.5657 -1.0388
12551TIP3    H259145   0.661   1.396  13.725  0.9611  0.5802  1.0030
12552TIP3   OH259146   2.259   1.932  12.866  0.0256  0.0735 -0.5296
12552TIP3    H159147   2.275   1.919  12.773  1.7979 -0.3146 -0.1966
12552TIP3    H259148   2.316   1.869  12.910  0.1142  1.0617  0.8476
12553TIP3   OH259149   1.697   3.401  15.090 -0.1192  0.0108 -0.6742
12553TIP3    H159150   1.762   3.466  15.117  1.3062 -1.3136 -0.7115
12553TIP3    H259151   1.721   3.380  14.999 -1.8568  0.9177 -1.3770
12554TIP3   OH259152   4.792   5.825   2.359  0.1320  1.1406 -0.7153
12554TIP3    H159153   4.851   5.809   2.286 -0.0201 -0.1921 -0.5772
12554TIP3    H259154   4.730   5.752   2.356  0.9618  0.2428  1.5358
12555TIP3   OH259155   3.715   3.123   2.397 -0.0378  0.1965  0.1884
12555TIP3    H159156   3.751   3.039   2.424  0.5625  0.0802 -0.9138
12555TIP3    H259157   3.645   3.141   2.460  0.5814 -0.5697  1.1263
12556TIP3   OH259158   2.092   5.440   0.506  0.0726 -0.6683  0.1762
12556TIP3    H159159   2.095   5.517   0.449 -0.0016 -1.2201 -0.5808
12556TIP3    H259160   2.172   5.391   0.486  1.2653  0.3049  2.2505
12557TIP3   OH259161   0.901   6.428   2.830  0.1880 -0.4694  0.5229
12557TIP3    H159162   0.844   6.476   2.890 -0.3316 -0.0378 -0.2971
12557TIP3    H259163   0.985   6.421   2.877 -0.4587 -0.9033  1.6421
12558TIP3   OH259164   0.084   2.691  12.672 -0.2860  0.2190 -0.0050
12558TIP3    H159165   0.075   2.756  12.741 -0.2427 -0.3717  0.5730
12558TIP3    H259166   0.082   2.607  12.718  0.5676 -0.1625 -0.6298
12559TIP3   OH259167   5.613   2.471  12.830  0.1009  0.3394  0.8671
12559TIP3    H159168   5.631   2.564  12.823  1.1974  0.0582 -0.4942
12559TIP3    H259169   5.555   2.451  12.757  0.7984 -0.2233  0.4433
12560TIP3   OH259170   3.401   1.693   2.042 -0.3762 -0.2289 -0.0658
12560TIP3    H159171   3.431   1.632   2.109  2.6514  1.4445  0.3126
12560TIP3    H259172   3.451   1.668   1.964  1.2568  1.8455  0.2125
12561TIP3   OH259173   0.128   0.555   0.155 -0.0933  0.3782  0.3537
12561TIP3    H159174   0.217   0.561   0.120  0.4607 -0.2894  1.5986
12561TIP3    H259175   0.139   0.527   0.246 -1.5697  0.4754  0.5925
12562TIP3   OH259176   5.249   0.775   0.086  0.3790  0.0399  0.5580
12562TIP3    H159177   5.232   0.701   0.028 -1.5731 -0.1024  1.2521
12562TIP3    H259178   5.250   0.738   0.174  1.4188  0.5478  0.7805
12563TIP3   OH259179   2.398   5.420   2.977 -0.2034  0.1016 -0.2083
12563TIP3    H159180   2.406   5.325   2.964 -1.9622 -0.1879  0.5307
12563TIP3    H259181   2.481   5.455   2.944  0.6477 -1.7133 -0.1682
12564TIP3   OH259182   6.000   1.923  15.682 -0.1954 -0.3370  0.1818
12564TIP3    H159183   6.064   1.964  15.741  0.0322 -2.0766  1.1999
12564TIP3    H259184   5.924   1.980  15.688  0.8114  1.1068 -0.1046
12565TIP3   OH259185   6.156   6.794   4.050 -0.0964 -0.2881 -0.1552
12565TIP3    H159186   6.204   6.741   3.987  0.1491 -0.4142  0.1391
12565TIP3    H259187   6.222   6.824   4.113  0.3494  2.7898 -1.9075
12566TIP3   OH259188   3.136   4.333   4.372  0.0809 -0.0971  0.3001
12566TIP3    H159189   3.054   4.293   4.345  0.9561 -0.9883 -1.1393
12566TIP3    H259190   3.194   4.260   4.391  0.8133  0.5069  0.4681
12567TIP3   OH259191   3.279   2.075  11.046 -0.6067 -0.4284 -0.7994
12567TIP3    H159192   3.246   2.138  11.110  1.0989 -0.6586  0.3549
12567TIP3    H259193   3.222   1.999  11.055 -0.0985 -0.6506  0.8298
12568TIP3   OH259194   3.415   2.051  13.774 -0.3176 -0.4707 -0.1856
12568TIP3    H159195   3.361   2.080  13.846  0.2283  1.2648 -0.4337
12568TIP3    H259196   3.354   2.009  13.713 -0.8866 -1.2699  0.9099
12569TIP3   OH259197   5.846   1.052  16.754  0.0825 -0.3021  0.3296
12569TIP3    H159198   5.890   0.970  16.735 -1.8915 -1.1841 -0.6916
12569TIP3    H259199   5.778   1.029  16.817  1.3569  1.1376  2.3479
12570TIP3   OH259200   1.886   6.503   3.914  0.2187  0.4032  0.2223
12570TIP3    H159201   1.805   6.522   3.867  1.5246  1.7750 -1.6116
12570TIP3    H259202   1.931   6.439   3.858  0.2299 -0.7035  1.4567
12571TIP3   OH259203   1.845   5.718   3.156  0.0182  0.0159  0.3123
12571TIP3    H159204   1.872   5.626   3.162 -1.3351 -0.3163  1.9969
12571TIP3    H259205   1.750   5.716   3.165 -0.1307  1.5334 -0.5998
12572TIP3   OH259206   4.319   5.986   3.779  0.2346  0.0702  0.0631
12572TIP3    H159207   4.380   6.048   3.819  1.0336 -0.9923  0.5255
12572TIP3    H259208   4.286   5.934   3.853 -0.8505  0.2806 -0.2453
12573TIP3   OH259209   4.138   0.453  16.399  0.4578  0.4231  0.3243
12573TIP3    H159210   4.103   0.535  16.436  0.4139  0.7653 -0.4505
12573TIP3    H259211   4.229   0.450  16.428  0.5134  0.8494  0.2094
12574TIP3   OH259212   6.804   6.468  14.903  0.2863  0.1536 -0.4025
12574TIP3    H159213   6.889   6.496  14.870  0.3714  0.4507  0.0611
12574TIP3    H259214   6.802   6.497  14.994 -0.4802  0.5417 -0.5279
12575TIP3   OH259215   3.646   0.474  14.845 -0.2779 -0.6408  0.4698
12575TIP3    H159216   3.719   0.533  14.825 -0.7831 -0.1195  0.1045
12575TIP3    H259217   3.687   0.395  14.879  0.4401 -0.2306  0.5784
12576TIP3   OH259218   5.663   5.586  16.588 -0.2722  0.7959  0.2899
12576TIP3    H159219   5.580   5.610  16.546  0.1090  1.5815 -0.0204
12576TIP3    H259220   5.645   5.595  16.682 -0.1989  2.1445  0.1968
12577TIP3   OH259221   2.585   4.512  12.430 -0.4708 -0.1970 -0.6173
12577TIP3    H159222   2.557   4.535  12.519 -0.6950 -2.2401 -0.0982
12577TIP3    H259223   2.652   4.576  12.408 -0.4864  0.4124  0.9886
12578TIP3   OH259224   3.917   4.970  12.334 -0.5163  0.1413  0.0102
12578TIP3    H159225   4.005   4.936  12.346 -0.5960 -0.8213 -1.7851
12578TIP3    H259226   3.860   4.894  12.344 -0.9152  0.2181 -1.3778
12579TIP3   OH259227   2.178   1.995   0.098  0.8153 -0.7228  0.0709
12579TIP3    H159228   2.270   2.023   0.101  0.8890 -1.0192  1.1181
12579TIP3    H259229   2.155   1.978   0.190 -0.0620 -1.3748 -0.2510
12580TIP3   OH259230   5.643   3.569  13.992 -0.1948 -1.5087  0.0871
12580TIP3    H159231   5.675   3.556  13.903 -0.5522 -1.5389 -0.0354
12580TIP3    H259232   5.548   3.575  13.984 -0.1150  0.6554  0.2011
12581TIP3   OH259233   5.095   4.795  16.688  0.1675 -0.4957 -0.3967
12581TIP3    H159234   5.123   4.756  16.605  0.7594  0.4721 -0.6732
12581TIP3    H259235   5.021   4.741  16.716  0.0481 -0.9294 -1.4862
12582TIP3   OH259236   5.011   6.186   1.526  0.4726  0.3940  0.1984
12582TIP3    H159237   4.973   6.098   1.522  0.9814  0.1292  1.0259
12582TIP3    H259238   4.966   6.229   1.599 -0.6858  1.2826 -0.9903
12583TIP3   OH259239   6.065   2.270   5.510  0.1084  0.1794  0.5001
12583TIP3    H159240   6.091   2.357   5.479  0.2604  0.2522  0.8321
12583TIP3    H259241   5.984   2.251   5.462  0.3731  0.2687  0.0172
12584TIP3   OH259242   3.215   6.800   5.684  0.2329  0.2116 -0.1937
12584TIP3    H159243   3.130   6.824   5.648  0.1419  1.3872  0.7480
12584TIP3    H259244   3.270   6.878   5.668  0.9681 -0.3170 -0.2896
12585TIP3   OH259245   6.734   3.365   5.212 -0.2781 -0.0940 -0.9710
12585TIP3    H159246   6.780   3.419   5.276  0.2061 -0.5895 -0.8884
12585TIP3    H259247   6.719   3.423   5.137  0.3250  0.1256 -0.9283
12586TIP3   OH259248   5.839   6.353  16.336  0.5707  0.0303 -0.2499
12586TIP3    H159249   5.914   6.333  16.392  0.2042 -0.5433  0.0358
12586TIP3    H259250   5.763   6.340  16.393  0.1931 -0.6238 -0.8984
12587TIP3   OH259251   5.295   4.557  11.003  0.5368  0.1390  0.4231
12587TIP3    H159252   5.220   4.512  11.042 -0.1474  0.6769 -0.2435
12587TIP3    H259253   5.371   4.510  11.037  0.1985  2.0336  4.5112
12588TIP3   OH259254   4.302   3.139   5.000 -0.6622  0.0215 -0.1052
12588TIP3    H159255   4.292   3.221   4.951 -0.5263 -0.0846 -0.3130
12588TIP3    H259256   4.378   3.155   5.057  1.6927 -1.1295 -2.6452
12589TIP3   OH259257   5.050   4.721  13.677 -0.2105  0.3524 -0.0476
12589TIP3    H159258   5.140   4.750  13.692 -0.6014  1.0448  0.9930
12589TIP3    H259259   5.026   4.762  13.594  1.0993 -1.4809 -1.4249
12590TIP3   OH259260   6.230   2.706  12.422  0.1012 -0.3286  0.6864
12590TIP3    H159261   6.201   2.624  12.462  0.2377 -1.0194 -0.5645
12590TIP3    H259262   6.318   2.687  12.389 -0.0284  0.1790  0.0116
12591TIP3   OH259263   6.537   5.962   4.759 -0.1485 -1.2366  0.6582
12591TIP3    H159264   6.517   6.015   4.836  1.4893 -1.6865  1.4499
12591TIP3    H259265   6.452   5.941   4.721 -0.8613  1.8288  0.3606
12592TIP3   OH259266   2.660   1.415  13.699 -0.7658  0.1113 -0.0481
12592TIP3    H159267   2.650   1.350  13.629  0.2828 -0.1462  0.0231
12592TIP3    H259268   2.572   1.450  13.712 -0.9863  0.1262 -1.4547
12593TIP3   OH259269   2.631   4.244  12.444  0.2590  0.2061  0.4979
12593TIP3    H159270   2.633   4.223  12.538 -0.2219 -0.0115  0.4610
12593TIP3    H259271   2.591   4.331  12.440  1.1200  0.6243  0.5549
12594TIP3   OH259272   6.769   1.193   4.036 -0.0873 -0.0061 -0.3075
12594TIP3    H159273   6.820   1.270   4.062 -0.4496  0.3599 -0.6468
12594TIP3    H259274   6.833   1.133   3.998  0.1154  0.3926 -0.6067
12595TIP3   OH259275   2.677   2.500  16.110 -0.0351  0.0076 -0.0614
12595TIP3    H159276   2.673   2.524  16.018  0.2023  0.7428  0.1124
12595TIP3    H259277   2.720   2.415  16.112  2.3498  1.1492 -0.4423
12596TIP3   OH259278   5.750   3.098  15.894  0.0087  0.0350 -0.6422
12596TIP3    H159279   5.655   3.098  15.907 -0.1061 -2.8020 -0.8116
12596TIP3    H259280   5.763   3.151  15.815 -1.6946 -1.1159 -1.7643
12597TIP3   OH259281   5.731   1.988  15.697  0.3175 -0.3429 -0.0796
12597TIP3    H159282   5.741   1.903  15.653  0.4193 -0.4202  0.0923
12597TIP3    H259283   5.726   1.966  15.790  0.7310 -0.1286 -0.0083
12598TIP3   OH259284   6.020   5.424   5.526  0.0909 -1.0109 -0.1219
12598TIP3    H159285   5.990   5.448   5.438 -1.0870  0.3625  0.6286
12598TIP3    H259286   5.952   5.366   5.559 -0.4972  0.0606  0.6086
12599TIP3   OH259287   0.295   3.614  14.583 -0.0395 -0.3322  0.3514
12599TIP3    H159288   0.279   3.520  14.589  0.9644 -0.5275  0.0246
12599TIP3    H259289   0.213   3.653  14.615 -0.8249 -1.2985 -0.3884
12600TIP3   OH259290   1.373   3.978   1.866 -0.0966 -0.0805 -0.1014
12600TIP3    H159291   1.364   3.883   1.860 -1.3126 -0.1105  1.4961
12600TIP3    H259292   1.297   4.007   1.917  1.0363  1.5760  0.7642
12601TIP3   OH259293   2.692   4.487   1.153 -0.7290 -0.2078  0.0175
12601TIP3    H159294   2.627   4.425   1.119 -0.6748  0.7461 -1.9828
12601TIP3    H259295   2.640   4.553   1.199 -1.1120 -0.0280 -0.6502
12602TIP3   OH259296   2.834   3.760   3.605 -0.1221  0.0432 -1.0449
12602TIP3    H159297   2.913   3.810   3.583  0.8339 -0.9259  0.0406
12602TIP3    H259298   2.775   3.775   3.532  0.7558  1.4540 -1.5021
12603TIP3   OH259299   4.589   1.495   0.935 -0.0115  0.3429  0.2860
12603TIP3    H159300   4.504   1.487   0.892  0.1297 -1.0793  0.2152
12603TIP3    H259301   4.584   1.436   1.010  0.8989  0.2543  0.2984
12604TIP3   OH259302   6.002   6.645  14.152 -0.0876 -0.1722 -0.3819
12604TIP3    H159303   6.052   6.669  14.074 -2.4213  1.0701 -1.5886
12604TIP3    H259304   5.990   6.727  14.199 -1.6979 -0.2740 -0.5834
12605TIP3   OH259305   6.174   2.224   0.749  0.0008 -0.3837 -0.6573
12605TIP3    H159306   6.208   2.226   0.839  1.4910 -0.8816 -1.1735
12605TIP3    H259307   6.218   2.297   0.706 -1.8521  0.7972 -0.6278
12606TIP3   OH259308   6.022   2.525   1.189 -0.1482 -0.5430  0.2450
12606TIP3    H159309   6.054   2.605   1.229  2.2365 -1.2790 -0.0393
12606TIP3    H259310   6.079   2.511   1.113 -0.1289 -2.7600  0.6023
12607TIP3   OH259311   3.840   2.620   4.813 -0.1827 -0.7312  0.9349
12607TIP3    H159312   3.804   2.543   4.768  0.9506 -0.0000 -1.4302
12607TIP3    H259313   3.804   2.695   4.766 -0.9143  0.2337  2.9209
12608TIP3   OH259314   5.711   1.975   4.035  0.1346 -0.6447 -0.2137
12608TIP3    H159315   5.727   2.050   3.978  0.0726 -0.2689  0.2521
12608TIP3    H259316   5.781   1.913   4.012  0.6803 -0.1088 -0.0461
12609TIP3   OH259317   0.419   2.689  12.781 -0.2529  0.0667  0.3774
12609TIP3    H159318   0.505   2.704  12.819 -0.4642  1.1884  0.4468
12609TIP3    H259319   0.407   2.594  12.786  0.3065  0.0470  1.8147
12610TIP3   OH259320   1.116   0.002  13.787 -0.0968  0.2190  0.3743
12610TIP3    H159321   1.068  -0.008  13.869 -0.2086  1.0670  0.4292
12610TIP3    H259322   1.170   0.081  13.801 -2.5543  2.4081 -1.4927
12611TIP3   OH259323   3.649   2.500   3.690  0.1061  0.0299 -0.6677
12611TIP3    H159324   3.643   2.446   3.612  0.8879 -0.2558 -0.5463
12611TIP3    H259325   3.742   2.526   3.694  0.8536 -2.4964  1.7819
12612TIP3   OH259326   4.776   3.456   2.066  0.1301  0.5509 -0.5519
12612TIP3    H159327   4.856   3.481   2.112  0.2079 -2.5088  1.1926
12612TIP3    H259328   4.806   3.425   1.980  0.8687 -0.6050  0.0990
12613TIP3   OH259329   3.733   4.105   4.958  0.0067  0.2492  0.2333
12613TIP3    H159330   3.788   4.077   4.886 -0.6326  3.6197 -1.7853
12613TIP3    H259331   3.794   4.125   5.029  0.8851 -0.6552 -0.2408
12614TIP3   OH259332   5.963   6.020  14.386 -0.2124  0.3447  0.7236
12614TIP3    H159333   5.926   5.932  14.385 -0.4791  0.3864  2.7754
12614TIP3    H259334   5.911   6.069  14.322 -2.3779 -0.1304  2.0278
12615TIP3   OH259335   1.536   4.831   0.716 -0.3161 -0.6656  0.4437
12615TIP3    H159336   1.595   4.773   0.668 -0.4785 -0.0503 -0.5436
12615TIP3    H259337   1.587   4.911   0.730 -0.6932 -0.3642  0.1365
12616TIP3   OH259338   2.726   5.361   0.549 -0.0495 -0.0649  0.2668
12616TIP3    H159339   2.742   5.267   0.547 -2.9462 -0.6332 -1.9210
12616TIP3    H259340   2.703   5.379   0.641  0.2658 -1.4997  0.6558
12617TIP3   OH259341   1.040   5.670  13.316  0.3369  0.1862 -0.2258
12617TIP3    H159342   1.050   5.591  13.370 -0.7387  0.3086  0.1624
12617TIP3    H259343   1.098   5.655  13.241  1.3770 -0.2650  0.6315
12618TIP3   OH259344   6.526   3.500  15.325  0.1885 -0.2937  0.4395
12618TIP3    H159345   6.520   3.481  15.232 -0.2372 -2.7525  0.9062
12618TIP3    H259346   6.441   3.475  15.361  0.3092  0.7043  1.4813
12619TIP3   OH259347   1.662   3.785   1.583  0.1912  0.4208 -0.6324
12619TIP3    H159348   1.668   3.817   1.493 -1.7187  2.0329 -0.2733
12619TIP3    H259349   1.642   3.864   1.634  0.2422 -0.6202  1.0573
12620TIP3   OH259350   5.714   0.997   2.094  0.3877  0.4539 -0.4248
12620TIP3    H159351   5.664   0.943   2.033 -0.5935  1.0197 -0.1407
12620TIP3    H259352   5.657   1.004   2.171  1.4928 -0.0313  0.4603
12621TIP3   OH259353   6.229   5.473  11.442  0.5065  0.0118 -0.1251
12621TIP3    H159354   6.194   5.449  11.528  1.0895  1.0113  0.4050
12621TIP3    H259355   6.151   5.495  11.390  0.2512  1.1018  0.6929
12622TIP3   OH259356   5.033   1.514  10.856 -0.4375  0.4093  0.4013
12622TIP3    H159357   4.952   1.475  10.888  0.5338 -0.3455  2.0744
12622TIP3    H259358   5.098   1.494  10.923  1.6780 -0.9177 -1.8634
12623TIP3   OH259359   0.142   6.278   4.625 -0.4192 -0.5168  0.1406
12623TIP3    H159360   0.158   6.342   4.694 -0.4212 -1.1405  0.7293
12623TIP3    H259361   0.074   6.319   4.570  2.9046  2.1736 -2.4202
12624TIP3   OH259362   0.264   3.925  13.146 -0.6250 -0.4564  0.0918
12624TIP3    H159363   0.278   3.948  13.238 -1.6972 -0.4522  0.2667
12624TIP3    H259364   0.202   3.990  13.114  0.5348  0.1784 -0.9428
12625TIP3   OH259365   5.903   2.556  14.044 -0.5148  0.0144  0.6967
12625TIP3    H159366   5.848   2.537  13.969 -2.1873 -3.4008  2.5247
12625TIP3    H259367   5.875   2.642  14.075 -1.1483  0.5934 -1.3581
12626TIP3   OH259368   2.610   5.355   2.553 -0.6331 -0.7046 -0.0657
12626TIP3    H159369   2.696   5.320   2.575 -1.1557 -0.9883  1.6329
12626TIP3    H259370   2.563   5.280   2.516  0.3907 -0.1188 -2.7855
12627TIP3   OH259371   4.071   3.794   1.593  0.4861 -0.1976 -0.0237
12627TIP3    H159372   4.018   3.760   1.521  0.3067  1.2387 -0.6090
12627TIP3    H259373   4.162   3.779   1.566  0.4077 -1.1742  0.2296
12628TIP3   OH259374   2.066   1.485   0.619 -0.3413 -0.4359  0.2832
12628TIP3    H159375   2.101   1.574   0.617 -0.1718 -0.5092 -0.7244
12628TIP3    H259376   2.129   1.435   0.671 -1.2017  0.3197  2.1353
12629TIP3   OH259377   0.012   6.463  11.425 -0.0892 -0.2126 -0.0165
12629TIP3    H159378   0.100   6.431  11.408 -0.2250 -1.0359  0.7301
12629TIP3    H259379  -0.037   6.386  11.451 -0.5315  0.5194  1.4610
12630TIP3   OH259380   1.196   2.480   2.123  0.7322 -0.8648  0.1463
12630TIP3    H159381   1.234   2.558   2.083 -0.1277 -0.8169 -0.6019
12630TIP3    H259382   1.134   2.514   2.187  0.0053 -0.9234 -0.5186
12631TIP3   OH259383   4.688   3.808  17.030  0.5691 -0.4346  0.0677
12631TIP3    H159384   4.654   3.833  17.115  1.2827 -1.1785  0.5925
12631TIP3    H259385   4.611   3.797  16.975  0.1293  0.5480  0.4640
12632TIP3   OH259386   3.589   1.026   1.255 -0.3762 -0.1533 -0.7949
12632TIP3    H159387   3.602   1.097   1.317  1.0341 -0.2821 -0.9181
12632TIP3    H259388   3.662   1.033   1.194 -0.7025 -1.1726 -1.3317
12633TIP3   OH259389   1.841   5.611  14.077  0.2645 -0.0454 -0.1521
12633TIP3    H159390   1.904   5.541  14.085 -0.0008 -0.2566  0.1044
12633TIP3    H259391   1.770   5.574  14.025  0.4043  0.2294 -0.5475
12634TIP3   OH259392   6.272   1.932   1.898 -0.0351  0.3065 -0.2873
12634TIP3    H159393   6.298   1.899   1.984  1.0618  1.0168 -0.3379
12634TIP3    H259394   6.295   2.024   1.899 -1.2896  0.6531 -0.8634
12635TIP3   OH259395   2.140   5.485   2.972 -0.3079 -0.0834  0.1789
12635TIP3    H159396   2.235   5.492   2.977 -0.0302 -0.8148 -2.6161
12635TIP3    H259397   2.112   5.565   2.929 -0.6743 -0.8963 -1.1461
12636TIP3   OH259398   0.013   6.140   3.795  0.3592  0.3239  0.2196
12636TIP3    H159399   0.001   6.201   3.868  0.7536 -0.3176  0.8386
12636TIP3    H259400   0.003   6.193   3.716  0.7460  1.1904  0.7495
12637TIP3   OH259401   1.270   2.658  16.695  0.0633  0.0551 -0.0163
12637TIP3    H159402   1.364   2.642  16.693 -0.0580 -1.0348  1.3990
12637TIP3    H259403   1.232   2.574  16.722 -1.5369 -0.2716 -2.8895
12638TIP3   OH259404   4.308   0.992   4.794  0.4881  0.0158  0.0036
12638TIP3    H159405   4.401   0.986   4.813  0.4273 -0.4666  0.1523
12638TIP3    H259406   4.303   1.043   4.713  0.8424  0.5729  0.3237
12639TIP3   OH259407   5.042   0.629  12.535 -0.2454 -0.0782  0.1827
12639TIP3    H159408   4.985   0.554  12.523 -1.9385  1.0244  0.9402
12639TIP3    H259409   4.983   0.700  12.560  1.2114  1.6560 -1.0283
12640TIP3   OH259410   1.907   1.388   1.058 -0.1732  0.0361  0.4776
12640TIP3    H159411   1.953   1.459   1.103  0.4147  0.3889 -0.6545
12640TIP3    H259412   1.976   1.336   1.018 -0.7048 -0.0769 -0.3070
12641TIP3   OH259413   6.219   2.586  14.410 -0.0714 -0.6709 -0.5437
12641TIP3    H159414   6.162   2.521  14.369  0.5610 -0.3806 -1.9440
12641TIP3    H259415   6.295   2.536  14.438  0.6710 -0.4995 -2.1279
12642TIP3   OH259416   4.248   6.046  16.708  0.0307 -0.1992  0.3183
12642TIP3    H159417   4.178   6.070  16.647 -0.5726 -0.4285  0.9038
12642TIP3    H259418   4.204   6.040  16.793  0.6743 -0.8250  0.6124
12643TIP3   OH259419   2.747   4.434   5.055 -0.6529  0.1454  0.0505
12643TIP3    H159420   2.703   4.451   5.138 -0.6579 -0.1434  0.1104
12643TIP3    H259421   2.784   4.346   5.066 -2.2872 -0.7220 -0.9503
12644TIP3   OH259422   0.374   4.010   3.885 -0.0053 -0.9590 -0.5230
12644TIP3    H159423   0.307   4.078   3.870 -0.7666 -1.7238 -0.6688
12644TIP3    H259424   0.362   3.987   3.977  0.2663 -0.8847 -0.4695
12645TIP3   OH259425   5.191   3.406  17.183 -0.0218  0.3825  0.1754
12645TIP3    H159426   5.169   3.492  17.147 -0.3619  0.0339 -0.4755
12645TIP3    H259427   5.240   3.362  17.113  0.8826  0.3462  0.8103
12646TIP3   OH259428   5.678   6.118   3.432  0.7657 -0.4020 -0.4054
12646TIP3    H159429   5.760   6.161   3.454  1.5661 -1.1195 -1.8796
12646TIP3    H259430   5.703   6.034   3.394 -0.6860 -1.0835  0.0375
12647TIP3   OH259431   5.323   4.429   0.812  0.0924 -0.3378  0.5573
12647TIP3    H159432   5.323   4.462   0.722 -0.7885  1.5350  1.1968
12647TIP3    H259433   5.415   4.407   0.829  0.2828 -0.6615 -0.7561
12648TIP3   OH259434   4.983   1.462  12.154  0.0107  0.0069  0.5735
12648TIP3    H159435   4.978   1.481  12.060  0.1971 -0.8482  0.3769
12648TIP3    H259436   4.921   1.390  12.166  0.8893 -0.7154  0.8728
12649TIP3   OH259437   2.220   6.727   3.644  0.1679 -0.0021 -0.9885
12649TIP3    H159438   2.265   6.810   3.634  0.5558  0.0723  1.0307
12649TIP3    H259439   2.130   6.751   3.665  0.9476  0.1132  2.9486
12650TIP3   OH259440   4.553   2.340  16.213  0.7185 -0.0272  0.1510
12650TIP3    H159441   4.535   2.254  16.253  1.2506 -0.4968 -0.5915
12650TIP3    H259442   4.553   2.401  16.286  0.1703 -0.6387  0.6763
12651TIP3   OH259443   1.990   0.906  12.508 -0.4083 -0.2035 -0.0219
12651TIP3    H159444   1.897   0.898  12.530 -0.5279 -0.3795 -0.5562
12651TIP3    H259445   2.018   0.816  12.492 -0.7291  0.0060 -2.0766
12652TIP3   OH259446   3.191   5.261   0.446  0.2160  0.4343  0.1143
12652TIP3    H159447   3.152   5.183   0.485 -0.8468  0.6687 -0.4391
12652TIP3    H259448   3.138   5.278   0.368  1.4371  0.7850 -0.6531
12653TIP3   OH259449   4.073   3.575   5.276 -0.1578  0.0006  0.0385
12653TIP3    H159450   4.131   3.552   5.203 -0.5662 -0.9852  0.0037
12653TIP3    H259451   3.988   3.538   5.251  0.2038 -2.3654  1.9725
12654TIP3   OH259452   4.425   2.654   3.707  0.0429  0.0200 -0.3926
12654TIP3    H159453   4.351   2.658   3.768  0.8901 -1.2085  0.7875
12654TIP3    H259454   4.421   2.565   3.671 -0.4031  0.7060 -2.1262
12655TIP3   OH259455   1.996   1.798   0.043  0.3899 -0.1747  0.0907
12655TIP3    H159456   2.066   1.863   0.049  1.0697 -0.7850 -0.9334
12655TIP3    H259457   2.038   1.715   0.066 -0.2180 -0.4128  0.3543
12656TIP3   OH259458   3.892   3.895   2.506 -0.3883 -0.3794 -0.5899
12656TIP3    H159459   3.986   3.915   2.505 -0.3652 -0.3478  1.0090
12656TIP3    H259460   3.865   3.908   2.415  1.0941 -0.1297 -1.0304
12657TIP3   OH259461   1.798   3.244  15.296 -0.2402 -0.5481  0.3109
12657TIP3    H159462   1.721   3.247  15.240  0.5504  0.5878 -0.7847
12657TIP3    H259463   1.771   3.288  15.376 -1.0504 -1.1703  0.3945
12658TIP3   OH259464   4.763   1.354  16.039  0.3011  0.3406 -0.6241
12658TIP3    H159465   4.704   1.279  16.044 -0.3451  0.8038 -1.1277
12658TIP3    H259466   4.847   1.318  16.009  0.2907 -0.3242  0.1171
12659TIP3   OH259467   4.540   2.201   2.126 -0.3218 -0.1384 -0.0845
12659TIP3    H159468   4.590   2.132   2.082 -0.7901 -0.2587 -0.4278
12659TIP3    H259469   4.450   2.188   2.098 -0.7763 -0.7169  1.5345
12660TIP3   OH259470   3.153   3.780   0.776 -0.2891  0.0734  0.5145
12660TIP3    H159471   3.168   3.714   0.708 -2.8189 -2.1196  1.8778
12660TIP3    H259472   3.176   3.736   0.858 -1.1285  1.2078  1.3938
12661TIP3   OH259473   0.183   5.000  11.112 -0.6252  0.3694  0.0098
12661TIP3    H159474   0.261   5.045  11.079  0.3133 -0.9709  0.3277
12661TIP3    H259475   0.148   4.953  11.037  0.7645 -1.6263  0.5257
12662TIP3   OH259476   1.514   3.727   3.373  0.1496 -0.5341 -0.2689
12662TIP3    H159477   1.479   3.738   3.285 -0.2055 -0.5975 -0.1382
12662TIP3    H259478   1.437   3.735   3.431  0.2605 -1.2135 -0.0149
12663TIP3   OH259479   3.525   0.894  10.561 -0.2071  0.3890  0.4798
12663TIP3    H159480   3.445   0.921  10.605 -0.4448  0.2158  0.1588
12663TIP3    H259481   3.577   0.974  10.554 -0.3354  0.4938  0.7186
12664TIP3   OH259482   5.374   0.191  16.736 -0.0744  0.2697 -0.1727
12664TIP3    H159483   5.353   0.278  16.701  0.5954  1.5275  2.2761
12664TIP3    H259484   5.457   0.168  16.695 -0.0926  0.9351 -0.6028
12665TIP3   OH259485   4.883   6.809  14.072 -0.3055 -0.3899 -0.2001
12665TIP3    H159486   4.955   6.868  14.096 -1.2954  0.4554  0.8179
12665TIP3    H259487   4.920   6.721  14.082  1.1027  0.0225 -1.4195
12666TIP3   OH259488   1.244   2.262   0.878  0.0607  0.5097 -0.3909
12666TIP3    H159489   1.244   2.168   0.900 -1.7222  0.0002 -2.2488
12666TIP3    H259490   1.330   2.293   0.905  1.6686 -2.2250 -1.9738
12667TIP3   OH259491   5.939   4.354  16.146  0.7138  0.1542  0.9663
12667TIP3    H159492   5.998   4.385  16.214  0.1206  0.5293  1.3203
12667TIP3    H259493   5.951   4.259  16.145  0.9774  0.1816  1.3572
12668TIP3   OH259494   1.184   1.384   3.561 -0.0619 -0.0382 -0.0038
12668TIP3    H159495   1.103   1.426   3.587 -1.1179 -1.3676 -1.0150
12668TIP3    H259496   1.158   1.298   3.528  1.5401  0.1493 -2.0236
12669TIP3   OH259497   5.085   3.216  16.027 -0.4493 -0.3957 -0.6974
12669TIP3    H159498   5.126   3.297  16.057  0.5088 -1.5722  1.3919
12669TIP3    H259499   5.134   3.192  15.948 -0.0934  0.5335 -0.7690
12670TIP3   OH259500   1.876   5.576   5.431  0.2443  0.3077  0.0790
12670TIP3    H159501   1.930   5.575   5.510  1.2697  3.0149 -0.4847
12670TIP3    H259502   1.931   5.535   5.364  0.5237  0.6085  0.1231
12671TIP3   OH259503   4.568   3.418   5.639  0.0256 -0.6571  0.6919
12671TIP3    H159504   4.580   3.513   5.634  1.7125 -0.7474  1.8626
12671TIP3    H259505   4.512   3.397   5.565 -0.8201  1.3070  0.6888
12672TIP3   OH259506   3.433   3.496  14.641  0.0926 -0.4789  0.0420
12672TIP3    H159507   3.447   3.488  14.547 -0.6768  1.0349 -0.2223
12672TIP3    H259508   3.338   3.493  14.652  0.1327  0.2086  0.6642
12673TIP3   OH259509   3.834   5.927  17.096 -0.0292 -1.0056  0.4623
12673TIP3    H159510   3.768   5.982  17.139 -0.3917 -1.1487  0.0942
12673TIP3    H259511   3.783   5.858  17.053  0.3940 -1.3811  0.5610
12674TIP3   OH259512   1.424   2.780   0.163 -0.3078  0.5822  0.3046
12674TIP3    H159513   1.519   2.765   0.160 -0.4929 -0.5828 -1.3235
12674TIP3    H259514   1.393   2.749   0.078 -1.9751  2.3013  0.2308
12675TIP3   OH259515   4.097   5.895  17.179  0.1302 -0.2213 -0.3175
12675TIP3    H159516   4.005   5.917  17.165  0.4643  1.5308 -0.0731
12675TIP3    H259517   4.103   5.878  17.273  0.0015 -0.6293 -0.3830
12676TIP3   OH259518   2.649   5.025   4.439  0.3064  0.4926  0.0146
12676TIP3    H159519   2.641   4.949   4.497 -0.1269  0.3333 -0.2523
12676TIP3    H259520   2.704   5.086   4.488  1.7529 -0.5029 -0.3023
12677TIP3   OH259521   4.947   2.007   1.429  0.2859 -0.0241  0.3459
12677TIP3    H159522   4.967   2.073   1.363  0.9712  1.3139  1.8355
12677TIP3    H259523   4.878   1.953   1.389  0.9145  0.5211 -1.5665
12678TIP3   OH259524   0.234   3.380   0.885 -0.0448 -0.2420 -0.1270
12678TIP3    H159525   0.229   3.416   0.796 -0.8167 -1.2416 -0.5109
12678TIP3    H259526   0.328   3.371   0.901  0.1177 -1.9404 -1.6758
12679TIP3   OH259527   5.150   0.842  13.782  0.1508  0.3205  0.4954
12679TIP3    H159528   5.085   0.875  13.844  0.0715  2.1936 -0.4976
12679TIP3    H259529   5.234   0.868  13.819  0.1576  0.5378  0.3311
12680TIP3   OH259530   4.474   1.017   2.297 -0.1860 -0.4009 -0.3906
12680TIP3    H159531   4.538   0.989   2.231 -2.5258 -1.7335 -2.2677
12680TIP3    H259532   4.420   0.940   2.312 -1.1887  0.5874  1.3530
12681TIP3   OH259533   0.760   4.930   4.183  0.2651 -0.2226  0.5338
12681TIP3    H159534   0.754   5.024   4.196 -0.9073 -0.0518 -0.9875
12681TIP3    H259535   0.682   4.894   4.225  0.3064 -0.4362  0.4339
12682TIP3   OH259536   2.137   5.935   5.358  0.5649 -0.3451  0.1669
12682TIP3    H159537   2.190   6.015   5.359  0.4423 -0.2325 -1.0608
12682TIP3    H259538   2.178   5.881   5.291 -0.6299 -0.4178 -0.5304
12683TIP3   OH259539   1.586   4.939  15.819  0.0462  0.0659 -0.1321
12683TIP3    H159540   1.547   4.951  15.906 -0.0731  0.2363 -0.2073
12683TIP3    H259541   1.671   4.899  15.835 -0.2317 -0.4602  0.0236
12684TIP3   OH259542   3.702   5.594  15.389 -0.2551  0.3328 -0.0555
12684TIP3    H159543   3.631   5.533  15.371 -1.9452  1.5804  1.8781
12684TIP3    H259544   3.730   5.571  15.478  1.1776  0.4662 -0.4444
12685TIP3   OH259545   4.327   0.969  12.159 -0.0149  0.2189  0.4433
12685TIP3    H159546   4.271   0.916  12.102 -0.8630 -0.3464  1.7284
12685TIP3    H259547   4.321   1.058  12.124  1.1852 -0.4291 -1.5764
12686TIP3   OH259548   5.711   0.118   3.181  0.3329 -0.0469 -0.8439
12686TIP3    H159549   5.707   0.199   3.131  1.4365 -0.0711 -1.0008
12686TIP3    H259550   5.622   0.084   3.180 -0.7060  2.3810  1.3128
12687TIP3   OH259551   0.312   2.410   5.776  0.0316 -0.2829  0.3519
12687TIP3    H159552   0.224   2.433   5.806  0.4155 -0.0605  1.3555
12687TIP3    H259553   0.370   2.471   5.822  0.8195 -1.2436  0.6823
12688TIP3   OH259554   6.046   6.099   5.148  0.1824  0.3441  0.4864
12688TIP3    H159555   6.112   6.039   5.112 -2.4112 -1.6415 -1.3233
12688TIP3    H259556   6.021   6.153   5.073 -1.1938  0.1394  0.7840
12689TIP3   OH259557   3.861   0.421  16.790 -0.4412 -0.3712  0.4976
12689TIP3    H159558   3.956   0.421  16.777 -0.3645  2.9370  0.2892
12689TIP3    H259559   3.850   0.400  16.883  0.3889 -1.6348  0.3462
12690TIP3   OH259560   0.293   5.053   1.305  0.6948 -0.2516 -0.4388
12690TIP3    H159561   0.344   4.973   1.292  0.2329 -0.3876 -1.5363
12690TIP3    H259562   0.341   5.101   1.372  0.3872 -1.9419  1.0690
12691TIP3   OH259563   2.757   1.222  11.414 -0.4879 -0.1855 -0.4312
12691TIP3    H159564   2.765   1.239  11.508 -0.0920  0.4884 -0.5802
12691TIP3    H259565   2.839   1.180  11.390 -1.1514 -1.6615 -0.2184
12692TIP3   OH259566   5.453   0.761  16.638 -0.3514  0.6128 -0.0256
12692TIP3    H159567   5.522   0.808  16.685  0.7892 -0.3177 -0.7304
12692TIP3    H259568   5.470   0.778  16.546 -0.2134 -0.7516 -0.2714
12693TIP3   OH259569   0.518   3.272  10.997 -0.1930  0.0596  0.4415
12693TIP3    H159570   0.517   3.183  10.962  2.6374  0.6517 -1.4591
12693TIP3    H259571   0.481   3.326  10.928  2.3345  0.8324 -0.4185
12694TIP3   OH259572   5.015   0.808   5.182  0.3907  0.1857 -0.0456
12694TIP3    H159573   4.943   0.848   5.229  0.8849  0.3736  0.5606
12694TIP3    H259574   4.974   0.764   5.108 -0.4208 -0.3314  0.6988
12695TIP3   OH259575   1.031   4.736   3.210 -0.8067 -0.3667 -0.0007
12695TIP3    H159576   1.009   4.829   3.205 -3.3183 -0.7987  1.4692
12695TIP3    H259577   1.081   4.719   3.130  0.7403  2.4592  0.2488
12696TIP3   OH259578   3.639   3.319  13.764 -0.2763  0.3311 -0.6812
12696TIP3    H159579   3.571   3.265  13.724  0.0556  0.9655 -2.1574
12696TIP3    H259580   3.709   3.258  13.784 -1.0107 -0.2253  0.2803
12697TIP3   OH259581   3.811   5.172   4.217 -0.0097 -0.2194 -0.5548
12697TIP3    H159582   3.763   5.254   4.211  0.2913  0.0371  0.5202
12697TIP3    H259583   3.808   5.148   4.309 -1.0294 -1.9851 -0.9968
12698TIP3   OH259584   4.285   2.217  12.997  0.3091  0.4487  0.4511
12698TIP3    H159585   4.217   2.150  12.996  0.5074  0.1761  2.3525
12698TIP3    H259586   4.364   2.171  12.969  0.1050  0.3024  0.1117
12699TIP3   OH259587   2.193   4.294  13.179  0.5032 -0.0483  0.7499
12699TIP3    H159588   2.256   4.266  13.113 -0.6998 -0.7420 -0.1431
12699TIP3    H259589   2.121   4.334  13.129 -1.0670 -1.8050  1.4712
12700TIP3   OH259590   5.007   5.328   2.103  0.4263  0.8202 -0.0247
12700TIP3    H159591   4.937   5.268   2.077  1.2813  0.0694 -0.6593
12700TIP3    H259592   5.077   5.271   2.135  0.9601  1.5261  0.0841
12701TIP3   OH259593   2.338   3.957   6.251  0.1287  0.1694 -0.1403
12701TIP3    H159594   2.342   4.016   6.177  1.3246 -0.9609 -1.0085
12701TIP3    H259595   2.344   4.014   6.328  0.6642  1.2165 -0.9399
12702TIP3   OH259596   3.788   4.018  16.596 -0.4002 -0.1502 -0.0579
12702TIP3    H159597   3.866   4.033  16.650 -2.5084  2.6795  2.5581
12702TIP3    H259598   3.756   3.932  16.624 -0.5649  0.5706  2.2178
12703TIP3   OH259599   1.669   1.030  14.842 -0.8856 -0.4651 -0.4482
12703TIP3    H159600   1.696   0.940  14.862 -0.5862 -0.3516 -0.3460
12703TIP3    H259601   1.749   1.082  14.851 -1.3833  0.0899  1.2430
12704TIP3   OH259602   3.221   3.013   3.482 -0.0821  0.2144 -0.2747
12704TIP3    H159603   3.216   2.941   3.419 -0.1556  0.4152 -0.4952
12704TIP3    H259604   3.264   3.084   3.435  0.2534  0.2200  0.0340
12705TIP3   OH259605   0.025   2.226  13.368  0.6898 -0.8203 -0.3472
12705TIP3    H159606   0.045   2.149  13.313  0.3978 -0.8598 -0.4029
12705TIP3    H259607   0.069   2.298  13.325  1.1598 -0.9975 -0.1663
12706TIP3   OH259608   2.996   0.030   4.363  0.2677 -0.1515  0.9490
12706TIP3    H159609   3.049   0.046   4.441  1.2015 -0.7651  0.4639
12706TIP3    H259610   2.914   0.076   4.380  0.6122  0.0742  2.1054
12707TIP3   OH259611   5.250   6.648   0.225  0.4503 -0.5328 -0.2232
12707TIP3    H159612   5.161   6.652   0.260  0.6071 -0.9685  0.2352
12707TIP3    H259613   5.240   6.665   0.131  0.1243  1.6049  0.1581
12708TIP3   OH259614   1.902   3.856   2.337 -0.1412  0.2441 -0.1628
12708TIP3    H159615   1.986   3.822   2.306 -0.6330 -0.0048 -1.2503
12708TIP3    H259616   1.925   3.911   2.412  1.1372  1.1936 -1.2006
12709TIP3   OH259617   2.750   2.852  16.730  0.0567  0.1298 -0.3477
12709TIP3    H159618   2.661   2.817  16.725  1.2397 -3.1590 -0.2747
12709TIP3    H259619   2.779   2.858  16.639 -0.0266  0.6655 -0.3419
12710TIP3   OH259620   3.282   5.308   5.762  0.4802  0.6823  0.0810
12710TIP3    H159621   3.339   5.378   5.729 -0.2923  1.4796  0.3660
12710TIP3    H259622   3.244   5.268   5.684  0.5428  0.9227 -0.0738
12711TIP3   OH259623   2.443   6.721   6.892  0.5966  0.3597 -0.1044
12711TIP3    H159624   2.503   6.728   6.817 -0.0291 -2.5959 -1.0039
12711TIP3    H259625   2.356   6.727   6.853  0.2245  2.1708  0.8969
12712TIP3   OH259626   5.304   3.691  14.298  0.1234 -0.2836  0.2762
12712TIP3    H159627   5.322   3.778  14.263  0.5535 -0.7911 -0.8162
12712TIP3    H259628   5.209   3.680  14.290 -0.1294  0.6331  1.7788
12713TIP3   OH259629   5.379   6.795   4.611  0.1421  0.0155 -0.7433
12713TIP3    H159630   5.448   6.732   4.593  1.4405  1.2499 -0.2904
12713TIP3    H259631   5.419   6.858   4.670 -1.3065  0.9200 -0.6685
12714TIP3   OH259632   3.003   2.230  10.933  0.4161 -0.2782 -0.4194
12714TIP3    H159633   2.914   2.195  10.941  0.7144 -0.5343  4.1652
12714TIP3    H259634   3.043   2.176  10.864 -2.7292 -0.4465 -2.3365
12715TIP3   OH259635   4.611   4.297  13.618  0.3293 -0.0522 -0.0011
12715TIP3    H159636   4.664   4.368  13.582 -0.3841  0.9411  0.8088
12715TIP3    H259637   4.595   4.238  13.545  1.1961  0.4771 -0.6269
12716TIP3   OH259638   0.867   0.648   5.249  0.4385  0.3748  0.3023
12716TIP3    H159639   0.904   0.683   5.168 -0.6963  2.0402  0.4591
12716TIP3    H259640   0.778   0.621   5.224  1.0520 -1.8545  0.3502
12717TIP3   OH259641   2.839   6.177   4.177  0.7536  0.3121 -0.4682
12717TIP3    H159642   2.839   6.211   4.266 -2.3721  0.1143 -0.2672
12717TIP3    H259643   2.793   6.244   4.126 -0.6641 -1.1062 -1.1451
12718TIP3   OH259644   6.376   2.747  11.188 -0.2452 -0.1828  0.3363
12718TIP3    H159645   6.334   2.730  11.104 -1.1434  0.8420  0.5408
12718TIP3    H259646   6.319   2.813  11.229  0.0636 -0.8144  1.8259
12719TIP3   OH259647   6.799   0.006   0.839 -0.6062  0.3030 -0.0654
12719TIP3    H159648   6.805   0.079   0.901 -1.3762  0.7944 -0.5537
12719TIP3    H259649   6.838  -0.067   0.885  0.5449  1.1155  0.2861
12720TIP3   OH259650   6.067   0.221   1.075  0.1658 -0.3361  0.0537
12720TIP3    H159651   6.049   0.160   1.003  3.5707 -0.7043 -0.6343
12720TIP3    H259652   6.088   0.164   1.149  0.8400  0.0105  0.1319
12721TIP3   OH259653   4.800   2.060   0.965  0.1577  0.1179 -0.1347
12721TIP3    H159654   4.869   1.996   0.946  0.2763  0.2616 -0.1987
12721TIP3    H259655   4.721   2.022   0.926 -0.2564 -1.0330  1.7316
12722TIP3   OH259656   3.992   6.134   5.039  0.7808 -0.3617  0.2772
12722TIP3    H159657   3.923   6.086   5.085  1.5938 -2.5863 -0.6750
12722TIP3    H259658   4.019   6.203   5.100 -2.6105  0.9660  0.4487
12723TIP3   OH259659   2.113   2.348   6.464  0.4193 -0.3319 -0.2006
12723TIP3    H159660   2.044   2.330   6.528 -0.8626  3.2122 -0.3965
12723TIP3    H259661   2.106   2.276   6.401 -1.8419 -1.0980  0.8021
12724TIP3   OH259662   6.287   2.299  17.113 -0.2388  0.0548  0.0859
12724TIP3    H159663   6.369   2.282  17.067  0.0882 -1.6076  1.1680
12724TIP3    H259664   6.296   2.250  17.195 -0.9690  2.5138  1.7420
12725TIP3   OH259665   0.760   0.387   3.297  0.1585  0.1468  0.6366
12725TIP3    H159666   0.843   0.420   3.262 -0.3462  2.2138  1.2247
12725TIP3    H259667   0.701   0.385   3.222  0.5092 -0.6180  0.3656
12726TIP3   OH259668   3.605   2.491  16.938  0.5001 -0.5608  0.4162
12726TIP3    H159669   3.642   2.551  17.002  0.2497 -0.2560  0.2805
12726TIP3    H259670   3.619   2.535  16.854 -0.4292 -0.3029  0.3898
12727TIP3   OH259671   5.010   5.060  15.428  0.1095 -0.4792  0.2172
12727TIP3    H159672   4.973   5.079  15.514 -0.7422 -0.1973 -0.2036
12727TIP3    H259673   5.088   5.116  15.423  0.6608 -1.1422  1.1430
12728TIP3   OH259674   1.659   6.452   1.992  0.1046 -0.0120  0.1391
12728TIP3    H159675   1.742   6.495   2.013 -0.0493  0.1678  0.4016
12728TIP3    H259676   1.602   6.524   1.964 -0.1004 -0.0684  0.4075
12729TIP3   OH259677   2.945   0.147   2.957  0.3328 -0.2703  0.3551
12729TIP3    H159678   2.964   0.109   2.871  1.6552  1.5301 -0.2178
12729TIP3    H259679   2.918   0.073   3.011  1.8579 -1.8734 -0.9573
12730TIP3   OH259680   6.063   5.184  12.036 -0.3135 -0.0680 -0.3617
12730TIP3    H159681   6.009   5.261  12.024  0.3187  0.1743 -1.7973
12730TIP3    H259682   6.001   5.113  12.052 -1.0096  0.3692 -1.0867
12731TIP3   OH259683   2.680   3.543  13.938  0.2987 -0.5667  0.1031
12731TIP3    H159684   2.662   3.636  13.923 -2.8117 -0.9903  0.5036
12731TIP3    H259685   2.640   3.525  14.024  0.2402 -2.3972 -0.2741
12732TIP3   OH259686   2.499   5.121   2.427 -0.0456 -0.1860 -0.3581
12732TIP3    H159687   2.463   5.157   2.346  0.2706  0.9518 -0.0149
12732TIP3    H259688   2.582   5.080   2.402  0.6952  1.2993 -0.4320
12733TIP3   OH259689   2.146   4.366   5.159 -0.2711 -0.2876  0.0870
12733TIP3    H159690   2.094   4.394   5.234  0.8191 -0.7005  1.0363
12733TIP3    H259691   2.161   4.273   5.174 -2.0504 -0.9512 -1.9156
12734TIP3   OH259692   6.593   5.389  11.556 -0.7067 -0.3074  1.0942
12734TIP3    H159693   6.578   5.331  11.480  0.4025  0.2022  0.4590
12734TIP3    H259694   6.534   5.463  11.541  1.0076  0.8441 -0.4646
12735TIP3   OH259695   3.205   4.227   5.691  0.2823 -0.7096 -0.3169
12735TIP3    H159696   3.147   4.299   5.666  1.1471  0.8397  1.8798
12735TIP3    H259697   3.283   4.239   5.635  0.8414  0.7243  0.7194
12736TIP3   OH259698   1.049   6.376   3.344  0.0031  0.0119 -0.3450
12736TIP3    H159699   0.993   6.374   3.267  0.0139  0.9121 -0.3886
12736TIP3    H259700   0.999   6.329   3.411 -0.8677  0.9012 -0.3468
12737TIP3   OH259701   0.390   1.790   5.901  0.1637  0.3475 -0.4741
12737TIP3    H159702   0.393   1.883   5.877 -2.0367  0.8844  1.0803
12737TIP3    H259703   0.333   1.750   5.836 -1.5020  0.7614  0.6850
12738TIP3   OH259704   0.580   6.216   0.687 -0.2493  0.5746 -0.1433
12738TIP3    H159705   0.607   6.256   0.769  0.6113 -1.4028  0.5852
12738TIP3    H259706   0.613   6.276   0.619  0.3262  1.4815  0.9108
12739TIP3   OH259707   0.610   1.185   1.621  0.1000  0.1557  0.4900
12739TIP3    H159708   0.689   1.186   1.676  1.2429 -0.2736 -1.0662
12739TIP3    H259709   0.640   1.149   1.538 -2.1682 -1.8371  0.4461
12740TIP3   OH259710   5.722   6.227  11.530 -0.1033 -0.8284  0.0598
12740TIP3    H159711   5.799   6.176  11.504  3.5644  2.7313  2.7030
12740TIP3    H259712   5.714   6.212  11.625 -0.5562  1.3023  0.4170
12741TIP3   OH259713   3.724   2.516   1.480 -0.0380 -0.2984  0.0499
12741TIP3    H159714   3.669   2.517   1.558 -1.0962  1.4236 -0.6549
12741TIP3    H259715   3.743   2.423   1.465  1.1650 -0.6198  2.9582
12742TIP3   OH259716   5.300   5.599   1.816  0.3239 -0.0300 -0.4765
12742TIP3    H159717   5.341   5.681   1.844  0.1136 -0.0240 -0.1871
12742TIP3    H259718   5.358   5.566   1.747  0.4702  0.3043 -0.5157
12743TIP3   OH259719   2.747   3.400   0.762 -0.2072  0.5330  0.0899
12743TIP3    H159720   2.755   3.305   0.762  0.4048  0.5763 -0.2414
12743TIP3    H259721   2.828   3.431   0.720  1.2297  1.3176  3.1443
12744TIP3   OH259722   5.928   2.832  14.354 -0.2167  0.0730  0.0210
12744TIP3    H159723   5.864   2.852  14.422 -1.1050 -0.5329 -0.6156
12744TIP3    H259724   5.963   2.745  14.378  0.2504  0.3213  0.2664
12745TIP3   OH259725   1.537   3.255  13.065 -0.0381 -0.4850  0.6507
12745TIP3    H159726   1.494   3.248  13.150  0.2593  4.2304  1.4287
12745TIP3    H259727   1.482   3.204  13.006 -1.1715 -2.5482  3.2818
12746TIP3   OH259728   6.459   3.504  13.633 -0.6544 -0.0083  0.1178
12746TIP3    H159729   6.445   3.411  13.653  0.2762 -0.5207 -1.3771
12746TIP3    H259730   6.398   3.522  13.561  0.3806  0.0225 -0.7817
12747TIP3   OH259731   4.644   0.830  12.986  0.2418 -0.0050 -0.6314
12747TIP3    H159732   4.711   0.871  13.041  1.2311 -1.8774 -0.3490
12747TIP3    H259733   4.692   0.767  12.932 -1.1071 -0.3295 -1.5158
12748TIP3   OH259734   1.851   1.004  16.511 -0.1694  0.0499  0.4609
12748TIP3    H159735   1.766   1.010  16.556 -0.3272 -0.7121  0.2847
12748TIP3    H259736   1.828   0.982  16.421  0.2257 -0.5323  0.4974
12749TIP3   OH259737   4.172   3.617  14.907  1.2264  0.0430  0.0138
12749TIP3    H159738   4.151   3.629  14.999  0.6777 -0.2524 -0.0719
12749TIP3    H259739   4.176   3.523  14.895  0.0079  0.0510 -0.5483
12750TIP3   OH259740   6.611   1.880  16.114 -0.1765 -0.0312  0.4141
12750TIP3    H159741   6.541   1.845  16.060  0.7924 -0.0188 -0.8791
12750TIP3    H259742   6.636   1.963  16.072  1.3479 -0.5604  0.1955
12751TIP3   OH259743   6.823   3.275  13.363  0.4245  0.2842 -0.5910
12751TIP3    H159744   6.832   3.347  13.426  0.4402 -0.4941  0.3232
12751TIP3    H259745   6.906   3.229  13.368 -0.0217 -0.5023 -0.2579
12752TIP3   OH259746   5.466   5.179  13.998  0.1866  0.5972  0.4073
12752TIP3    H159747   5.519   5.196  14.076  1.0238 -0.8146  0.1787
12752TIP3    H259748   5.530   5.172  13.927 -0.6092  2.6775 -0.6042
12753TIP3   OH259749   5.157   0.716  14.204 -0.8627  0.2331 -0.3481
12753TIP3    H159750   5.118   0.682  14.123 -1.1750 -2.6278  0.8761
12753TIP3    H259751   5.085   0.717  14.267 -0.2842  0.8550  0.3157
12754TIP3   OH259752   5.778   2.971  12.237 -0.5502 -0.2303 -0.2092
12754TIP3    H159753   5.708   2.969  12.172 -0.4963  0.3328 -0.2857
12754TIP3    H259754   5.849   2.920  12.198 -0.5953 -0.0678 -0.5032
12755TIP3   OH259755   1.370   3.246  15.690 -0.9042 -0.2055  0.6570
12755TIP3    H159756   1.350   3.317  15.751 -2.2558 -1.0911  1.2760
12755TIP3    H259757   1.286   3.220  15.654 -0.0302  1.5636 -3.1526
12756TIP3   OH259758   4.981   6.354   2.225 -0.6145 -0.0408  0.0479
12756TIP3    H159759   4.930   6.334   2.147  0.6136  0.9759 -1.0597
12756TIP3    H259760   4.927   6.415   2.275 -1.8071 -1.4134  0.4924
12757TIP3   OH259761   3.639   5.305  11.056 -0.2782  0.6035 -0.1897
12757TIP3    H159762   3.701   5.354  11.001 -0.2540  1.8644  0.9281
12757TIP3    H259763   3.694   5.241  11.101  0.6738  3.0191  2.3412
12758TIP3   OH259764   1.022   5.418   1.640 -0.2825  0.2384  0.1985
12758TIP3    H159765   0.963   5.413   1.565  0.0028  1.5598 -0.1351
12758TIP3    H259766   0.993   5.495   1.688  0.2059  0.0090  0.8808
12759TIP3   OH259767   2.183   4.805   1.255  0.5892  0.6642  0.2915
12759TIP3    H159768   2.140   4.727   1.290 -3.8674  1.7199 -2.1208
12759TIP3    H259769   2.191   4.789   1.161  0.7413  2.5600 -0.0721
12760TIP3   OH259770   1.490   0.130  15.084  0.2803  0.0312 -0.0903
12760TIP3    H159771   1.440   0.073  15.141 -2.6012  1.3281 -1.1313
12760TIP3    H259772   1.547   0.071  15.035 -0.7139 -1.6326  0.6778
12761TIP3   OH259773   6.343   1.453  11.738 -0.6468 -0.4012  0.4459
12761TIP3    H159774   6.419   1.424  11.688 -1.7022 -0.8542 -0.9665
12761TIP3    H259775   6.304   1.371  11.770 -0.8042 -0.1991  0.7755
12762TIP3   OH259776   6.633   1.032   1.397  0.3630 -0.3534 -0.0350
12762TIP3    H159777   6.634   1.063   1.306 -0.0367 -2.1155 -0.6742
12762TIP3    H259778   6.542   1.037   1.424  0.2440 -1.2367 -0.2512
12763TIP3   OH259779   2.012   2.213  14.578 -0.3147  0.1944 -0.0807
12763TIP3    H159780   1.922   2.213  14.546 -0.6135  3.4655  0.4308
12763TIP3    H259781   2.062   2.261  14.511  1.2000 -1.9142 -0.5649
12764TIP3   OH259782   5.030   5.560   2.314 -0.0534 -0.1918  0.3105
12764TIP3    H159783   5.052   5.490   2.375 -0.6628 -0.2302  0.5014
12764TIP3    H259784   4.968   5.519   2.253  0.6889 -0.2051 -0.4511
12765TIP3   OH259785   2.646   2.012  15.513 -0.3217  0.5589 -0.4522
12765TIP3    H159786   2.585   1.973  15.450 -0.0142  0.7538 -0.8800
12765TIP3    H259787   2.692   2.079  15.462  1.7814 -0.9927 -0.7590
12766TIP3   OH259788   5.658   3.475   4.442  0.2808 -0.3045  0.0618
12766TIP3    H159789   5.741   3.499   4.400 -0.1513  1.5271  0.2067
12766TIP3    H259790   5.673   3.386   4.473  1.7093 -0.5360 -1.1486
12767TIP3   OH259791   2.785   3.544   5.349 -0.5841 -0.8976 -0.0148
12767TIP3    H159792   2.838   3.480   5.301 -0.6547  0.6467 -2.2748
12767TIP3    H259793   2.828   3.551   5.434  0.3627 -2.7329 -0.2836
12768TIP3   OH259794   2.880   3.542   4.731 -0.0527 -0.1941  0.8789
12768TIP3    H159795   2.831   3.491   4.667 -0.4934  1.1278  0.1180
12768TIP3    H259796   2.820   3.552   4.805 -1.3016  1.9881 -0.3160
12769TIP3   OH259797   1.593   6.796   3.619 -0.4087 -0.1106 -0.8844
12769TIP3    H159798   1.516   6.756   3.578  0.6612 -2.1918 -0.9950
12769TIP3    H259799   1.591   6.887   3.590 -2.9347 -0.0108 -0.6812
12770TIP3   OH259800   0.350   5.877   3.633 -0.5632  0.4838  0.3552
12770TIP3    H159801   0.422   5.938   3.615 -0.0863 -0.1637  0.0381
12770TIP3    H259802   0.392   5.792   3.639 -1.2415  0.1681  0.6957
12771TIP3   OH259803   0.911   4.419  12.023 -0.5302  0.1695 -0.0480
12771TIP3    H159804   0.865   4.499  11.996 -0.8491 -0.0994 -0.3065
12771TIP3    H259805   0.940   4.379  11.942  1.6342  1.1811  0.1728
12772TIP3   OH259806   2.973   5.792  11.054  0.2193 -0.4835 -0.1527
12772TIP3    H159807   3.050   5.844  11.030  0.9116 -1.8396 -1.0646
12772TIP3    H259808   2.967   5.726  10.984 -2.5283  0.3218 -0.7684
12773TIP3   OH259809   0.418   2.718   2.543  0.1439  0.1503  0.2967
12773TIP3    H159810   0.500   2.669   2.543  0.4105  0.5977  0.6716
12773TIP3    H259811   0.354   2.657   2.581  0.0321 -0.6196 -1.0379
12774TIP3   OH259812   2.208   6.684  14.771 -0.2693 -0.3670  0.4137
12774TIP3    H159813   2.269   6.675  14.698 -2.1993 -3.1433 -1.0591
12774TIP3    H259814   2.123   6.700  14.729 -1.1926 -0.4867  2.1359
12775TIP3   OH259815   3.678   6.600  16.145  0.2492 -0.9480  0.6271
12775TIP3    H159816   3.673   6.647  16.062 -1.0202 -2.6026 -0.2837
12775TIP3    H259817   3.655   6.666  16.211  1.0413  0.3312 -0.3361
12776TIP3   OH259818   3.645   4.444  16.763 -0.4210 -0.0556  0.2280
12776TIP3    H159819   3.570   4.474  16.711 -1.8489 -3.0301  0.3239
12776TIP3    H259820   3.626   4.473  16.852 -0.5194  0.7701 -0.0520
12777TIP3   OH259821   0.385   1.925   3.837 -0.2681  0.1902  0.2086
12777TIP3    H159822   0.327   1.962   3.903 -0.8333  1.7817 -1.1092
12777TIP3    H259823   0.451   1.876   3.887 -1.5384  0.0641  1.8327
12778TIP3   OH259824   1.174   1.027  16.961  0.4041 -0.4200 -0.0957
12778TIP3    H159825   1.144   1.009  17.050  0.4336  0.1658  0.0334
12778TIP3    H259826   1.099   1.003  16.905 -0.5935  1.6052  0.2626
12779TIP3   OH259827   4.526   5.703  13.714 -0.4828 -0.0058  0.4698
12779TIP3    H159828   4.571   5.674  13.634  0.2468  0.4771  0.6875
12779TIP3    H259829   4.490   5.623  13.751 -0.3618 -0.3156 -0.0629
12780TIP3   OH259830   5.997   1.739   3.228 -0.1474 -0.0354 -0.0812
12780TIP3    H159831   5.925   1.699   3.180 -0.2125 -0.6261  0.4965
12780TIP3    H259832   6.076   1.709   3.185 -0.2342  0.4514 -0.5919
12781TIP3   OH259833   0.969   3.469   1.273  0.2792  0.2386  0.2378
12781TIP3    H159834   0.925   3.427   1.199 -0.9583  0.1975  0.9633
12781TIP3    H259835   0.954   3.563   1.261  1.1725  0.3330 -0.2245
12782TIP3   OH259836   3.999   1.172  14.391 -0.0227 -0.0036  0.5640
12782TIP3    H159837   4.040   1.232  14.329  2.5201 -1.3402  0.8051
12782TIP3    H259838   3.969   1.098  14.338 -0.9007  0.3412  0.5642
12783TIP3   OH259839   5.534   0.186  14.120 -0.7495 -0.4333  0.1089
12783TIP3    H159840   5.601   0.191  14.052 -1.3002 -0.9991 -0.4909
12783TIP3    H259841   5.501   0.276  14.128 -2.6081 -0.8002 -2.3677
12784TIP3   OH259842   1.787   3.725   4.105  0.3334  0.3767  0.4875
12784TIP3    H159843   1.730   3.661   4.064 -1.1062  1.3946  0.8071
12784TIP3    H259844   1.874   3.704   4.073  0.1793 -2.6150  1.6652
12785TIP3   OH259845   3.238   6.569   4.212 -0.0217  0.4297 -0.4244
12785TIP3    H159846   3.192   6.545   4.292  1.2050  0.1691  0.2410
12785TIP3    H259847   3.182   6.537   4.142 -0.3810 -0.7729  0.3702
12786TIP3   OH259848   4.183   6.332  12.375 -0.1370  0.4291 -0.2069
12786TIP3    H159849   4.277   6.344  12.392 -0.0185  0.2922 -0.7182
12786TIP3    H259850   4.146   6.420  12.381 -0.1435  0.3562  0.9315
12787TIP3   OH259851   2.267   0.202  13.325  0.3366 -0.0348  0.4573
12787TIP3    H159852   2.354   0.241  13.322  0.2152  0.2466  0.5669
12787TIP3    H259853   2.235   0.207  13.235  0.2616  0.2584  0.4988
12788TIP3   OH259854   6.669   6.759   1.610  0.1574  0.2631 -0.3005
12788TIP3    H159855   6.685   6.748   1.704  0.4369 -0.3586 -0.4114
12788TIP3    H259856   6.634   6.847   1.601  3.6224  1.8531 -0.0093
12789TIP3   OH259857   5.971   6.335   3.917 -0.1484 -0.2445 -0.3701
12789TIP3    H159858   5.901   6.400   3.927 -1.4649 -1.6256 -0.3265
12789TIP3    H259859   6.043   6.369   3.971 -1.2580  0.5697  0.6523
12790TIP3   OH259860   0.337   5.548  15.268 -0.0322  0.0408 -0.7896
12790TIP3    H159861   0.402   5.615  15.286  0.2542 -0.2199 -0.8408
12790TIP3    H259862   0.382   5.486  15.210  0.5588 -1.5410  1.2445
12791TIP3   OH259863   4.163   5.342   0.731  0.0713  0.1773 -0.3505
12791TIP3    H159864   4.204   5.300   0.655  1.3795  1.4796 -0.4146
12791TIP3    H259865   4.075   5.365   0.702  0.4983  0.4953 -1.4163
12792TIP3   OH259866   5.009   0.289  16.786 -0.4358 -0.4687  0.6681
12792TIP3    H159867   5.076   0.327  16.843  1.3589 -1.9796 -0.3178
12792TIP3    H259868   5.030   0.324  16.699 -2.8626  1.4633  0.7730
12793TIP3   OH259869   1.091   0.103  16.000 -0.7214 -0.4295  0.7424
12793TIP3    H159870   1.081   0.056  16.083 -2.6522 -1.0679  0.2115
12793TIP3    H259871   1.142   0.043  15.945 -1.1180 -0.8715  0.8481
12794TIP3   OH259872   1.103   6.346   1.392  0.2624 -0.3318 -0.6147
12794TIP3    H159873   1.117   6.270   1.336  0.6702 -0.1986 -0.6954
12794TIP3    H259874   1.130   6.317   1.479 -2.3994 -1.2447 -0.0098
12795TIP3   OH259875   2.295   2.432  10.430 -0.3033 -0.5446 -0.3930
12795TIP3    H159876   2.343   2.378  10.493 -1.1231 -0.5482  0.2390
12795TIP3    H259877   2.256   2.369  10.370 -2.4006 -0.7987  1.1424
12796TIP3   OH259878   4.127   3.518   3.931  0.7232 -0.3786 -0.2965
12796TIP3    H159879   4.072   3.478   3.998 -0.3608  1.2943 -0.1345
12796TIP3    H259880   4.073   3.519   3.852  0.4322  1.3446 -0.1175
12797TIP3   OH259881   0.368   6.057   5.158 -0.6785  0.1719  0.5843
12797TIP3    H159882   0.460   6.037   5.142 -0.2901  2.3416 -0.2750
12797TIP3    H259883   0.356   6.045   5.252  0.3366 -0.6098  0.6264
12798TIP3   OH259884   0.452   0.933   6.414  0.2963  0.1366  0.0558
12798TIP3    H159885   0.371   0.898   6.378 -0.1830  0.5079  0.7565
12798TIP3    H259886   0.504   0.856   6.435 -1.2042 -0.2626  2.6622
12799TIP3   OH259887   4.773   2.711   2.116  0.2985 -0.2184  0.2147
12799TIP3    H159888   4.799   2.738   2.028 -0.7301 -0.1675 -0.0900
12799TIP3    H259889   4.815   2.626   2.129 -0.4696 -0.7557 -0.7794
12800TIP3   OH259890   4.118   1.266  15.933  0.2570  0.1124 -0.3952
12800TIP3    H159891   4.117   1.242  16.025 -0.5291  0.0587 -0.4140
12800TIP3    H259892   4.070   1.195  15.889  1.0018 -0.0883 -0.9028
12801TIP3   OH259893   3.491   0.249   5.277 -0.5713 -0.4092  0.4430
12801TIP3    H159894   3.540   0.325   5.244  0.9842 -1.8356 -0.7069
12801TIP3    H259895   3.409   0.250   5.229 -0.1163 -0.0405 -0.3473
12802TIP3   OH259896   6.648   1.496   4.226 -0.0597  0.2204 -0.4580
12802TIP3    H159897   6.664   1.567   4.164 -0.7963  2.2511  1.5456
12802TIP3    H259898   6.564   1.459   4.199  0.2346  0.2100 -1.3954
12803TIP3   OH259899   4.316   6.235   1.243  0.2183  0.5496  0.1776
12803TIP3    H159900   4.251   6.201   1.304  0.2181 -0.6910 -0.4884
12803TIP3    H259901   4.278   6.221   1.157  0.5116  1.6562 -0.1538
12804TIP3   OH259902   5.438   5.002  14.691 -0.6557 -0.2062 -0.2422
12804TIP3    H159903   5.411   5.093  14.676 -0.0952  0.6289  3.1545
12804TIP3    H259904   5.394   4.977  14.771  1.1735 -2.0702  0.2512
12805TIP3   OH259905   4.598   5.603   2.283  0.3142 -0.3382  0.4782
12805TIP3    H159906   4.512   5.625   2.249 -0.5596 -2.1602  1.3598
12805TIP3    H259907   4.643   5.560   2.209  1.2932  2.3356 -0.6127
12806TIP3   OH259908   0.967   2.482  13.673 -0.0359  0.1471  0.0933
12806TIP3    H159909   0.976   2.471  13.767 -0.7070 -0.2524  0.1170
12806TIP3    H259910   0.909   2.557  13.663 -2.3712 -1.5222  0.0808
12807TIP3   OH259911   4.031   4.879  11.838 -0.5820 -0.3256  0.9096
12807TIP3    H159912   4.036   4.958  11.891 -0.0832  0.0004  0.3911
12807TIP3    H259913   3.959   4.894  11.777  0.9364  0.7170 -0.7183
12808TIP3   OH259914   1.280   1.962  16.014  0.0670 -0.6042  0.2488
12808TIP3    H159915   1.235   2.045  16.028  0.9749 -0.2099  0.9441
12808TIP3    H259916   1.212   1.895  16.027 -0.9882  0.0353 -1.6129
12809TIP3   OH259917   1.205   2.571  14.172  0.0374 -0.2265 -0.5286
12809TIP3    H159918   1.257   2.491  14.182 -0.8263 -0.8868 -1.1259
12809TIP3    H259919   1.265   2.642  14.195  0.4760 -1.1084  1.2342
12810TIP3   OH259920   2.083   5.195  17.207 -0.2096 -0.3604  0.3328
12810TIP3    H159921   2.173   5.222  17.192 -0.3202  1.4823  2.4437
12810TIP3    H259922   2.091   5.122  17.269 -0.1298  1.2904  2.3981
12811TIP3   OH259923   1.651   0.958   4.610  0.6798 -0.4630  0.5619
12811TIP3    H159924   1.570   1.010   4.602  0.3780 -0.8996  0.7325
12811TIP3    H259925   1.639   0.908   4.691  0.7286 -1.2051  0.1141
12812TIP3   OH259926   0.923   1.707   2.716 -0.3905 -0.4583  0.0168
12812TIP3    H159927   0.904   1.722   2.624  0.3349 -1.4781 -0.3162
12812TIP3    H259928   1.018   1.721   2.724 -0.5076  0.0074  0.6868
12813TIP3   OH259929   1.464   2.835  12.320 -0.1610 -0.2429 -0.3718
12813TIP3    H159930   1.522   2.842  12.396 -1.1983 -0.3213  0.4409
12813TIP3    H259931   1.523   2.813  12.247  1.4771  3.6514 -0.4861
12814TIP3   OH259932   5.051   0.696  13.550  0.0146 -0.2123 -0.0887
12814TIP3    H159933   4.979   0.664  13.604  1.0401 -1.6951  0.4580
12814TIP3    H259934   5.062   0.787  13.576 -2.9099  0.6954 -1.5948
12815TIP3   OH259935   1.602   4.485   4.729  0.7273 -0.5286 -0.0577
12815TIP3    H159936   1.560   4.552   4.675  0.5672  2.0973  3.0451
12815TIP3    H259937   1.591   4.404   4.680 -1.1069  1.3175 -2.9611
12816TIP3   OH259938   6.446   2.169  14.985  0.2377 -0.3456  0.1855
12816TIP3    H159939   6.417   2.253  14.950 -1.3862 -0.6498  0.7120
12816TIP3    H259940   6.402   2.104  14.932 -1.9180 -0.8190  2.3628
12817TIP3   OH259941   0.617   6.591   2.209  0.1928 -0.8876 -0.2138
12817TIP3    H159942   0.544   6.575   2.149 -0.2739 -0.6992  0.2958
12817TIP3    H259943   0.648   6.678   2.185  0.3278 -1.0143 -0.5074
12818TIP3   OH259944   6.060   1.191  16.329 -0.2573  0.6003 -0.1410
12818TIP3    H159945   6.086   1.099  16.341 -2.0530  0.0715  0.0237
12818TIP3    H259946   6.112   1.239  16.393  0.2924 -0.3824  0.1675
12819TIP3   OH259947   5.193   1.520  15.555  0.0950  0.3701  0.8049
12819TIP3    H159948   5.170   1.609  15.582 -0.6381  0.6252 -0.5814
12819TIP3    H259949   5.113   1.469  15.569 -0.1612  0.4124 -0.4111
12820TIP3   OH259950   6.359   4.715   5.746 -0.2100  0.1192  0.3363
12820TIP3    H159951   6.304   4.758   5.681 -1.9882 -0.4876  1.3689
12820TIP3    H259952   6.297   4.673   5.806  1.3946 -0.9536  1.3272
12821TIP3   OH259953   0.845   1.382  11.930  0.0933  0.4865  0.1773
12821TIP3    H159954   0.751   1.381  11.951 -0.0131 -0.2796 -0.2984
12821TIP3    H259955   0.849   1.417  11.841  0.0132 -1.7507 -0.7873
12822TIP3   OH259956   0.779   3.733  11.824  0.4745 -0.2832 -0.2698
12822TIP3    H159957   0.838   3.800  11.790  1.0699  0.2134  1.6336
12822TIP3    H259958   0.804   3.653  11.777  0.5999  0.5255 -1.6541
12823TIP3   OH259959   5.182   4.015   2.602  0.0430  0.0445 -0.1747
12823TIP3    H159960   5.108   4.026   2.662 -0.1273  0.1892 -0.4067
12823TIP3    H259961   5.141   3.995   2.518  0.2028  1.3557 -0.5856
12824TIP3   OH259962   2.504   0.240   3.876  0.2273 -0.0591 -0.1792
12824TIP3    H159963   2.592   0.205   3.893  0.0688  0.3465  1.7823
12824TIP3    H259964   2.495   0.312   3.939 -1.2815  0.3195 -0.7911
12825TIP3   OH259965   4.300   2.426  13.689  0.5331  0.3277 -0.1077
12825TIP3    H159966   4.228   2.470  13.734  0.8912  0.0158  0.8086
12825TIP3    H259967   4.263   2.397  13.606 -0.5559 -0.2780  0.5590
12826TIP3   OH259968   0.005   2.623  11.006  0.0363  0.3669  0.6525
12826TIP3    H159969   0.090   2.624  10.962 -0.5670  1.0275 -0.5348
12826TIP3    H259970  -0.048   2.562  10.955 -0.8639  1.6038  0.0614
12827TIP3   OH259971   3.174   0.956  12.516 -0.4497 -0.2348 -0.0157
12827TIP3    H159972   3.258   0.918  12.540 -0.6907 -0.4983  0.4309
12827TIP3    H259973   3.170   0.949  12.420 -0.5980 -1.5725  0.0794
12828TIP3   OH259974   1.809   4.151   5.149  0.2936 -0.2382 -0.2408
12828TIP3    H159975   1.773   4.073   5.192 -1.6025  0.5328 -0.3281
12828TIP3    H259976   1.897   4.160   5.186  0.9345 -2.8761 -0.8481
12829TIP3   OH259977   4.188   1.891   2.595  0.8361 -0.2348  0.1956
12829TIP3    H159978   4.121   1.924   2.535 -0.5233  0.0736  1.7968
12829TIP3    H259979   4.221   1.969   2.639  0.2464 -0.6408  1.3874
12830TIP3   OH259980   5.550   3.364  17.209  0.0780 -0.6477  0.3008
12830TIP3    H159981   5.552   3.406  17.295 -1.9695  0.4344 -0.1140
12830TIP3    H259982   5.536   3.436  17.147  0.5358 -1.5168 -0.8635
12831TIP3   OH259983   4.505   1.161   1.391  0.4035  0.6597  0.2482
12831TIP3    H159984   4.458   1.208   1.460  1.3671  1.3102  0.4918
12831TIP3    H259985   4.587   1.135   1.432 -0.4121 -1.9885  0.3596
12832TIP3   OH259986   1.013   4.729  16.362  0.2667  0.3765  0.0221
12832TIP3    H159987   0.927   4.725  16.405 -0.1670  0.2825 -0.8338
12832TIP3    H259988   1.075   4.717  16.434 -0.4508 -0.1865  0.5740
12833TIP3   OH259989   4.034   1.910   1.163 -0.0403 -0.4735 -0.0078
12833TIP3    H159990   3.975   1.980   1.135  0.5095 -0.5162 -1.3032
12833TIP3    H259991   4.106   1.955   1.207  0.0194 -0.2666 -0.3158
12834TIP3   OH259992   2.221   3.384   1.235 -0.0762  0.5124  0.2774
12834TIP3    H159993   2.280   3.376   1.161 -1.6864  0.2070 -1.0285
12834TIP3    H259994   2.134   3.396   1.196 -0.8300  1.5230  2.1098
12835TIP3   OH259995   2.899   1.006  14.921  0.1098  0.3495 -0.1388
12835TIP3    H159996   2.891   1.091  14.965  0.3114  0.7278 -0.8054
12835TIP3    H259997   2.927   0.946  14.989 -0.5443  0.7099  0.4633
12836TIP3   OH259998   4.171   0.542   4.310  0.6797 -0.0973 -0.4683
12836TIP3    H159999   4.256   0.542   4.353  1.4594 -0.0926 -1.9541
12836TIP3    H260000   4.158   0.452   4.280 -0.2418 -0.2972  0.4833
12837TIP3   OH260001   4.973   6.540   1.139 -0.2339 -0.1016  0.4078
12837TIP3    H160002   5.041   6.553   1.206 -0.6764 -1.0903  1.0726
12837TIP3    H260003   4.892   6.536   1.189 -0.6717 -0.0123 -0.2887
12838TIP3   OH260004   4.916   2.215  17.005  0.1862  0.1549  0.2399
12838TIP3    H160005   4.934   2.176  17.090  0.1084 -0.1963  0.0974
12838TIP3    H260006   4.927   2.143  16.943 -0.2442  0.2873  0.0052
12839TIP3   OH260007   3.480   0.043  14.557  0.4102  0.3523  0.5377
12839TIP3    H160008   3.475   0.058  14.463  1.2655 -1.7914  0.0999
12839TIP3    H260009   3.389   0.023  14.583  0.5057 -1.2866 -0.2865
12840TIP3   OH260010   6.155   4.383   4.142  0.7568  0.1736  0.0225
12840TIP3    H160011   6.205   4.391   4.061  1.5041 -1.8467  0.2245
12840TIP3    H260012   6.078   4.333   4.118 -0.0398  1.2839  0.1889
12841TIP3   OH260013   1.897   4.714  11.579 -0.4503  0.9041  0.0466
12841TIP3    H160014   1.959   4.769  11.627 -0.1446 -0.4251  1.2865
12841TIP3    H260015   1.943   4.630  11.568 -1.1884  0.6213 -1.0532
12842TIP3   OH260016   3.144   3.723  17.262  0.0770 -0.0984  0.5405
12842TIP3    H160017   3.206   3.696  17.330 -0.3341  0.8284  1.3040
12842TIP3    H260018   3.194   3.716  17.181  0.3302 -2.0179  0.8035
12843TIP3   OH260019   5.596   2.735  12.709  0.0367 -0.1546  0.5141
12843TIP3    H160020   5.565   2.822  12.735 -0.6012 -0.5013  0.9274
12843TIP3    H260021   5.601   2.739  12.614  0.4953  0.4925  0.5526
12844TIP3   OH260022   3.715   6.285   2.504  0.1877 -0.0802 -0.3025
12844TIP3    H160023   3.686   6.194   2.497  0.6510 -0.2437 -0.1525
12844TIP3    H260024   3.786   6.293   2.440  0.9804 -0.1746  0.5399
12845TIP3   OH260025   6.018   0.213  16.007  0.3497  0.6920  0.3304
12845TIP3    H160026   5.980   0.163  15.935 -1.1105  2.0743  0.0915
12845TIP3    H260027   6.053   0.146  16.066  0.1206 -0.5291 -0.8597
12846TIP3   OH260028   6.793   4.270  15.770  0.0581  0.5453  0.0873
12846TIP3    H160029   6.851   4.198  15.796  0.0133  0.1783 -0.7855
12846TIP3    H260030   6.709   4.249  15.810  0.6353  1.3731  1.8391
12847TIP3   OH260031   5.283   0.155  15.484  0.0586  0.7285  0.0063
12847TIP3    H160032   5.329   0.198  15.412 -0.2803 -0.7855 -1.1778
12847TIP3    H260033   5.190   0.159  15.459 -0.3930  2.6500  1.7554
12848TIP3   OH260034   0.872   4.004  12.776 -0.4233 -0.4269 -0.3105
12848TIP3    H160035   0.947   3.960  12.816 -0.6970 -0.9679 -0.3802
12848TIP3    H260036   0.878   3.983  12.683 -2.2836 -2.9966  0.0525
12849TIP3   OH260037   0.933   4.060   3.113  0.0669 -0.5074  0.0002
12849TIP3    H160038   1.023   4.044   3.085  0.1057  0.1589 -0.2963
12849TIP3    H260039   0.915   3.994   3.179  1.6499  0.8943  1.9308
12850TIP3   OH260040   2.285   0.382  14.230 -0.1844  0.4308  0.8152
12850TIP3    H160041   2.194   0.383  14.259 -0.6589 -1.0163 -0.4762
12850TIP3    H260042   2.279   0.393  14.135  0.6978 -2.8790  0.2702
12851TIP3   OH260043   0.382   4.311   4.881  0.1247 -0.5153 -0.2936
12851TIP3    H160044   0.366   4.331   4.973  0.7462 -0.8807 -0.0971
12851TIP3    H260045   0.440   4.235   4.883 -1.1144 -1.5164 -1.0068
12852TIP3   OH260046   4.607   6.428   0.576 -0.1865  0.0301  0.2376
12852TIP3    H160047   4.636   6.365   0.641 -1.9458 -0.4750  0.5895
12852TIP3    H260048   4.524   6.393   0.543 -1.1687  2.0748  0.3502
12853TIP3   OH260049   5.837   0.635   2.746 -0.8961 -0.2252  0.1765
12853TIP3    H160050   5.868   0.560   2.695 -3.0135 -1.7315  0.9267
12853TIP3    H260051   5.743   0.639   2.728 -1.0702  1.4245  1.2101
12854TIP3   OH260052   1.542   4.215   5.166  0.1366  0.0655 -0.7740
12854TIP3    H160053   1.608   4.252   5.108  1.0672  1.0427  0.8326
12854TIP3    H260054   1.506   4.290   5.213  0.8918 -0.8381  1.3852
12855TIP3   OH260055   3.641   0.856   2.590 -0.5125 -0.2709  0.3963
12855TIP3    H160056   3.715   0.870   2.649  0.5330 -0.6607 -0.7930
12855TIP3    H260057   3.567   0.897   2.635  0.9164  2.5166  0.4797
12856TIP3   OH260058   4.129   4.401   2.136  0.4403 -0.3178 -0.1185
12856TIP3    H160059   4.194   4.403   2.206  0.7206  0.7461 -0.3977
12856TIP3    H260060   4.158   4.468   2.074 -1.4511  0.9207  0.2375
12857TIP3   OH260061   2.517   1.769   3.010  0.2075 -0.5611 -0.2090
12857TIP3    H160062   2.515   1.675   2.995 -0.8886 -0.4911 -0.6378
12857TIP3    H260063   2.604   1.787   3.046  0.0215 -1.8940  0.9829
12858TIP3   OH260064   5.948   4.911  13.785 -0.2720  0.0462  0.6612
12858TIP3    H160065   5.892   4.916  13.863 -2.3624 -0.1369 -0.7523
12858TIP3    H260066   5.911   4.839  13.734  2.7455 -1.6939  0.7027
12859TIP3   OH260067   2.551   6.679   0.130  0.6262 -0.5465  0.1649
12859TIP3    H160068   2.634   6.717   0.100 -0.4672  0.3113 -1.9825
12859TIP3    H260069   2.567   6.585   0.129  0.9414 -0.5374 -2.5118
12860TIP3   OH260070   0.941   3.751   1.186  0.1102  0.2728  0.5047
12860TIP3    H160071   1.009   3.801   1.232 -0.3590 -0.1131  1.6524
12860TIP3    H260072   0.989   3.703   1.118  0.6169  1.9972 -0.4161
12861TIP3   OH260073   1.073   2.996  17.006 -0.2804  0.5211 -0.5430
12861TIP3    H160074   1.148   2.950  16.967 -0.9713 -0.6680 -0.4947
12861TIP3    H260075   0.996   2.956  16.966 -0.9317  1.1738  0.0207
12862TIP3   OH260076   3.865   3.672   5.443 -0.4066 -0.0188 -0.0802
12862TIP3    H160077   3.815   3.662   5.362 -0.7951  0.8361  0.0460
12862TIP3    H260078   3.940   3.726   5.418 -0.1001 -0.4117 -0.0325
12863TIP3   OH260079   1.536   0.312  15.305 -0.2179  0.1463  0.3113
12863TIP3    H160080   1.505   0.391  15.261  0.0419  0.1343  0.1059
12863TIP3    H260081   1.561   0.252  15.235 -1.3582 -0.5118  0.4517
12864TIP3   OH260082   1.200   0.975  12.330  0.4491  0.1976  0.0189
12864TIP3    H160083   1.234   0.958  12.418  1.5578  1.5045 -0.1297
12864TIP3    H260084   1.106   0.962  12.338  0.4713  0.7235  1.5164
12865TIP3   OH260085   6.706   0.153  14.315  0.5764  0.0372  0.5022
12865TIP3    H160086   6.663   0.192  14.391  0.2185 -0.4109  0.5299
12865TIP3    H260087   6.727   0.228  14.259  0.2138  0.3035  0.7183
12866TIP3   OH260088   6.412   4.823  16.814  0.1181 -0.0354 -0.3337
12866TIP3    H160089   6.432   4.812  16.907  0.5768 -0.9164 -0.5215
12866TIP3    H260090   6.484   4.877  16.780  1.1189 -1.4517 -0.5815
12867TIP3   OH260091   5.229   0.216  12.320  0.0334  0.9494 -0.1225
12867TIP3    H160092   5.297   0.156  12.289 -0.0035  1.2660 -0.8263
12867TIP3    H260093   5.271   0.265  12.391  0.9381  1.9622 -1.3012
12868TIP3   OH260094   3.466   0.133  17.143  0.2206  0.0610  0.0310
12868TIP3    H160095   3.550   0.101  17.175  1.2105  1.1624 -1.3045
12868TIP3    H260096   3.481   0.226  17.126 -0.9540  0.0534 -1.2354
12869TIP3   OH260097   0.739   4.892   5.493  0.1080 -0.1443 -0.1488
12869TIP3    H160098   0.785   4.970   5.461 -1.3118  0.6432 -0.3380
12869TIP3    H260099   0.722   4.912   5.585  0.9301 -0.8301  0.1635
12870TIP3   OH260100   6.382   1.105  15.105  0.0561 -0.2118  0.4336
12870TIP3    H160101   6.423   1.059  15.178  0.7703 -0.9235 -0.4077
12870TIP3    H260102   6.410   1.058  15.027 -1.0327  0.2871 -0.2862
12871TIP3   OH260103   2.838   2.265   3.340  0.0925 -0.1787  0.0262
12871TIP3    H160104   2.881   2.181   3.324  0.9366  0.0056  1.1881
12871TIP3    H260105   2.868   2.322   3.269  2.9097  0.3376  1.4957
12872TIP3   OH260106   4.806   1.342  13.086 -0.0407 -0.1332  0.5015
12872TIP3    H160107   4.850   1.279  13.029 -0.1465 -0.6473  0.9820
12872TIP3    H260108   4.749   1.289  13.141 -1.1021  0.5115  0.0419
12873TIP3   OH260109   2.401   0.611   3.817  0.0453 -0.1870  0.7543
12873TIP3    H160110   2.486   0.650   3.794  0.6014 -0.9550  1.4613
12873TIP3    H260111   2.422   0.546   3.884 -1.0624 -0.6518  0.6641
12874TIP3   OH260112   1.547   2.542   3.237  0.0102  0.3053 -0.3105
12874TIP3    H160113   1.532   2.457   3.197 -0.3996  0.1062  0.2574
12874TIP3    H260114   1.581   2.596   3.166  0.0081 -0.2513 -0.7415
12875TIP3   OH260115   2.022   0.276  16.531  0.2208  0.1910  0.0737
12875TIP3    H160116   2.079   0.276  16.454 -0.7560  0.4548 -0.6624
12875TIP3    H260117   2.044   0.356  16.578 -0.4334  0.9451 -0.8835
12876TIP3   OH260118   4.656   3.918  12.212  0.1346 -0.3778  0.3593
12876TIP3    H160119   4.627   3.829  12.196 -0.8888  0.1780 -1.1653
12876TIP3    H260120   4.589   3.955  12.269 -0.6302  0.0318 -0.7717
12877TIP3   OH260121   6.467   6.220   0.670  0.0768  0.3799  0.0727
12877TIP3    H160122   6.442   6.164   0.743 -0.7243  1.9604  1.0869
12877TIP3    H260123   6.507   6.161   0.606 -2.1754 -1.6106  0.3594
12878TIP3   OH260124   4.324   6.443  15.970 -0.1317  0.2602 -0.0238
12878TIP3    H160125   4.412   6.412  15.992  0.1747  0.8542 -0.3898
12878TIP3    H260126   4.278   6.364  15.940  0.5858  0.1236 -0.7972
12879TIP3   OH260127   6.564   0.658   2.108  0.5045  0.3793 -0.1386
12879TIP3    H160128   6.481   0.670   2.155 -0.5303 -0.4435 -1.6882
12879TIP3    H260129   6.579   0.742   2.064  1.2871  1.0266  1.2857
12880TIP3   OH260130   2.842   6.443   0.188  0.5846  0.5688  0.8404
12880TIP3    H160131   2.830   6.409   0.277 -0.8793  0.2352  0.5394
12880TIP3    H260132   2.896   6.377   0.145 -0.7203 -0.5048  0.7962
12881TIP3   OH260133   6.751   0.225  14.648  0.3538 -0.2026  0.0832
12881TIP3    H160134   6.692   0.288  14.688  0.2421 -0.7065  0.7255
12881TIP3    H260135   6.829   0.227  14.704  0.4962 -0.3728 -0.1066
12882TIP3   OH260136   0.346   2.426  13.982 -0.8118  0.3501  0.5078
12882TIP3    H160137   0.387   2.506  14.015 -0.4201  0.3108  0.1353
12882TIP3    H260138   0.253   2.448  13.974 -0.5086  1.2586 -0.9632
12883TIP3   OH260139   0.473   0.319   3.386  0.3013 -0.2346 -0.0467
12883TIP3    H160140   0.463   0.224   3.386 -1.1820 -0.0991  0.7113
12883TIP3    H260141   0.568   0.333   3.386  0.5480 -1.7102  0.9305
12884TIP3   OH260142   6.482   5.013   0.816  0.3649  0.0534 -0.0148
12884TIP3    H160143   6.415   4.960   0.861  0.2856  1.5659  1.7753
12884TIP3    H260144   6.564   4.972   0.842  0.2971  0.6492  1.2502
12885TIP3   OH260145   3.609   4.957  11.317 -0.3775  0.7130  0.1563
12885TIP3    H160146   3.639   5.028  11.373  0.6189  0.6046 -0.2294
12885TIP3    H260147   3.658   4.968  11.235  0.1012 -0.6347  0.2378
12886TIP3   OH260148   0.346   5.880   0.827 -0.0451  0.0095 -0.4327
12886TIP3    H160149   0.256   5.850   0.826  0.1275 -0.4863 -1.0040
12886TIP3    H260150   0.350   5.947   0.759  0.0111  0.0659 -0.3750
12887TIP3   OH260151   0.504   1.752   2.955 -0.3527 -0.4042 -0.5453
12887TIP3    H160152   0.568   1.819   2.929 -0.8322 -0.2382 -1.3148
12887TIP3    H260153   0.552   1.697   3.017  0.1179  0.5205 -0.0542
12888TIP3   OH260154   2.816   5.027  17.071  0.1764 -0.0845  0.5251
12888TIP3    H160155   2.805   4.958  17.137 -1.4202 -1.5668 -1.1933
12888TIP3    H260156   2.910   5.025  17.050  0.3419 -0.9868  1.2899
12889TIP3   OH260157   3.882   6.768   5.192  0.1454 -0.0440  0.2525
12889TIP3    H160158   3.895   6.684   5.148 -0.8430  0.7667 -1.7115
12889TIP3    H260159   3.816   6.813   5.139  1.9946  2.7531  0.0962
12890TIP3   OH260160   4.467   2.700   2.071 -0.1294  0.6208  0.0532
12890TIP3    H160161   4.556   2.684   2.104 -0.2633 -0.2099  0.0399
12890TIP3    H260162   4.437   2.614   2.041 -1.8337  0.3408  2.2632
12891TIP3   OH260163   0.516   0.266   5.208 -0.3343  0.1135  0.1368
12891TIP3    H160164   0.583   0.230   5.150 -0.5994 -0.9547  0.4750
12891TIP3    H260165   0.548   0.354   5.229 -0.1853  0.5114 -1.5474
12892TIP3   OH260166   3.074   2.207   3.045 -0.0911  1.0387  0.0265
12892TIP3    H160167   3.041   2.139   2.985 -0.1201 -0.3597  1.5538
12892TIP3    H260168   3.163   2.179   3.066  0.2032  1.9498  0.0222
12893TIP3   OH260169   0.785   6.237  11.427  0.1679 -0.0085  0.1668
12893TIP3    H160170   0.805   6.329  11.445  0.2773  0.0390 -0.1939
12893TIP3    H260171   0.867   6.201  11.393 -0.8073  0.6793 -3.2797
12894TIP3   OH260172   2.443   4.446  15.951  0.0684  0.7532 -0.0011
12894TIP3    H160173   2.418   4.473  15.863  0.0006 -0.9459 -0.5532
12894TIP3    H260174   2.433   4.350  15.950  0.6136  0.6433  1.6765
12895TIP3   OH260175   2.345   6.105   0.229  0.5432 -0.1469  0.1212
12895TIP3    H160176   2.356   6.114   0.134 -2.7071  1.2860 -0.2330
12895TIP3    H260177   2.382   6.186   0.265 -0.4140  0.4230 -0.1632
12896TIP3   OH260178   6.539   5.812   5.047 -0.3100 -0.1856  0.0747
12896TIP3    H160179   6.593   5.868   4.990 -2.1546 -0.1527 -1.7400
12896TIP3    H260180   6.476   5.771   4.988 -0.6460 -2.2478  1.7507
12897TIP3   OH260181   1.983   0.757  11.712 -0.7681 -0.4082 -0.0927
12897TIP3    H160182   2.023   0.670  11.704  2.0677  0.7000  0.6568
12897TIP3    H260183   1.937   0.770  11.629  0.2915 -1.9202 -0.9754
12898TIP3   OH260184   5.922   2.981  11.763 -0.4745 -0.1850  0.9480
12898TIP3    H160185   5.947   2.951  11.850 -3.0833 -0.5386  1.6440
12898TIP3    H260186   5.964   2.919  11.703  2.1912  0.6542  1.8135
12899TIP3   OH260187   0.761   3.498   0.264 -0.1885  0.6497 -0.0524
12899TIP3    H160188   0.774   3.415   0.217 -1.3347  2.0300 -3.0463
12899TIP3    H260189   0.844   3.544   0.255 -0.7716  1.4261 -1.9976
12900TIP3   OH260190   1.649   0.181  14.730  0.1895 -0.6091 -0.4527
12900TIP3    H160191   1.639   0.119  14.658 -0.8686 -0.4982 -0.4268
12900TIP3    H260192   1.724   0.148  14.780  1.2494 -0.4120 -1.8483
12901TIP3   OH260193   6.432   5.859  16.116  0.2410  0.8011  0.1654
12901TIP3    H160194   6.390   5.878  16.032 -0.4705  3.0847  0.9720
12901TIP3    H260195   6.468   5.942  16.145  1.1155 -0.0900  1.8131
12902TIP3   OH260196   5.258   0.464  14.635  0.6370 -0.6592 -0.0068
12902TIP3    H160197   5.228   0.396  14.696  0.7136  0.3639  1.2045
12902TIP3    H260198   5.342   0.432  14.604  0.5550 -1.2465  0.3514
12903TIP3   OH260199   3.686   3.328   1.954  0.0241 -0.1480  0.3396
12903TIP3    H160200   3.621   3.267   1.992 -1.5477  1.4106  0.2818
12903TIP3    H260201   3.685   3.307   1.861 -0.7153  0.1245  0.2778
12904TIP3   OH260202   6.693   3.617   3.706 -0.3071  0.4634 -0.1288
12904TIP3    H160203   6.702   3.589   3.615 -1.2940 -0.4170  0.0258
12904TIP3    H260204   6.614   3.672   3.706 -1.3235 -0.9581  0.4916
12905TIP3   OH260205   1.361   4.299   2.688  0.4335  0.5334 -0.3648
12905TIP3    H160206   1.350   4.304   2.593 -1.3232  0.5701 -0.2034
12905TIP3    H260207   1.281   4.339   2.723  0.0146 -1.4332  1.0991
12906TIP3   OH260208   2.967   4.543  11.315 -0.1544 -0.3117  0.2970
12906TIP3    H160209   3.007   4.530  11.401  2.7910 -0.5126 -1.0028
12906TIP3    H260210   2.940   4.635  11.315 -2.0972 -0.8065  2.0957
12907TIP3   OH260211   2.104   5.933  16.488  0.3119  0.1439 -0.2623
12907TIP3    H160212   2.048   5.937  16.411  1.2336 -1.1207 -1.0456
12907TIP3    H260213   2.193   5.943  16.453  0.8397 -1.7352  0.4420
12908TIP3   OH260214   2.748   0.115   2.064 -0.2320 -0.2016  0.9964
12908TIP3    H160215   2.830   0.085   2.026 -0.7075  0.5313 -0.6819
12908TIP3    H260216   2.686   0.044   2.048 -0.5029  0.2209  0.0905
12909TIP3   OH260217   2.181   3.789  12.275 -0.4366 -0.3018  0.2992
12909TIP3    H160218   2.226   3.713  12.313 -1.6275 -1.1386  0.1148
12909TIP3    H260219   2.225   3.804  12.192 -0.3771 -1.0080  0.1935
12910TIP3   OH260220   1.567   1.751   1.748 -0.1220  0.1873  0.2680
12910TIP3    H160221   1.542   1.665   1.715 -0.1232  0.5325 -0.6606
12910TIP3    H260222   1.659   1.742   1.773  0.2110  0.2005 -0.8893
12911TIP3   OH260223   4.930   5.990  17.252 -0.1898 -0.0226  0.5308
12911TIP3    H160224   4.919   5.940  17.333  2.6419  0.2101  1.1621
12911TIP3    H260225   4.923   6.082  17.279 -1.2058  0.0302  0.1281
12912TIP3   OH260226   6.803   4.835   4.323  0.1871 -0.0710  0.2886
12912TIP3    H160227   6.736   4.900   4.343  2.6729  2.5736  0.6251
12912TIP3    H260228   6.840   4.812   4.408  1.5686  0.6783 -0.0876
12913TIP3   OH260229   0.324   1.620   5.105 -0.1453 -0.1557  0.1808
12913TIP3    H160230   0.394   1.684   5.088  1.2316 -1.8309 -0.7472
12913TIP3    H260231   0.326   1.606   5.199  1.9040 -1.3323  0.0243
12914TIP3   OH260232   1.627   2.208  12.671 -0.1719 -0.0729 -0.2248
12914TIP3    H160233   1.536   2.178  12.676  0.4854 -2.2559 -0.1388
12914TIP3    H260234   1.642   2.252  12.755 -1.6922  2.1696 -1.0576
12915TIP3   OH260235   4.610   5.161   0.543 -0.6924 -0.2829  0.5441
12915TIP3    H160236   4.642   5.130   0.628  0.8877  1.2462  0.5529
12915TIP3    H260237   4.597   5.080   0.493 -3.4703 -1.3728  2.7547
12916TIP3   OH260238   2.487   1.294   0.139  0.2156  0.0015 -0.5253
12916TIP3    H160239   2.566   1.243   0.122  0.2824 -0.0819  0.0317
12916TIP3    H260240   2.512   1.356   0.207  0.6401  2.0198 -2.4098
12917TIP3   OH260241   1.790   4.751   0.866  0.3277  0.1321 -0.4964
12917TIP3    H160242   1.751   4.835   0.891 -1.0387  0.1109 -2.3265
12917TIP3    H260243   1.719   4.688   0.879  0.0828 -0.1207 -2.6048
12918TIP3   OH260244   2.363   4.820   6.627  0.7672 -0.9896 -0.2543
12918TIP3    H160245   2.395   4.818   6.537  1.6357 -3.7040  0.0303
12918TIP3    H260246   2.273   4.788   6.622 -0.4348  2.0424 -0.4541
12919TIP3   OH260247   1.308   4.366   6.300 -0.4755  0.2437 -0.0474
12919TIP3    H160248   1.390   4.323   6.278 -0.3062  0.8901 -0.6929
12919TIP3    H260249   1.331   4.458   6.312 -1.4210  0.8505 -2.3253
12920TIP3   OH260250   6.030   6.063   1.343  0.4626  0.4112 -0.4140
12920TIP3    H160251   5.992   6.104   1.420 -0.7412 -0.1402 -0.6876
12920TIP3    H260252   6.057   6.137   1.288 -2.0569  0.9221 -1.0910
12921TIP3   OH260253   0.579   5.286   1.359  0.2283 -0.3981  0.3842
12921TIP3    H160254   0.493   5.289   1.399 -0.4777 -0.9564 -1.0309
12921TIP3    H260255   0.573   5.216   1.293  2.7989 -2.9251  2.5551
12922TIP3   OH260256   0.342   2.579   1.513 -0.0226  0.1818 -0.1957
12922TIP3    H160257   0.334   2.489   1.543 -2.2756 -0.2048 -1.6697
12922TIP3    H260258   0.343   2.572   1.417 -2.0602  1.7303 -0.4112
12923TIP3   OH260259   1.884   1.756  12.367  0.4685 -0.2840 -0.0234
12923TIP3    H160260   1.809   1.771  12.309  0.9494  2.5846 -0.0233
12923TIP3    H260261   1.848   1.703  12.438 -1.2845  0.0549 -0.5941
12924TIP3   OH260262   4.478   5.225   2.309  0.1737  0.1516  0.0692
12924TIP3    H160263   4.513   5.266   2.388 -1.6642  0.8645  0.5515
12924TIP3    H260264   4.392   5.192   2.335 -0.7701  1.0076 -1.7762
12925TIP3   OH260265   1.063   5.912  15.542 -0.5896 -0.2877 -0.1508
12925TIP3    H160266   0.983   5.919  15.594 -1.6693  0.1809 -1.7961
12925TIP3    H260267   1.080   5.818  15.536 -3.2437 -0.7442 -2.9065
12926TIP3   OH260268   2.340   2.781  16.376  0.5075  0.3945 -0.3737
12926TIP3    H160269   2.370   2.822  16.295  0.5799 -0.1681 -0.6391
12926TIP3    H260270   2.280   2.712  16.346  0.8067 -0.0461  0.0281
12927TIP3   OH260271   1.480   4.386  16.728  0.5017 -0.3185 -0.2053
12927TIP3    H160272   1.442   4.304  16.759  0.7879 -1.0191 -1.6122
12927TIP3    H260273   1.490   4.439  16.807  2.5011 -2.5070  1.1596
12928TIP3   OH260274   1.483   0.452   3.965 -0.4227 -0.0382  0.4553
12928TIP3    H160275   1.576   0.456   3.985 -0.1837 -0.2338 -0.5603
12928TIP3    H260276   1.442   0.510   4.029  0.8656  3.6249 -1.6959
12929TIP3   OH260277   6.790   5.927  16.097 -0.3170  0.0953 -0.0702
12929TIP3    H160278   6.704   5.959  16.123 -1.3536 -2.3960 -0.1404
12929TIP3    H260279   6.844   5.936  16.175 -0.3926  2.3376 -0.2273
12930TIP3   OH260280   4.242   5.150   2.410  0.3649 -0.6129  0.5288
12930TIP3    H160281   4.222   5.188   2.495 -1.2916 -0.6515  0.2034
12930TIP3    H260282   4.170   5.088   2.394  0.3288 -0.1887 -1.1311
12931TIP3   OH260283   4.023   1.307   4.512  0.0489  0.3411  0.1641
12931TIP3    H160284   4.097   1.368   4.522 -0.6032  0.9961  1.2601
12931TIP3    H260285   4.063   1.220   4.517  0.9744  0.6495 -1.2096
12932TIP3   OH260286   5.323   4.091  15.122  0.4203  0.5309  0.0719
12932TIP3    H160287   5.297   4.055  15.207 -0.4391  1.1168  0.0710
12932TIP3    H260288   5.348   4.014  15.071 -0.2749  0.0362  0.4486
12933TIP3   OH260289   4.407   3.363   5.365 -0.0114  0.0203  0.5881
12933TIP3    H160290   4.312   3.349   5.357 -0.0129  0.5726 -0.4843
12933TIP3    H260291   4.434   3.394   5.278  0.6040  3.1234  1.7867
12934TIP3   OH260292   1.599   1.911   3.366 -1.1962  0.4639  0.2068
12934TIP3    H160293   1.652   1.981   3.327 -1.7721  0.1484 -1.2228
12934TIP3    H260294   1.542   1.957   3.428 -1.4570  1.2757 -0.5960
12935TIP3   OH260295   1.463   5.112   3.974  0.1225 -0.0410  0.2877
12935TIP3    H160296   1.402   5.056   3.926 -0.4489  1.8171 -1.2593
12935TIP3    H260297   1.537   5.122   3.914  1.7977 -1.8077  1.9141
12936TIP3   OH260298   4.052   1.427   3.742  0.2748  0.1092 -0.5909
12936TIP3    H160299   4.139   1.463   3.728  0.5210 -0.1564  0.1800
12936TIP3    H260300   4.063   1.332   3.732  0.5701 -0.1540  1.6722
12937TIP3   OH260301   6.745   0.996  13.811  0.3996  0.1409 -0.0235
12937TIP3    H160302   6.812   0.952  13.862  1.0737  1.1437 -0.0123
12937TIP3    H260303   6.793   1.057  13.755 -0.4278  0.1054 -0.8031
12938TIP3   OH260304   2.701   2.160   5.283 -0.2911  0.1625 -0.2860
12938TIP3    H160305   2.701   2.094   5.214 -0.8778 -1.6924  1.3607
12938TIP3    H260306   2.615   2.202   5.277 -0.0437  0.5568 -1.1379
12939TIP3   OH260307   1.076   4.617   4.484  0.1973  0.3120 -0.1765
12939TIP3    H160308   1.148   4.556   4.466  0.5628  1.1365 -1.7590
12939TIP3    H260309   1.079   4.631   4.578  1.1587 -0.8313 -0.0197
12940TIP3   OH260310   0.219   3.829  11.761  0.2403  0.2411 -0.2250
12940TIP3    H160311   0.298   3.786  11.727 -0.3894 -0.1314 -1.2644
12940TIP3    H260312   0.244   3.861  11.847  2.1505  1.8535 -1.2872
12941TIP3   OH260313   6.766   4.485  15.364 -0.5751  0.2950 -0.4286
12941TIP3    H160314   6.695   4.475  15.300  0.9120  0.6388 -2.2093
12941TIP3    H260315   6.842   4.444  15.323  0.2963 -0.0507  1.4216
12942TIP3   OH260316   1.963   2.447   0.678  0.1894 -0.5258 -0.6879
12942TIP3    H160317   1.970   2.378   0.744 -0.1945  0.6944  0.6874
12942TIP3    H260318   2.052   2.477   0.664  0.1306  0.1485  0.3329
12943TIP3   OH260319   1.389   1.062  14.383 -0.1199 -0.4808  0.1072
12943TIP3    H160320   1.439   1.075  14.464  0.1870  0.4232 -0.2070
12943TIP3    H260321   1.376   1.151  14.349 -0.8729 -0.7990 -0.4646
12944TIP3   OH260322   1.623   2.499  10.626  0.0380  0.4703 -0.0290
12944TIP3    H160323   1.623   2.495  10.722  1.1738  3.2729  0.1820
12944TIP3    H260324   1.653   2.587  10.606 -1.2457  0.3393 -2.9935
12945TIP3   OH260325   6.118   5.854  15.443  0.0045 -0.4017  0.1670
12945TIP3    H160326   6.193   5.898  15.485  1.4242 -1.4577 -1.1485
12945TIP3    H260327   6.050   5.921  15.441  1.2005  0.8971  0.6008
12946TIP3   OH260328   5.394   5.265  16.845  0.2303 -0.0274  0.0795
12946TIP3    H160329   5.414   5.227  16.931  0.7675  0.4820  0.1861
12946TIP3    H260330   5.386   5.190  16.787 -0.3503 -0.3954  0.6131
12947TIP3   OH260331   5.187   0.486   3.069 -0.4586  0.4578  0.0106
12947TIP3    H160332   5.253   0.417   3.061 -1.8190 -1.2765  2.6641
12947TIP3    H260333   5.202   0.525   3.155 -0.8138  2.3741 -0.7381
12948TIP3   OH260334   1.359   6.538  12.189  0.3240  0.0033 -0.0440
12948TIP3    H160335   1.301   6.491  12.130  0.7379 -0.5922  0.0141
12948TIP3    H260336   1.346   6.630  12.169 -2.4335  0.0662  1.5809
12949TIP3   OH260337   0.712   4.126  15.806  0.1762 -0.3367 -0.5153
12949TIP3    H160338   0.759   4.207  15.826  0.3597 -0.5983  0.1307
12949TIP3    H260339   0.625   4.138  15.844 -0.1671 -0.0085 -1.3765
12950TIP3   OH260340   2.685   0.309   2.940  0.1875 -0.6267 -0.3879
12950TIP3    H160341   2.766   0.258   2.943  0.1008 -0.8274 -1.0860
12950TIP3    H260342   2.616   0.243   2.932 -0.1329 -0.5004  1.0647
12951TIP3   OH260343   1.562   4.029  11.382 -0.2776 -0.3008 -0.4542
12951TIP3    H160344   1.585   4.009  11.291  1.3890  1.1283 -0.3989
12951TIP3    H260345   1.519   4.114  11.377  0.9930  0.4001  0.1989
12952TIP3   OH260346   5.614   6.217   1.839  0.2427 -0.1992  0.2078
12952TIP3    H160347   5.570   6.231   1.923 -0.0184 -0.2131  0.0737
12952TIP3    H260348   5.707   6.214   1.861  0.1010 -1.9259  0.7591
12953TIP3   OH260349   6.765   0.422   3.396 -0.1726  0.0828 -0.0608
12953TIP3    H160350   6.855   0.392   3.402 -0.5122 -2.1770 -3.5159
12953TIP3    H260351   6.772   0.516   3.379  1.5155 -0.0418 -0.1955
12954TIP3   OH260352   1.432   4.984  12.266 -0.2776  0.2145  0.0157
12954TIP3    H160353   1.423   5.068  12.310  1.7850 -0.7058  2.4072
12954TIP3    H260354   1.512   4.991  12.214 -0.8324  0.1430 -0.8743
12955TIP3   OH260355   1.717   5.266   5.818 -0.5823  0.9064 -0.7580
12955TIP3    H160356   1.720   5.242   5.910 -2.3869 -0.2589 -0.9510
12955TIP3    H260357   1.631   5.309   5.807 -1.1959 -0.5810 -2.2035
12956TIP3   OH260358   0.379   1.262   5.277 -0.3638 -0.0971  0.4357
12956TIP3    H160359   0.303   1.209   5.301  0.6250 -1.3624  0.8827
12956TIP3    H260360   0.356   1.351   5.307 -2.1260 -0.1925 -0.5109
12957TIP3   OH260361   4.123   0.190   5.501 -0.2287  0.1258  0.5775
12957TIP3    H160362   4.052   0.133   5.528 -0.6796  0.5763  0.3591
12957TIP3    H260363   4.173   0.137   5.438 -1.3133  0.3592 -0.5169
12958TIP3   OH260364   5.787   5.379  15.006 -0.6225  0.2375  0.3044
12958TIP3    H160365   5.760   5.422  15.087  0.9246 -0.6364  1.3477
12958TIP3    H260366   5.875   5.413  14.989  0.6802 -2.4072  1.1995
12959TIP3   OH260367   1.496   1.017   5.059 -0.5073  0.6671  0.3724
12959TIP3    H160368   1.455   0.986   5.140  3.6795 -0.4852  2.3606
12959TIP3    H260369   1.553   1.089   5.088  1.0361  0.2840 -1.5275
12960TIP3   OH260370   0.117   5.761  12.312 -0.5013  0.4089 -0.0014
12960TIP3    H160371   0.170   5.826  12.359  0.2995  0.4249 -0.9002
12960TIP3    H260372   0.179   5.715  12.256 -1.6512  1.8093 -2.6573
12961TIP3   OH260373   2.687   3.976   0.760 -0.9802  0.6284  0.1576
12961TIP3    H160374   2.687   3.985   0.664  1.1338 -1.5499 -0.1528
12961TIP3    H260375   2.596   3.962   0.783 -1.4198  0.0709 -1.7098
12962TIP3   OH260376   5.680   4.802  12.506 -0.0759  0.7783  0.2290
12962TIP3    H160377   5.736   4.834  12.577 -1.3524 -1.5204  2.4328
12962TIP3    H260378   5.637   4.724  12.542 -2.2908  0.6124 -2.4190
12963TIP3   OH260379   1.891   6.180   2.738 -0.4151  0.4490 -0.1835
12963TIP3    H160380   1.879   6.126   2.660  0.3663 -0.8929  0.5936
12963TIP3    H260381   1.922   6.119   2.805  0.1901  1.8075  0.8189
12964TIP3   OH260382   5.893   0.060  15.759 -0.5555 -0.2392  0.1094
12964TIP3    H160383   5.910   0.089  15.669 -2.6015 -0.1315 -0.2898
12964TIP3    H260384   5.808   0.016  15.754 -0.4666 -0.6932  1.9119
12965TIP3   OH260385   1.499   2.893  17.006 -0.0706  0.0637  0.1452
12965TIP3    H160386   1.545   2.822  17.051  2.3595  0.4144 -1.6076
12965TIP3    H260387   1.467   2.949  17.077 -0.6884 -1.9116  1.5230
12966TIP3   OH260388   2.655   1.785   1.568 -0.0655  0.0897 -0.1854
12966TIP3    H160389   2.582   1.816   1.621 -0.4408  2.9130 -2.1074
12966TIP3    H260390   2.618   1.771   1.481  0.9697 -2.2131 -0.3147
12967TIP3   OH260391   2.943   1.534  16.720 -0.6214 -0.5058  0.5631
12967TIP3    H160392   2.973   1.484  16.645 -1.8855 -0.8240  0.2570
12967TIP3    H260393   2.870   1.484  16.755  0.0689 -0.4670  2.1395
12968TIP3   OH260394   4.275   3.752  16.094 -0.2500 -0.0566 -0.1383
12968TIP3    H160395   4.186   3.722  16.114 -0.6108  1.5492  0.8466
12968TIP3    H260396   4.275   3.764  16.000 -1.6110  1.4147  0.0083
12969TIP3   OH260397   5.093   5.570  15.944  0.4144 -0.3144 -0.5950
12969TIP3    H160398   5.057   5.607  16.024 -0.5159 -0.4345 -0.9482
12969TIP3    H260399   5.049   5.485  15.934  1.9171 -1.1682 -0.2334
12970TIP3   OH260400   2.643   2.711  17.296 -0.2386 -0.7969 -0.4537
12970TIP3    H160401   2.601   2.790  17.264 -0.6046  0.4836  2.8365
12970TIP3    H260402   2.580   2.641  17.278 -1.0817  0.1000 -1.0549
12971TIP3   OH260403   6.672   1.618  16.209  0.8968 -0.0650  0.2439
12971TIP3    H160404   6.716   1.632  16.292  1.4160 -0.2420  0.0034
12971TIP3    H260405   6.632   1.702  16.188 -1.9094 -0.7569  2.1659
12972TIP3   OH260406   3.210   0.304  11.471 -0.2177 -0.2154  0.5919
12972TIP3    H160407   3.169   0.377  11.517  0.6341  0.6869 -0.0359
12972TIP3    H260408   3.303   0.328  11.466 -0.2349 -0.4230 -1.3018
12973TIP3   OH260409   0.446   4.310   2.555  0.6384  0.2095 -0.0185
12973TIP3    H160410   0.436   4.402   2.532  2.6330  0.6730  0.8476
12973TIP3    H260411   0.443   4.264   2.471 -2.8186  0.7020 -0.3430
12974TIP3   OH260412   6.583   2.400   0.889  0.5477 -0.0646 -0.4455
12974TIP3    H160413   6.651   2.459   0.856  1.4705 -1.6809 -1.5421
12974TIP3    H260414   6.526   2.457   0.941 -0.3281  2.4357 -3.8262
12975TIP3   OH260415   1.256   0.729  11.654  0.4100 -0.2105 -0.5327
12975TIP3    H160416   1.289   0.669  11.721 -1.7715 -1.2428 -0.2817
12975TIP3    H260417   1.229   0.807  11.703  0.4264 -0.2559 -0.4518
12976TIP3   OH260418   2.622   3.660   0.756 -0.0239  0.2170  0.1391
12976TIP3    H160419   2.694   3.597   0.751  0.6757  0.9865  0.2519
12976TIP3    H260420   2.646   3.718   0.828 -1.6833 -0.6131  1.4282
12977TIP3   OH260421   4.579   1.720   5.096 -0.5700  0.0604 -0.3818
12977TIP3    H160422   4.550   1.688   5.182  1.6889  0.1161  0.4754
12977TIP3    H260423   4.529   1.800   5.083 -1.0983 -0.0444  0.7990
12978TIP3   OH260424   0.344   6.224   2.601 -0.0041  0.0469 -0.1284
12978TIP3    H160425   0.403   6.154   2.573 -1.1590 -0.2182 -2.0611
12978TIP3    H260426   0.380   6.304   2.563 -0.1027  0.1082 -0.0950
12979TIP3   OH260427   1.517   2.610  13.159  0.2689  0.2889  0.5465
12979TIP3    H160428   1.480   2.699  13.161 -2.3029 -0.7324  2.2186
12979TIP3    H260429   1.551   2.601  13.069 -2.9189  1.6500 -0.9395
12980TIP3   OH260430   6.373   4.059  13.435 -0.1175 -0.1564  0.0038
12980TIP3    H160431   6.462   4.030  13.419  0.0809  0.4029  0.0602
12980TIP3    H260432   6.331   4.058  13.349 -0.0371 -0.3447 -0.0333
12981TIP3   OH260433   5.994   2.638  14.969 -0.7078 -0.5873 -0.0195
12981TIP3    H160434   5.951   2.707  14.917  0.8447 -0.5123 -1.2995
12981TIP3    H260435   6.060   2.603  14.910 -0.2315 -1.9239  1.2685
12982TIP3   OH260436   4.033   0.188   3.292 -0.5093  0.2886  0.2673
12982TIP3    H160437   4.042   0.099   3.258 -0.3992  0.3113  0.2350
12982TIP3    H260438   4.013   0.241   3.215 -2.4974  0.0093  0.5527
12983TIP3   OH260439   0.756   5.939  11.187 -0.0323 -0.3737 -0.3758
12983TIP3    H160440   0.695   5.866  11.179 -0.7575 -0.0432  1.7258
12983TIP3    H260441   0.821   5.909  11.251 -1.0889  1.2300  1.5600
12984TIP3   OH260442   0.209   0.407  12.276  0.0183 -0.5303 -0.0744
12984TIP3    H160443   0.223   0.502  12.275  0.4098 -0.5792  0.3312
12984TIP3    H260444   0.277   0.374  12.335 -1.4404 -0.8493  1.5169
12985TIP3   OH260445   3.301   4.771   2.482  0.4783 -0.5015 -0.0876
12985TIP3    H160446   3.370   4.733   2.537 -0.5753 -1.9524  0.2763
12985TIP3    H260447   3.302   4.719   2.402  0.1025 -0.2426 -0.2630
12986TIP3   OH260448   4.879   6.440  17.050  0.5483  0.0824  0.4822
12986TIP3    H160449   4.923   6.437  16.965  0.9838 -3.0512  0.7007
12986TIP3    H260450   4.786   6.431  17.029  0.4361  1.4640  0.2858
12987TIP3   OH260451   6.240   0.540  12.099  0.1840  0.2877 -0.4257
12987TIP3    H160452   6.321   0.589  12.087 -0.4503  1.5624  0.2956
12987TIP3    H260453   6.181   0.601  12.143 -0.8909 -0.8894 -0.1606
12988TIP3   OH260454   6.514   4.694  11.305  0.4796 -0.1059  0.4851
12988TIP3    H160455   6.419   4.696  11.310  0.4385 -0.0504 -0.3247
12988TIP3    H260456   6.543   4.754  11.374 -0.0366 -0.8716  1.4014
12989TIP3   OH260457   1.487   2.823   3.659  0.1491 -0.2481 -0.5570
12989TIP3    H160458   1.418   2.768   3.622  1.2331 -1.6960 -0.5157
12989TIP3    H260459   1.562   2.810   3.602  0.7453  0.4114  0.0423
12990TIP3   OH260460   6.119   1.181   5.541 -0.0071  0.4421 -0.3355
12990TIP3    H160461   6.139   1.101   5.589 -2.5033 -0.7373 -1.1001
12990TIP3    H260462   6.093   1.244   5.608 -0.0497 -0.0751  0.1359
12991TIP3   OH260463   6.337   2.727  10.291  0.2664 -0.4131  0.6847
12991TIP3    H160464   6.323   2.633  10.281 -2.1586  0.0760 -1.3825
12991TIP3    H260465   6.262   2.768  10.247  1.5729  2.5159  0.9413
12992TIP3   OH260466   3.943   5.789  15.430 -0.0503  0.2096  0.2290
12992TIP3    H160467   3.848   5.796  15.420  0.0871  0.0435 -1.3956
12992TIP3    H260468   3.979   5.846  15.362  1.0287  0.1124  0.6934
12993TIP3   OH260469   0.342   2.203   3.833 -0.4409  0.6204 -0.0975
12993TIP3    H160470   0.354   2.109   3.817  0.0296  0.2639  2.0286
12993TIP3    H260471   0.339   2.242   3.746  0.1908 -1.2682 -1.0209
12994TIP3   OH260472   5.757   2.633   0.251 -0.2707 -0.0200  0.3534
12994TIP3    H160473   5.738   2.628   0.345  0.7563  0.5455  0.6103
12994TIP3    H260474   5.698   2.569   0.211  0.5327 -1.5865  1.5690
12995TIP3   OH260475   3.222   4.662   0.827 -0.0287 -0.0900  0.2094
12995TIP3    H160476   3.149   4.613   0.790  2.1001 -3.2486 -0.2370
12995TIP3    H260477   3.211   4.652   0.922 -1.1522  1.1453  0.2416
12996TIP3   OH260478   2.571   2.602   2.016  0.0904 -0.4591 -0.8911
12996TIP3    H160479   2.564   2.510   2.043  2.9584 -1.1309 -2.0068
12996TIP3    H260480   2.629   2.641   2.081  0.8426 -0.1024 -1.7499
12997TIP3   OH260481   5.983   0.086  13.904  0.2212 -1.0100  0.3959
12997TIP3    H160482   6.043   0.033  13.957  1.9590  0.1176 -0.3680
12997TIP3    H260483   5.987   0.173  13.942 -0.7759 -0.8606  0.1832
12998TIP3   OH260484   4.245   3.429   1.938 -0.1090  0.5866  0.8430
12998TIP3    H160485   4.187   3.433   2.014  0.9422 -0.0204  1.6911
12998TIP3    H260486   4.333   3.440   1.973  0.2871  2.2131 -0.4989
12999TIP3   OH260487   5.722   1.344  16.140 -0.5058 -0.2641  0.3912
12999TIP3    H160488   5.647   1.344  16.081 -0.7425  0.2194  0.6791
12999TIP3    H260489   5.793   1.306  16.089 -0.6833  0.2260 -0.2350
13000TIP3   OH260490   3.597   4.748   5.672  0.7181  0.2203 -0.1331
13000TIP3    H160491   3.672   4.739   5.731  0.3726  1.5226  0.5539
13000TIP3    H260492   3.629   4.802   5.600  1.3164 -1.8725 -1.5336
13001TIP3   OH260493   3.452   5.202   1.674 -0.1380  0.2895 -0.4638
13001TIP3    H160494   3.437   5.167   1.586  1.5262  0.1449 -0.7339
13001TIP3    H260495   3.391   5.275   1.682 -0.6604  0.0010 -1.5432
13002TIP3   OH260496   4.770   2.861   1.570  0.5250 -0.3540 -0.2100
13002TIP3    H160497   4.838   2.894   1.512  0.6467 -0.4097 -0.0997
13002TIP3    H260498   4.691   2.909   1.545  0.1351 -1.6550 -1.6621
13003TIP3   OH260499   1.746   3.136  13.184 -0.0717  0.4747 -0.1096
13003TIP3    H160500   1.802   3.203  13.145  0.6132  0.0915  0.1980
13003TIP3    H260501   1.657   3.161  13.157  0.1498  1.5833  0.1098
13004TIP3   OH260502   5.422   3.486   0.944  0.4310 -0.5195  0.1081
13004TIP3    H160503   5.343   3.541   0.937 -0.8691 -2.3535 -0.3889
13004TIP3    H260504   5.389   3.401   0.973  1.9808 -1.9213 -1.9671
13005TIP3   OH260505   1.247   0.165   2.105  0.1661  0.0588  0.2931
13005TIP3    H160506   1.197   0.096   2.061  1.2250 -0.4882 -0.0782
13005TIP3    H260507   1.201   0.179   2.187 -0.9676  0.0230 -0.3138
13006TIP3   OH260508   2.839   0.581   5.644 -0.4483 -0.5626  1.0177
13006TIP3    H160509   2.777   0.646   5.611  0.9661 -0.5249 -1.9302
13006TIP3    H260510   2.861   0.612   5.732 -1.6635  1.5682  0.6557
13007TIP3   OH260511   3.421   4.676   3.664  0.2939 -0.2691  0.0802
13007TIP3    H160512   3.395   4.709   3.578 -0.4436 -0.0834  0.3666
13007TIP3    H260513   3.393   4.744   3.726 -0.7947 -1.1687  0.6304
13008TIP3   OH260514   3.826   0.795  14.860  0.2200 -0.4137  0.1005
13008TIP3    H160515   3.883   0.743  14.917  2.0522  1.2053 -0.1547
13008TIP3    H260516   3.779   0.853  14.920  1.6811  0.8528  0.0689
13009TIP3   OH260517   4.146   6.814  16.797 -0.3803 -0.6347 -0.4175
13009TIP3    H160518   4.077   6.880  16.788 -0.2291 -0.4096  0.0361
13009TIP3    H260519   4.227   6.862  16.781 -0.3396 -0.9477 -1.1772
13010TIP3   OH260520   0.790   2.585  11.481  0.0479  0.1396 -0.2990
13010TIP3    H160521   0.799   2.531  11.559  1.4704  3.6387  2.1937
13010TIP3    H260522   0.840   2.538  11.414 -0.8229 -2.7315  0.9138
13011TIP3   OH260523   5.765   1.126  11.274  0.3281  0.4112 -0.2317
13011TIP3    H160524   5.804   1.101  11.359  0.5458 -0.2184 -0.5101
13011TIP3    H260525   5.822   1.084  11.209  0.0089  0.6767 -0.6817
13012TIP3   OH260526   5.859   4.223   5.146 -0.6888 -0.2129  0.3655
13012TIP3    H160527   5.851   4.135   5.182  4.3778 -0.4200  1.6342
13012TIP3    H260528   5.918   4.213   5.071  0.1193  2.1241  0.6290
13013TIP3   OH260529   3.640   6.212   6.746  0.1337 -0.2273  0.0644
13013TIP3    H160530   3.612   6.235   6.657 -0.1972 -2.6027 -0.5212
13013TIP3    H260531   3.648   6.296   6.791 -3.8578  0.9032 -0.9303
13014TIP3   OH260532   1.805   1.447   5.751 -0.2018 -0.0529  0.3661
13014TIP3    H160533   1.876   1.406   5.702  0.4727  1.4630  0.0099
13014TIP3    H260534   1.733   1.452   5.689  0.3547  1.0304 -0.2277
13015TIP3   OH260535   5.116   6.727  16.607  0.2500 -0.0305 -0.2399
13015TIP3    H160536   5.162   6.795  16.558  0.3471  0.8896  1.0870
13015TIP3    H260537   5.118   6.757  16.698 -0.8933 -1.1561  0.1830
13016TIP3   OH260538   5.964   3.554   5.416  0.1532  0.1519  0.1793
13016TIP3    H160539   5.918   3.491   5.472 -0.6045  0.3182 -0.2482
13016TIP3    H260540   6.055   3.552   5.447 -0.3487  0.6272  1.7750
13017TIP3   OH260541   2.513   2.059  13.648 -1.3250 -0.2220  0.1094
13017TIP3    H160542   2.425   2.039  13.680 -1.4420  0.6730  0.3626
13017TIP3    H260543   2.563   2.079  13.727 -1.2344  0.5560 -0.1404
13018TIP3   OH260544   0.165   2.642  13.045 -0.3590 -0.1943  0.6245
13018TIP3    H160545   0.111   2.590  13.104 -0.1765  1.9995  2.8785
13018TIP3    H260546   0.102   2.696  12.996 -0.3898 -0.2283  0.6262
13019TIP3   OH260547   3.799   5.879   1.849  0.0413  0.3931  0.3082
13019TIP3    H160548   3.844   5.894   1.766  0.3976  1.1973  0.6355
13019TIP3    H260549   3.808   5.785   1.864  2.3649  0.6309  0.7761
13020TIP3   OH260550   2.009   3.815  16.033 -0.4087  0.0398  0.1284
13020TIP3    H160551   2.029   3.722  16.050  1.6019  0.0787 -1.6231
13020TIP3    H260552   2.014   3.856  16.119  2.0225 -0.9517  0.5541
13021TIP3   OH260553   3.389   5.607   5.369 -0.0533  0.0322  0.4824
13021TIP3    H160554   3.324   5.677   5.380 -1.3143 -1.2103  1.3577
13021TIP3    H260555   3.418   5.615   5.279 -1.5671  0.5302  0.0060
13022TIP3   OH260556   2.948   4.546   5.236  0.3493  0.5740 -0.1624
13022TIP3    H160557   2.967   4.622   5.181 -1.0876  1.4493  0.4985
13022TIP3    H260558   2.860   4.519   5.210 -0.7358  1.5363  2.2375
13023TIP3   OH260559   6.109   6.197  14.064 -0.3478  0.7057 -0.0136
13023TIP3    H160560   6.104   6.110  14.024 -1.3806  0.0430  1.4618
13023TIP3    H260561   6.082   6.256  13.995 -0.0816 -0.1904 -0.9118
13024TIP3   OH260562   6.001   4.625   1.242 -0.2447  0.0598 -0.2808
13024TIP3    H160563   5.960   4.574   1.311 -0.5485  0.1340 -0.4081
13024TIP3    H260564   5.983   4.716   1.264 -0.6969  0.0723 -0.6735
13025TIP3   OH260565   6.113   2.108  14.486 -0.1798  0.6603 -0.2391
13025TIP3    H160566   6.083   2.198  14.474  0.7909  1.1284  0.7304
13025TIP3    H260567   6.038   2.062  14.525 -0.5764  1.1092 -0.4644
13026TIP3   OH260568   1.944   6.445   1.521  0.2962 -0.1422  0.2427
13026TIP3    H160569   1.908   6.389   1.452  1.9014  1.3614 -1.9789
13026TIP3    H260570   1.900   6.529   1.509  0.5671  0.1258  1.0851
13027TIP3   OH260571   4.551   6.482  10.940  0.0417 -0.2269  0.2357
13027TIP3    H160572   4.630   6.439  10.907  0.3467  0.9404 -0.5907
13027TIP3    H260573   4.547   6.456  11.032  1.3844 -0.3017  0.2925
13028TIP3   OH260574   1.983   4.699  16.431  0.6038  0.2389  0.3078
13028TIP3    H160575   1.948   4.610  16.429  1.1060  0.0216  1.0209
13028TIP3    H260576   2.025   4.710  16.345  0.9655 -0.3849  0.4025
13029TIP3   OH260577   1.335   5.554   1.264 -0.1425 -0.2841  0.0716
13029TIP3    H160578   1.380   5.547   1.179 -0.5922 -0.1598 -0.1788
13029TIP3    H260579   1.243   5.565   1.241 -0.1750  0.4993  0.5698
13030TIP3   OH260580   0.266   2.394  15.388 -0.2321  0.0157  0.4648
13030TIP3    H160581   0.258   2.300  15.406  0.3466 -0.0538  0.3803
13030TIP3    H260582   0.214   2.409  15.310  0.8173 -0.5057 -0.3561
13031TIP3   OH260583   0.011   5.729   5.878  0.5304 -0.0852  0.0881
13031TIP3    H160584   0.087   5.678   5.906 -0.5215 -0.2301  2.9716
13031TIP3    H260585   0.028   5.817   5.910  0.1277  0.2344 -0.5637
13032TIP3   OH260586   0.668   2.465   1.813 -0.6380  0.6991  0.1978
13032TIP3    H160587   0.727   2.533   1.845  0.1808  0.5210 -0.8566
13032TIP3    H260588   0.638   2.420   1.892  0.1139  1.2214  0.8006
13033TIP3   OH260589   6.718   3.340  14.849 -0.1307  0.5577  0.4330
13033TIP3    H160590   6.758   3.295  14.774  0.4998 -0.0368  1.1058
13033TIP3    H260591   6.712   3.272  14.917 -1.4316  0.8810  0.6647
13034TIP3   OH260592   2.149   1.751   5.370 -0.0617  0.1613 -0.1731
13034TIP3    H160593   2.117   1.753   5.280 -0.1855 -1.0401 -0.1806
13034TIP3    H260594   2.126   1.663   5.401 -1.0511  0.9288  1.4080
13035TIP3   OH260595   3.749   1.713  15.979  0.1151  0.0021 -0.4734
13035TIP3    H160596   3.753   1.618  15.981 -0.0798  0.0016  0.2653
13035TIP3    H260597   3.792   1.741  16.060  1.0046  0.5807 -1.1235
13036TIP3   OH260598   6.602   2.862   0.762 -0.0648 -0.8915  0.0792
13036TIP3    H160599   6.694   2.880   0.741 -0.6487  3.1183  0.3341
13036TIP3    H260600   6.603   2.838   0.855  0.5317  2.4693  1.0602
13037TIP3   OH260601   3.867   2.168   5.451 -0.0345 -0.2128  0.1648
13037TIP3    H160602   3.793   2.220   5.417  0.0696 -0.1749 -0.0040
13037TIP3    H260603   3.913   2.138   5.373 -1.0973 -2.0410  0.2026
13038TIP3   OH260604   1.618   3.887  11.750 -0.2996  0.0264  0.1886
13038TIP3    H160605   1.668   3.821  11.703 -1.9012 -0.8353 -0.4048
13038TIP3    H260606   1.627   3.967  11.697  0.8271  0.0387  0.3737
13039TIP3   OH260607   4.533   5.824  13.960 -0.1496 -0.5208 -0.4640
13039TIP3    H160608   4.544   5.812  13.866 -1.8307  0.9003 -0.9094
13039TIP3    H260609   4.599   5.890  13.983  0.6196 -1.2582 -0.5263
13040TIP3   OH260610   4.472   4.051  15.934  0.3390  0.4075  0.1055
13040TIP3    H160611   4.440   3.962  15.917 -1.6193  1.1152 -0.2322
13040TIP3    H260612   4.495   4.052  16.027 -0.1190 -0.3139  0.2316
13041TIP3   OH260613   0.132   6.777   2.977 -0.4439  0.2807  0.4224
13041TIP3    H160614   0.151   6.855   2.925  1.8233  0.5947  1.5832
13041TIP3    H260615   0.185   6.787   3.056  0.4407 -2.6900  0.3590
13042TIP3   OH260616   6.615   1.387  10.618 -0.3640 -0.5271 -0.0899
13042TIP3    H160617   6.642   1.343  10.699 -0.7888 -0.4562  0.0934
13042TIP3    H260618   6.622   1.319  10.551  2.1649 -0.0216 -0.4510
13043TIP3   OH260619   4.930   6.297   5.417 -0.6659  0.2880  0.0495
13043TIP3    H160620   4.907   6.385   5.388 -0.4110  0.8760  1.5362
13043TIP3    H260621   5.023   6.303   5.441 -0.5767 -0.4569 -0.0762
13044TIP3   OH260622   3.352   0.581   4.443  0.3584 -0.1012 -0.1510
13044TIP3    H160623   3.350   0.653   4.380 -2.7079  0.7693  0.7590
13044TIP3    H260624   3.353   0.624   4.529 -0.7354 -1.1061  0.3991
13045TIP3   OH260625   4.689   3.243   3.231 -0.1291  0.1811  0.1148
13045TIP3    H160626   4.716   3.331   3.257 -0.7173  0.5613 -0.5410
13045TIP3    H260627   4.641   3.210   3.307  0.2278  0.3522  0.4246
13046TIP3   OH260628   3.002   0.021   2.025  0.5287  0.1143  0.1586
13046TIP3    H160629   3.093   0.052   2.025  0.4826  0.2645 -0.4988
13046TIP3    H260630   3.006  -0.063   1.979  0.7615 -1.2341  2.4714
13047TIP3   OH260631   0.205   1.299  11.815 -0.2328 -0.2316  0.2963
13047TIP3    H160632   0.296   1.310  11.789 -0.1326 -2.1230 -0.3047
13047TIP3    H260633   0.155   1.314  11.735 -0.2287 -1.7753 -0.0304
13048TIP3   OH260634   4.566   6.307  15.150 -0.1524 -0.0256  0.3615
13048TIP3    H160635   4.658   6.289  15.171  1.1253  3.0482 -2.0154
13048TIP3    H260636   4.552   6.265  15.065 -1.0680 -0.6217  0.7868
13049TIP3   OH260637   0.616   1.457   2.329 -0.0297 -0.4414 -0.4997
13049TIP3    H160638   0.660   1.394   2.270 -0.9810 -0.2326 -1.4634
13049TIP3    H260639   0.547   1.495   2.275  2.1280  3.4678 -0.9117
13050TIP3   OH260640   4.999   1.514  14.612  0.1581  0.1403 -0.0733
13050TIP3    H160641   4.982   1.433  14.564 -0.7662 -0.1826  0.7588
13050TIP3    H260642   5.094   1.526  14.606  0.1895 -0.4994 -0.9856
13051TIP3   OH260643   6.146   3.110   2.467 -0.6305  0.4236 -0.3584
13051TIP3    H160644   6.215   3.051   2.439  0.1022  1.0927 -0.0129
13051TIP3    H260645   6.135   3.171   2.394 -0.0115  1.0445  0.0590
13052TIP3   OH260646   4.188   2.908  11.624  0.1775  0.6966  1.0491
13052TIP3    H160647   4.238   2.935  11.547  0.8560 -0.3619  1.0932
13052TIP3    H260648   4.254   2.900  11.693 -0.2963  0.7949  1.5222
13053TIP3   OH260649   6.197   1.390  15.751  0.0875  0.1541  0.5766
13053TIP3    H160650   6.180   1.459  15.816 -0.6869  0.5398 -0.0202
13053TIP3    H260651   6.117   1.337  15.753  0.4553 -0.3989  0.6264
13054TIP3   OH260652   3.148   2.800   3.275  0.3818  0.0032 -0.0535
13054TIP3    H160653   3.072   2.816   3.218 -1.0206 -0.9740  1.4729
13054TIP3    H260654   3.134   2.712   3.310  1.9348  0.0397  0.7455
13055TIP3   OH260655   4.462   1.598   1.598 -0.0189  0.3054  0.5140
13055TIP3    H160656   4.555   1.582   1.579  0.0891  1.4025  0.0169
13055TIP3    H260657   4.433   1.520   1.646  1.5696  0.6412  2.1220
13056TIP3   OH260658   0.666   4.937   3.699  0.0475  0.2595  0.2072
13056TIP3    H160659   0.605   4.947   3.625  0.9389  0.2154 -0.5453
13056TIP3    H260660   0.663   4.844   3.720 -1.4969  0.5163  1.3813
13057TIP3   OH260661   1.508   1.072  12.953  0.1219  0.2945  0.2337
13057TIP3    H160662   1.543   0.983  12.949 -1.5719 -0.4689  1.1837
13057TIP3    H260663   1.420   1.061  12.989 -0.5652  2.2448 -0.7070
13058TIP3   OH260664   0.847   0.604  13.270 -0.4710  0.6995  0.4277
13058TIP3    H160665   0.828   0.681  13.217 -0.8916  0.9595  0.9400
13058TIP3    H260666   0.909   0.635  13.336 -1.0917  0.7580  0.9988
13059TIP3   OH260667   2.218   4.040   5.423 -0.5753  0.6283 -0.0836
13059TIP3    H160668   2.257   3.990   5.495 -0.3545  1.4603  0.3942
13059TIP3    H260669   2.286   4.041   5.355 -0.1876  1.0902  0.2923
13060TIP3   OH260670   6.241   4.351  17.313  0.1106 -0.6630 -0.1909
13060TIP3    H160671   6.229   4.256  17.314 -0.9367 -0.5295  0.7520
13060TIP3    H260672   6.330   4.363  17.348 -0.6887 -1.1984  2.2352
13061TIP3   OH260673   3.855   0.892  11.065 -0.0249 -0.6508 -0.0776
13061TIP3    H160674   3.936   0.942  11.066 -0.1834 -0.3650 -0.8252
13061TIP3    H260675   3.786   0.957  11.052 -0.3880 -0.8811  0.6237
13062TIP3   OH260676   1.021   0.974   2.279 -0.6807 -0.0589 -0.0896
13062TIP3    H160677   1.067   0.898   2.315 -0.4559  0.4475  0.7283
13062TIP3    H260678   1.066   1.049   2.317 -0.6188  0.5020 -1.2371
13063TIP3   OH260679   3.745   5.289  15.869  0.0926  0.1390 -0.1732
13063TIP3    H160680   3.786   5.202  15.866  0.6719  0.4234 -2.0343
13063TIP3    H260681   3.780   5.330  15.948  1.5676 -0.5150 -0.4450
13064TIP3   OH260682   5.432   5.992  14.226 -0.2117 -0.3116  0.0261
13064TIP3    H160683   5.363   5.934  14.195  0.7831 -0.7959 -1.3956
13064TIP3    H260684   5.392   6.079  14.230 -1.1065 -0.7198  0.0078
13065TIP3   OH260685   3.506   5.525  13.124 -0.4410  0.4056  0.1382
13065TIP3    H160686   3.546   5.480  13.198 -1.6147 -0.2337  0.4144
13065TIP3    H260687   3.436   5.466  13.095  1.1965 -0.3087 -2.7625
13066TIP3   OH260688   3.390   0.560  13.984 -0.1606 -0.7889  0.2689
13066TIP3    H160689   3.357   0.577  13.896  0.0268  1.4698  0.5820
13066TIP3    H260690   3.436   0.640  14.009  0.4533 -1.6571  2.1434
13067TIP3   OH260691   4.675   1.181  11.924 -0.4697  0.4806 -0.0736
13067TIP3    H160692   4.653   1.178  12.017 -0.5334 -0.3729 -0.1105
13067TIP3    H260693   4.595   1.212  11.881 -1.6180 -2.3441 -0.1830
13068TIP3   OH260694   3.897   5.366   0.658 -0.0502  0.0197  0.2318
13068TIP3    H160695   3.879   5.318   0.577 -0.6173  0.3705  0.1428
13068TIP3    H260696   3.823   5.427   0.666  1.4220  2.0089 -0.5017
13069TIP3   OH260697   5.782   3.146  12.472  0.1632 -0.6326  0.6329
13069TIP3    H160698   5.840   3.131  12.398 -0.3001  0.2593  0.0732
13069TIP3    H260699   5.839   3.144  12.548  1.1306  1.3113  0.0138
13070TIP3   OH260700   2.034   0.312  11.278  0.1798  0.0041 -0.1723
13070TIP3    H160701   2.005   0.403  11.282 -2.4709 -0.7693 -0.1208
13070TIP3    H260702   1.977   0.271  11.213  1.7374 -1.5104 -0.6788
13071TIP3   OH260703   0.638   1.456   3.597 -0.3476  1.2797  0.2480
13071TIP3    H160704   0.660   1.391   3.531  1.4113  0.7122  1.3165
13071TIP3    H260705   0.578   1.411   3.657 -1.4258  1.5911 -0.5718
13072TIP3   OH260706   5.526   5.470  15.246 -0.6437  0.0046 -0.8580
13072TIP3    H160707   5.468   5.541  15.275 -0.7140  0.0353 -1.0718
13072TIP3    H260708   5.610   5.513  15.231 -1.0941  0.3478 -2.5301
13073TIP3   OH260709   4.985   2.514  17.236  0.2827  0.1474  0.3150
13073TIP3    H160710   4.905   2.472  17.205  0.4491  0.3845 -0.4630
13073TIP3    H260711   4.994   2.593  17.182 -0.0973  1.2739  1.8553
13074TIP3   OH260712   6.218   4.887  11.497  0.1874  0.1002 -0.3137
13074TIP3    H160713   6.217   4.929  11.584 -2.0434 -1.7219  0.6451
13074TIP3    H260714   6.258   4.802  11.512 -0.4912 -0.3474 -0.9780
13075TIP3   OH260715   5.538   1.456   2.649 -0.2375  0.6161  0.1540
13075TIP3    H160716   5.518   1.444   2.556 -0.9844  1.0839  0.2464
13075TIP3    H260717   5.564   1.369   2.679 -1.3380  0.1463 -0.1873
13076TIP3   OH260718   1.754   2.751  11.139  0.4908 -0.4050 -0.3080
13076TIP3    H160719   1.717   2.663  11.127  0.5239 -0.3007 -1.2429
13076TIP3    H260720   1.771   2.782  11.050 -1.0966  1.2332 -0.0880
13077TIP3   OH260721   2.024   2.753  15.303 -0.0785 -0.0397  0.2397
13077TIP3    H160722   1.992   2.842  15.290  0.3237  0.1091  0.2631
13077TIP3    H260723   1.952   2.707  15.345  0.0225  0.5023  1.0210
13078TIP3   OH260724   0.897   1.800  16.283 -0.2057 -0.0448 -0.2917
13078TIP3    H160725   0.985   1.771  16.305 -1.3705 -3.2825  0.6580
13078TIP3    H260726   0.908   1.891  16.256  3.4335 -0.4071 -0.5321
13079TIP3   OH260727   5.198   4.666  12.643  0.4551  0.0933 -0.1440
13079TIP3    H160728   5.131   4.675  12.576  0.1026  2.1253  0.4269
13079TIP3    H260729   5.249   4.590  12.615 -1.5015 -0.9632 -1.0698
13080TIP3   OH260730   2.098   2.701  13.632  0.4555  0.1218 -0.3437
13080TIP3    H160731   2.168   2.636  13.642 -1.2747 -1.7942  0.2036
13080TIP3    H260732   2.026   2.666  13.685 -1.5840  0.9658 -2.3982
13081TIP3   OH260733   4.371   5.461  17.050 -0.5220  0.1328  0.4936
13081TIP3    H160734   4.418   5.538  17.083  0.6646 -0.9082  1.3483
13081TIP3    H260735   4.406   5.388  17.102 -1.6514 -0.9786 -0.2580
13082TIP3   OH260736   5.984   6.697   1.552 -0.0685  0.0464  0.0956
13082TIP3    H160737   5.924   6.690   1.478 -1.2660  0.6724  0.9678
13082TIP3    H260738   5.998   6.791   1.564  2.9304 -0.1028 -1.4689
13083TIP3   OH260739   1.717   6.412  15.166  0.1652  0.7796  0.4556
13083TIP3    H160740   1.708   6.507  15.169  0.1288  0.8100 -0.4546
13083TIP3    H260741   1.786   6.396  15.102  0.4745  0.2059  0.9201
13084TIP3   OH260742   6.317   3.793  12.808 -0.1567 -0.2034  0.0037
13084TIP3    H160743   6.306   3.705  12.844 -0.9738  0.2117  0.7973
13084TIP3    H260744   6.363   3.842  12.876  1.8550 -0.4262 -1.0992
13085TIP3   OH260745   3.361   2.683   4.869  0.2405 -0.8937 -0.7312
13085TIP3    H160746   3.434   2.624   4.851  2.2760  1.0810  0.5339
13085TIP3    H260747   3.391   2.737   4.942 -1.9915  0.8623 -1.0060
13086TIP3   OH260748   0.938   5.189   1.068 -0.5995 -0.1508 -0.3805
13086TIP3    H160749   1.023   5.218   1.100 -0.3884 -0.5712 -0.5484
13086TIP3    H260750   0.930   5.098   1.099 -0.6396 -0.3740 -1.0350
13087TIP3   OH260751   4.532   0.918  14.220  0.0353 -0.3608 -0.2308
13087TIP3    H160752   4.588   0.944  14.293  1.9423 -0.1204 -1.6847
13087TIP3    H260753   4.467   0.860  14.259  0.6922  0.1337  1.7185
13088TIP3   OH260754   3.083   0.472  12.894  0.3116  0.5539  0.4172
13088TIP3    H160755   3.065   0.519  12.813 -0.9861  1.7371  1.3500
13088TIP3    H260756   3.174   0.443  12.886  0.1823  0.5959 -1.4623
13089TIP3   OH260757   0.761   3.337   4.212  0.6167 -0.4839 -0.2096
13089TIP3    H160758   0.699   3.288   4.157 -0.2300  0.3552 -0.0382
13089TIP3    H260759   0.787   3.276   4.280  1.2509 -1.3695 -1.2106
13090TIP3   OH260760   6.791   5.085   0.689  0.1231 -0.4147  0.2823
13090TIP3    H160761   6.733   5.051   0.621  0.0471  0.7358 -0.2614
13090TIP3    H260762   6.748   5.062   0.771 -1.2717  0.6473 -0.1119
13091TIP3   OH260763   3.633   3.501  14.827 -0.0406 -0.5959  0.6362
13091TIP3    H160764   3.553   3.494  14.774  1.3498 -0.1223 -1.6420
13091TIP3    H260765   3.643   3.414  14.867 -0.0685 -1.6819 -1.5736
13092TIP3   OH260766   0.201   2.890  16.579  0.3551 -0.3741  0.3009
13092TIP3    H160767   0.294   2.882  16.600 -0.0067 -0.2328  2.1084
13092TIP3    H260768   0.175   2.803  16.549  0.9670 -0.5141  0.1699
13093TIP3   OH260769   4.115   6.718   5.801  0.3343 -0.4195  0.2195
13093TIP3    H160770   4.146   6.749   5.886  0.5214  1.2765 -0.4280
13093TIP3    H260771   4.035   6.768   5.785  0.0907 -0.9977 -0.4413
13094TIP3   OH260772   2.307   5.296  14.260  0.1346 -0.1425 -0.5604
13094TIP3    H160773   2.392   5.284  14.217  0.5115 -0.9648  0.3794
13094TIP3    H260774   2.321   5.267  14.350 -0.4077  2.3634  0.4080
13095TIP3   OH260775   0.337   1.023  11.293  0.7744 -0.0881  0.9907
13095TIP3    H160776   0.355   1.086  11.222 -1.0584 -0.1663  0.4144
13095TIP3    H260777   0.413   0.965  11.293  1.3003  0.5650 -0.2090
13096TIP3   OH260778   0.635   4.320  14.426 -0.4181  0.3921  0.0691
13096TIP3    H160779   0.656   4.228  14.442  0.1107  0.6175  0.7017
13096TIP3    H260780   0.671   4.366  14.501 -2.8992  0.8402  1.1002
13097TIP3   OH260781   4.327   1.498  10.811 -0.2046 -0.0176 -0.1262
13097TIP3    H160782   4.311   1.573  10.868  0.3812  0.4050 -0.5128
13097TIP3    H260783   4.362   1.535  10.731 -0.0071 -0.6983 -0.3641
13098TIP3   OH260784   6.252   2.415  15.835  0.1593 -0.3276 -0.1080
13098TIP3    H160785   6.182   2.444  15.776  0.1664 -0.7742 -0.3451
13098TIP3    H260786   6.280   2.494  15.880 -0.3414 -0.1012 -0.1807
13099TIP3   OH260787   3.010   5.340  15.312  0.4241 -0.8104 -0.0104
13099TIP3    H160788   2.982   5.249  15.307  2.7384 -1.5318 -2.9033
13099TIP3    H260789   2.996   5.374  15.224  2.9420  0.4581 -0.0249
13100TIP3   OH260790   3.584   4.175  11.589  0.9737  0.1205 -0.7186
13100TIP3    H160791   3.676   4.151  11.605  0.6981 -1.3922 -1.2354
13100TIP3    H260792   3.584   4.206  11.498  1.0109  0.3972 -0.6263
13101TIP3   OH260793   0.766   2.402  11.679  0.4805  0.2313 -0.2072
13101TIP3    H160794   0.776   2.394  11.774  2.7943  0.6754 -0.3538
13101TIP3    H260795   0.807   2.322  11.644  1.2144  0.8752 -0.8589
13102TIP3   OH260796   0.835   2.625   1.966 -0.2527 -0.1453 -0.2193
13102TIP3    H160797   0.905   2.560   1.969 -0.7027 -0.7426 -1.6755
13102TIP3    H260798   0.860   2.691   2.030  1.5715 -0.4097 -0.6185
13103TIP3   OH260799   5.705   2.760  17.276  0.0648  0.3546  0.0213
13103TIP3    H160800   5.683   2.790  17.188 -0.3345  1.0507  0.3551
13103TIP3    H260801   5.656   2.678  17.286  0.2391  0.1900 -0.4609
13104TIP3   OH260802   4.098   3.514  15.231 -0.3609  0.4367 -0.2431
13104TIP3    H160803   4.035   3.502  15.160  0.4091 -0.7627 -0.7549
13104TIP3    H260804   4.091   3.434  15.283  3.0924 -1.4212 -2.2629
13105TIP3   OH260805   3.493   6.386  11.158  0.0229  0.0953  0.5006
13105TIP3    H160806   3.408   6.354  11.129 -0.2477  0.1622  1.1949
13105TIP3    H260807   3.489   6.481  11.143  0.4395 -0.0465 -0.5980
13106TIP3   OH260808   0.363   2.492   2.234  0.0219 -0.2080 -0.3603
13106TIP3    H160809   0.369   2.520   2.142  1.3209  0.9103  0.0232
13106TIP3    H260810   0.334   2.569   2.281 -1.2669 -0.9563  0.1237
13107TIP3   OH260811   4.910   3.003  12.100  0.1417 -0.6191 -0.4105
13107TIP3    H160812   4.890   3.009  12.007 -0.4992  0.2210 -0.2323
13107TIP3    H260813   4.918   2.909  12.117  2.0173 -0.7341 -1.6562
13108TIP3   OH260814   6.372   2.027   2.192 -0.5669  0.3262 -0.0022
13108TIP3    H160815   6.451   2.046   2.242 -1.0842  0.9554  0.5896
13108TIP3    H260816   6.356   1.933   2.206  0.3958  0.0517 -0.6159
13109TIP3   OH260817   5.914   0.594   1.776  0.3250 -0.5488 -0.9663
13109TIP3    H160818   5.967   0.673   1.765 -0.8153  0.1367 -1.6524
13109TIP3    H260819   5.827   0.625   1.798 -0.0605 -1.6362 -0.8633
13110TIP3   OH260820   3.537   3.368   5.581  0.2037 -0.4469 -0.4608
13110TIP3    H160821   3.572   3.339   5.666  0.9221  0.7519 -0.3148
13110TIP3    H260822   3.520   3.461   5.594  0.7255 -0.1542 -1.7670
13111TIP3   OH260823   6.005   2.557  11.919  0.4141 -0.1983 -0.0853
13111TIP3    H160824   6.033   2.478  11.966  0.6134  0.4629  0.9333
13111TIP3    H260825   5.932   2.527  11.863  0.7720 -1.1840 -0.0410
13112TIP3   OH260826   3.988   2.794  14.661  0.9830  0.1184  0.1427
13112TIP3    H160827   3.933   2.870  14.642  0.9686  0.7237  2.2712
13112TIP3    H260828   3.958   2.726  14.601 -1.0846  0.8912  0.2319
13113TIP3   OH260829   1.594   1.995  14.929 -0.4731 -0.2117 -0.7717
13113TIP3    H160830   1.518   2.048  14.953 -0.9578 -0.4597 -1.6790
13113TIP3    H260831   1.595   1.997  14.833  0.1975 -0.8672 -0.7885
13114TIP3   OH260832   4.966   2.238  16.115  0.1381  0.7535  0.8111
13114TIP3    H160833   5.004   2.295  16.048 -0.1677  1.2600  1.0638
13114TIP3    H260834   4.956   2.154  16.072  0.7141  0.8502  0.4704
13115TIP3   OH260835   5.655   2.127   3.518 -0.5325 -0.1494 -0.0680
13115TIP3    H160836   5.678   2.110   3.609 -1.2440  0.7800  0.3023
13115TIP3    H260837   5.726   2.087   3.468  0.9697  1.0519  0.9669
13116TIP3   OH260838   6.810   1.053  14.738  0.2488  0.1309 -0.0222
13116TIP3    H160839   6.738   1.005  14.778 -0.1995  0.0580 -0.8928
13116TIP3    H260840   6.889   1.011  14.772 -0.1346 -1.4747 -1.0344
13117TIP3   OH260841   5.547   1.639   1.886 -0.1061  0.3687  0.2530
13117TIP3    H160842   5.491   1.566   1.911  0.2582 -0.0903 -0.2453
13117TIP3    H260843   5.554   1.632   1.791 -0.0714  1.0580  0.1977
13118TIP3   OH260844   0.353   1.942  13.905  0.1585 -0.7344 -0.1577
13118TIP3    H160845   0.311   1.915  13.987  0.0083 -0.1384 -0.0316
13118TIP3    H260846   0.414   2.011  13.931 -1.5935  1.1537 -0.8326
13119TIP3   OH260847   0.472   2.686   3.788 -0.1356 -0.1516 -0.0125
13119TIP3    H160848   0.421   2.630   3.730 -0.8891 -0.3794  0.8444
13119TIP3    H260849   0.561   2.682   3.753 -0.8118  0.9069 -2.0362
13120TIP3   OH260850   0.498   1.051   4.806  0.2290 -0.6081 -0.1391
13120TIP3    H160851   0.558   1.108   4.758 -0.9927  2.3275  1.6134
13120TIP3    H260852   0.512   0.964   4.766  3.8127  0.3596 -1.4187
13121TIP3   OH260853   0.428   3.584   3.669  0.3768 -0.0931 -0.0874
13121TIP3    H160854   0.406   3.540   3.751  0.7126  2.3783  1.4246
13121TIP3    H260855   0.377   3.665   3.670  1.0674  0.4392 -1.9063
13122TIP3   OH260856   1.258   5.533   0.918 -0.4415 -0.1735  0.2414
13122TIP3    H160857   1.176   5.509   0.962 -0.2937  0.6208  0.9776
13122TIP3    H260858   1.282   5.617   0.957  0.2219  0.0680 -0.6599
13123TIP3   OH260859   6.749   6.745  15.106  0.0296  0.0871  0.5165
13123TIP3    H160860   6.747   6.800  15.185 -0.4171 -0.1256  0.6554
13123TIP3    H260861   6.807   6.673  15.129 -1.6576 -1.0578  1.3868
13124TIP3   OH260862   0.602   3.648  13.482  0.6127 -0.1528  0.2701
13124TIP3    H160863   0.575   3.651  13.390 -0.4037 -0.0751  0.5560
13124TIP3    H260864   0.688   3.688  13.483  0.3706  0.4172 -0.5554
13125TIP3   OH260865   4.581   5.836  12.645  0.8185 -0.0338  0.4812
13125TIP3    H160866   4.628   5.902  12.697  0.1792  0.8670 -0.0537
13125TIP3    H260867   4.641   5.816  12.573  0.8751  0.2358  0.4491
13126TIP3   OH260868   1.819   1.734   3.488 -0.1534  1.1783  0.1845
13126TIP3    H160869   1.750   1.784   3.444 -0.3382 -0.1165 -1.0643
13126TIP3    H260870   1.820   1.769   3.578 -1.9898  1.6712  0.0567
13127TIP3   OH260871   3.371   5.753   3.864 -0.3471 -0.6530 -0.1883
13127TIP3    H160872   3.420   5.673   3.845  1.1289 -0.7166  3.2520
13127TIP3    H260873   3.317   5.731   3.939 -0.5344  1.3602  0.3166
13128TIP3   OH260874   0.335   0.938  14.453 -0.1142  0.0812 -0.0413
13128TIP3    H160875   0.391   0.989  14.512  1.0383 -1.1602 -0.0235
13128TIP3    H260876   0.345   0.848  14.482 -1.2614 -0.2974 -0.7675
13129TIP3   OH260877   5.689   5.210   1.051  0.1336 -0.0117  0.1189
13129TIP3    H160878   5.657   5.158   1.125  3.3590  0.9115  2.3649
13129TIP3    H260879   5.620   5.275   1.035 -0.8743 -0.5728  1.9873
13130TIP3   OH260880   5.689   0.541   0.323  0.0586 -0.5503  0.8353
13130TIP3    H160881   5.673   0.562   0.230  0.5497  2.1733  1.2713
13130TIP3    H260882   5.647   0.456   0.336 -1.5123 -0.2341 -1.4865
13131TIP3   OH260883   3.445   3.453  14.353 -0.2821 -0.0980 -0.2388
13131TIP3    H160884   3.429   3.364  14.385 -0.7687  0.9178  2.6147
13131TIP3    H260885   3.405   3.454  14.266 -0.4310 -2.5897 -0.2861
13132TIP3   OH260886   4.877   2.201  10.728 -0.0925  0.1954  0.3894
13132TIP3    H160887   4.875   2.281  10.676 -1.1671 -0.4583 -0.6436
13132TIP3    H260888   4.822   2.220  10.804 -1.0869  0.1686 -0.3041
13133TIP3   OH260889   1.747   5.151  12.422 -0.2335  0.4495 -0.4991
13133TIP3    H160890   1.766   5.207  12.498 -0.6863 -0.9130  0.6695
13133TIP3    H260891   1.828   5.105  12.405 -0.5103 -0.2851  0.0905
13134TIP3   OH260892   5.466   1.693  11.900 -0.4561 -0.1992  0.1156
13134TIP3    H160893   5.429   1.628  11.841  0.9108 -0.7057 -0.2324
13134TIP3    H260894   5.550   1.655  11.927 -0.7160  0.3502  1.8090
13135TIP3   OH260895   0.444   2.626   5.905  0.2722 -0.0504  0.2642
13135TIP3    H160896   0.476   2.711   5.877  3.1433 -1.3018 -0.6044
13135TIP3    H260897   0.400   2.642   5.988 -0.5721  2.4473 -0.5884
13136TIP3   OH260898   2.665   2.148  16.330  0.0295 -0.1622 -0.6108
13136TIP3    H160899   2.733   2.101  16.281 -1.2381 -2.5571 -0.2498
13136TIP3    H260900   2.605   2.079  16.359 -2.2638  1.7668 -0.4429
13137TIP3   OH260901   2.676   3.644  12.112 -0.2606  0.4479 -0.1245
13137TIP3    H160902   2.598   3.600  12.077 -0.9884  0.6602  1.1846
13137TIP3    H260903   2.662   3.647  12.206  2.7587 -2.3992  0.6345
13138TIP3   OH260904   3.281   2.402  12.077  0.7501  0.7168 -0.1903
13138TIP3    H160905   3.219   2.329  12.083  2.0359 -0.3090  1.6354
13138TIP3    H260906   3.300   2.410  11.984 -0.3635 -0.4603 -0.5492
13139TIP3   OH260907   3.642   1.386   0.541 -0.0841  0.5562  0.3243
13139TIP3    H160908   3.620   1.351   0.627 -2.7535  0.5420 -0.2523
13139TIP3    H260909   3.721   1.438   0.555 -0.7999  1.1038  2.9429
13140TIP3   OH260910   4.686   0.285  17.301 -0.4386 -0.9289 -0.6273
13140TIP3    H160911   4.769   0.248  17.272  1.9129  3.1088  0.1501
13140TIP3    H260912   4.688   0.278  17.397  0.2739  1.3561 -0.4290
13141TIP3   OH260913   0.862   4.884  16.067  0.1778  0.4548 -0.1750
13141TIP3    H160914   0.779   4.918  16.102  0.3001 -0.3114  0.9084
13141TIP3    H260915   0.889   4.818  16.130  2.2025  1.4649  0.0917
13142TIP3   OH260916   5.560   2.897   2.658  0.0554  0.1031  0.2640
13142TIP3    H160917   5.645   2.855   2.670  0.2491 -0.0511 -1.4059
13142TIP3    H260918   5.510   2.837   2.602 -1.6694 -0.4270  2.2393
13143TIP3   OH260919   4.465   4.869   0.637  0.1805  0.6047  0.1473
13143TIP3    H160920   4.477   4.779   0.606 -0.8901  1.2654 -2.4967
13143TIP3    H260921   4.386   4.866   0.690 -0.2713  0.0867 -0.5329
13144TIP3   OH260922   4.829   6.039   2.070  0.1191  0.5061  0.0446
13144TIP3    H160923   4.757   5.996   2.025 -1.0984  2.2745  0.1988
13144TIP3    H260924   4.847   5.983   2.146 -2.5979  1.0876  1.2301
13145TIP3   OH260925   0.898   0.515  16.715  0.5904  0.3465 -0.5639
13145TIP3    H160926   0.945   0.531  16.633  3.0390 -0.2786  0.6276
13145TIP3    H260927   0.921   0.590  16.770  0.8743 -0.3873  0.3308
13146TIP3   OH260928   1.576   1.946  11.191  0.7314  0.0549 -0.0478
13146TIP3    H160929   1.611   2.001  11.260  1.2120  2.0433 -1.7646
13146TIP3    H260930   1.488   1.981  11.174  1.1555  0.5358 -1.3648
13147TIP3   OH260931   6.657   3.386  16.829  0.3241 -0.0780 -0.6004
13147TIP3    H160932   6.677   3.436  16.750  0.0693  0.3182 -0.4139
13147TIP3    H260933   6.715   3.309  16.824  0.8078  0.2988 -0.8225
13148TIP3   OH260934   3.428   2.363  15.835 -0.0802  0.1878 -0.1371
13148TIP3    H160935   3.497   2.356  15.901  0.4721  3.1119 -0.2499
13148TIP3    H260936   3.448   2.293  15.772  1.1146 -0.7801  1.2508
13149TIP3   OH260937   3.510   2.213   1.526  0.1606  0.4142 -0.4252
13149TIP3    H160938   3.606   2.214   1.524  0.2099  1.3099  0.8129
13149TIP3    H260939   3.483   2.220   1.435  1.2649 -0.5175 -0.8442
13150TIP3   OH260940   2.299   4.555   4.002 -0.1678  0.2942  0.2639
13150TIP3    H160941   2.264   4.577   4.088  0.0489  0.4728  0.3080
13150TIP3    H260942   2.280   4.631   3.948  0.1471  0.3882  0.2865
13151TIP3   OH260943   1.972   5.274   5.024 -0.1946  0.3562 -0.1386
13151TIP3    H160944   1.906   5.297   4.959  0.8630  0.3576 -1.2537
13151TIP3    H260945   1.944   5.188   5.056 -1.4982  0.9861  0.4628
13152TIP3   OH260946   2.459   5.519  11.601 -0.6806  0.1399  0.4218
13152TIP3    H160947   2.432   5.473  11.522 -2.8053  0.3882  0.9374
13152TIP3    H260948   2.522   5.585  11.571 -0.9405 -0.2144 -0.9436
13153TIP3   OH260949   0.016   3.282   5.954 -0.6156 -0.1232 -0.1057
13153TIP3    H160950   0.050   3.356   6.005  1.0039  0.2313 -1.6126
13153TIP3    H260951  -0.054   3.320   5.901 -0.1676  0.2178 -0.4601
13154TIP3   OH260952   2.662   0.785  14.691  0.1404  0.3715 -0.3064
13154TIP3    H160953   2.656   0.878  14.668 -0.0153  0.2204 -0.8841
13154TIP3    H260954   2.750   0.759  14.665 -0.2242  0.0630 -1.2641
13155TIP3   OH260955   5.429   2.127  13.480 -0.6604  0.0378  0.1738
13155TIP3    H160956   5.447   2.062  13.412 -0.4007  1.1540 -0.8499
13155TIP3    H260957   5.476   2.205  13.452  0.7110  0.0925  2.4283
13156TIP3   OH260958   2.293   2.634  12.145  0.0266  0.4211  1.0370
13156TIP3    H160959   2.351   2.692  12.094 -2.3078  1.0167 -1.1090
13156TIP3    H260960   2.262   2.690  12.217  0.2980  0.8323  0.8419
13157TIP3   OH260961   4.221   6.276  12.872  0.3980  0.0113  0.6609
13157TIP3    H160962   4.184   6.218  12.805  0.6196 -0.4881  0.9686
13157TIP3    H260963   4.146   6.327  12.904  0.2808  0.2091  0.0817
13158TIP3   OH260964   0.687   3.386   0.794  0.3639  0.4577 -0.1618
13158TIP3    H160965   0.608   3.440   0.799 -0.7925 -0.9502 -2.0546
13158TIP3    H260966   0.657   3.301   0.763  2.4336 -0.6541  0.6331
13159TIP3   OH260967   4.387   2.940   5.445  0.3818  0.1079 -0.0274
13159TIP3    H160968   4.388   3.025   5.489  0.0739  1.6148 -2.7140
13159TIP3    H260969   4.294   2.918   5.437  0.4584 -0.4713  0.5935
13160TIP3   OH260970   0.303   1.736  13.284 -0.1401  0.2278  0.0734
13160TIP3    H160971   0.383   1.771  13.324  0.4326 -0.2809 -0.6159
13160TIP3    H260972   0.251   1.813  13.264 -0.3532  0.5178  1.5874
13161TIP3   OH260973   0.935   0.891  11.622 -0.1673 -0.0770  0.4916
13161TIP3    H160974   0.932   0.802  11.656 -0.0196  0.1621  1.1452
13161TIP3    H260975   0.987   0.940  11.686 -0.6285  0.5789  0.3798
13162TIP3   OH260976   0.603   5.652   3.171  0.1116 -0.3393 -0.0236
13162TIP3    H160977   0.544   5.727   3.161 -1.1668 -1.4161 -0.8370
13162TIP3    H260978   0.602   5.634   3.265  0.0470  0.3539  0.1131
13163TIP3   OH260979   2.258   4.478   1.141 -0.1338  0.4001  0.1882
13163TIP3    H160980   2.205   4.513   1.212 -1.4347  0.7934 -0.9484
13163TIP3    H260981   2.204   4.487   1.062  2.3896  2.8259 -1.4497
13164TIP3   OH260982   6.399   2.392  14.801  0.2772 -0.1214  0.2632
13164TIP3    H160983   6.471   2.367  14.743 -0.2272  2.3773 -1.6428
13164TIP3    H260984   6.382   2.483  14.779 -3.3614 -0.5384  0.7488
13165TIP3   OH260985   0.008   1.524   5.150 -0.2310 -0.2025 -0.7674
13165TIP3    H160986  -0.017   1.599   5.205 -0.0098  0.9517 -2.1636
13165TIP3    H260987   0.096   1.546   5.119 -0.4286 -0.7053 -1.7277
13166TIP3   OH260988   6.082   2.718  16.667 -0.0454 -0.2926  0.7475
13166TIP3    H160989   6.057   2.790  16.725 -0.7853 -0.0744  0.1879
13166TIP3    H260990   6.170   2.694  16.694 -0.3101 -0.0730  1.8299
13167TIP3   OH260991   5.592   4.909  16.955 -0.6460  0.0014  0.3553
13167TIP3    H160992   5.501   4.913  16.983 -0.5797 -0.8869  0.7266
13167TIP3    H260993   5.590   4.857  16.875 -0.4417 -0.1224  0.4326
13168TIP3   OH260994   4.850   5.197   5.882  0.4785 -0.5065 -0.3828
13168TIP3    H160995   4.890   5.164   5.962 -0.8995  1.2567  1.1474
13168TIP3    H260996   4.801   5.122   5.847  0.9609 -1.2637  0.5124
13169TIP3   OH260997   0.162   2.582  11.378 -0.0741 -0.2885  0.2456
13169TIP3    H160998   0.073   2.564  11.409  0.1238  1.4807  2.0589
13169TIP3    H260999   0.219   2.552  11.449  0.8250 -1.3188 -0.8595
13170TIP3   OH261000   3.563   1.383  13.787  0.5282  0.0426  0.0458
13170TIP3    H161001   3.543   1.381  13.693  1.7384 -0.5859 -0.2116
13170TIP3    H261002   3.521   1.463  13.818  0.8146  0.7053 -1.2046
13171TIP3   OH261003   1.419   4.149   1.411 -0.5700 -0.1568 -0.1822
13171TIP3    H161004   1.332   4.159   1.373 -0.5222  1.5522  0.0589
13171TIP3    H261005   1.455   4.238   1.412  0.9956 -0.7580  0.1588
13172TIP3   OH261006   4.438   2.851   5.043  0.0126 -0.7719  0.1547
13172TIP3    H161007   4.490   2.926   5.015 -1.5832  0.2931 -0.1314
13172TIP3    H261008   4.438   2.793   4.967  0.7301 -0.7729  0.1481
13173TIP3   OH261009   6.781   4.015  13.382 -0.1405 -0.2805 -0.3236
13173TIP3    H161010   6.787   4.056  13.468 -1.7498  0.5768 -0.5749
13173TIP3    H261011   6.828   4.075  13.324  0.7080 -0.7189 -0.1001
13174TIP3   OH261012   5.171   4.846  15.736  0.4988 -0.1297  0.2268
13174TIP3    H161013   5.147   4.763  15.694 -0.1008  0.2857 -0.2510
13174TIP3    H261014   5.089   4.878  15.774  0.5269  0.7063 -0.3919
13175TIP3   OH261015   1.410   4.839   0.323  0.1197  0.8534 -0.3896
13175TIP3    H161016   1.504   4.829   0.337 -0.0490  0.3309  0.3802
13175TIP3    H261017   1.404   4.892   0.243  1.0694  1.4395 -0.0913
13176TIP3   OH261018   1.599   0.113   1.110 -0.7858 -0.3954 -0.0736
13176TIP3    H161019   1.536   0.167   1.158 -2.5873 -1.1203 -1.5013
13176TIP3    H261020   1.603   0.153   1.022  0.5833 -0.5284 -0.0993
13177TIP3   OH261021   1.959   2.350  15.412  0.1106 -0.1654  0.1594
13177TIP3    H161022   1.910   2.420  15.368 -1.7937 -1.9967 -0.7925
13177TIP3    H261023   1.905   2.327  15.487 -0.3673 -1.9474 -0.6793
13178TIP3   OH261024   0.477   1.233   2.188 -0.4154 -0.2499 -0.1110
13178TIP3    H161025   0.508   1.237   2.097 -1.2537 -0.0410 -0.4008
13178TIP3    H261026   0.449   1.323   2.207 -0.7697 -0.4169  0.1627
13179TIP3   OH261027   1.581   2.643   5.600 -0.2290  0.3748  0.2267
13179TIP3    H161028   1.542   2.670   5.516 -0.0047  0.5936  0.1931
13179TIP3    H261029   1.671   2.673   5.595  0.1222 -0.6815  0.0488
13180TIP3   OH261030   3.854   2.428  13.264  0.2335 -0.3777  0.3433
13180TIP3    H161031   3.772   2.403  13.307  0.4349  0.0343  0.9821
13180TIP3    H261032   3.907   2.467  13.334  0.9086 -0.4832 -0.0986
13181TIP3   OH261033   1.495   5.885   4.052 -0.5673 -0.0821 -0.1824
13181TIP3    H161034   1.549   5.842   4.119  0.0828 -0.1536 -0.7507
13181TIP3    H261035   1.509   5.978   4.067 -0.1574 -0.1029 -0.4329
13182TIP3   OH261036   0.945   4.397  11.012 -0.2169 -0.0047 -0.5822
13182TIP3    H161037   0.869   4.362  10.966  0.1831 -2.1302  0.2280
13182TIP3    H261038   1.005   4.323  11.018  0.1228  0.3942  2.4970
13183TIP3   OH261039   3.818   3.613  11.126  0.1072  0.5458 -0.3440
13183TIP3    H161040   3.732   3.646  11.153  0.6764  1.0301  1.0001
13183TIP3    H261041   3.799   3.550  11.057 -1.2465  1.4811 -0.8744
13184TIP3   OH261042   0.419   3.133  16.332  0.5957  0.2050  0.2586
13184TIP3    H161043   0.334   3.173  16.348  0.2925 -0.4915  0.3977
13184TIP3    H261044   0.431   3.139  16.237 -1.8300 -4.0189 -0.5288
13185TIP3   OH261045   1.466   3.796  13.110 -0.1763  0.0100  0.4610
13185TIP3    H161046   1.492   3.712  13.149 -1.8879  0.7188  3.4453
13185TIP3    H261047   1.501   3.793  13.021 -0.9610 -4.2523  0.1015
13186TIP3   OH261048   2.655   2.851   0.218 -0.0199 -0.0514  0.6633
13186TIP3    H161049   2.735   2.904   0.218 -0.0308 -0.0334  0.3128
13186TIP3    H261050   2.612   2.872   0.135  1.0565 -2.2385 -0.5558
13187TIP3   OH261051   0.055   2.606   0.095  0.1226  0.1106 -0.1592
13187TIP3    H161052   0.107   2.569   0.024 -2.2276  0.1017 -2.0089
13187TIP3    H261053   0.071   2.548   0.169  1.2280 -0.9855 -1.2130
13188TIP3   OH261054   4.681   6.000   3.844 -0.3390 -0.1506  0.5406
13188TIP3    H161055   4.661   5.907   3.846 -0.3410 -0.1356  1.2500
13188TIP3    H261056   4.647   6.035   3.926  0.1834  0.3678  0.5506
13189TIP3   OH261057   2.578   1.819  15.737 -0.2982  0.5533 -0.5650
13189TIP3    H161058   2.597   1.754  15.670  0.2688 -0.4252  0.5187
13189TIP3    H261059   2.641   1.889  15.722 -1.1258  1.0457 -1.9432
13190TIP3   OH261060   5.989   3.092  15.039 -0.5921 -0.5953 -0.0894
13190TIP3    H161061   6.041   3.147  15.097  1.2474 -2.1143 -0.2012
13190TIP3    H261062   5.910   3.072  15.089 -0.1226  0.0460  0.9347
13191TIP3   OH261063   0.165   4.977   3.389  0.3500  0.1442 -0.5238
13191TIP3    H161064   0.218   4.983   3.309  2.1120 -0.4869  0.5402
13191TIP3    H261065   0.134   5.066   3.404 -0.4022  0.1879 -2.1465
13192TIP3   OH261066   3.256   2.190   0.066  0.1553 -0.5279 -0.2176
13192TIP3    H161067   3.190   2.151   0.124  0.1513 -2.0099 -1.1640
13192TIP3    H261068   3.206   2.233  -0.003  0.1695  0.5727  0.4409
13193TIP3   OH261069   1.605   5.677   1.326  0.1632 -0.4287  0.2782
13193TIP3    H161070   1.668   5.605   1.329 -0.2965 -0.8445  0.2336
13193TIP3    H261071   1.525   5.637   1.290 -0.2394 -0.0011  0.6866
13194TIP3   OH261072   1.256   1.945   4.879  0.6292  0.5255 -0.1198
13194TIP3    H161073   1.218   2.020   4.926  0.0225  0.2926 -0.2208
13194TIP3    H261074   1.289   1.888   4.948 -0.6494 -0.0253  0.0718
13195TIP3   OH261075   6.060   0.722  13.157 -0.6522  0.3435 -0.2750
13195TIP3    H161076   6.063   0.762  13.070 -1.4624 -0.1416 -0.5416
13195TIP3    H261077   5.967   0.723  13.180 -0.3935  0.8981  0.7959
13196TIP3   OH261078   6.040   3.374   5.246 -0.0205 -0.0805  0.0959
13196TIP3    H161079   6.014   3.456   5.288 -0.7369  0.7670 -1.8441
13196TIP3    H261080   6.135   3.372   5.254 -0.1875 -0.6928  2.9018
13197TIP3   OH261081   6.466   4.514  13.749  0.1431 -0.3069 -0.5448
13197TIP3    H161082   6.527   4.524  13.822 -0.9725  0.5603  0.3080
13197TIP3    H261083   6.408   4.442  13.776  0.5142 -0.8580 -1.1721
13198TIP3   OH261084   4.257   6.067  14.245 -0.0255 -0.0793  0.1275
13198TIP3    H161085   4.259   5.976  14.272 -0.0976 -0.1667 -0.1565
13198TIP3    H261086   4.166   6.094  14.258  0.4950  0.7015  2.6369
13199TIP3   OH261087   2.446   3.944   0.645 -0.2742 -0.2301 -0.3012
13199TIP3    H161088   2.467   3.853   0.667  0.0867 -0.3175 -0.9746
13199TIP3    H261089   2.447   3.946   0.549 -1.4170  0.2221 -0.3152
13200TIP3   OH261090   5.308   3.182   1.187  0.0963  0.5683  0.6686
13200TIP3    H161091   5.283   3.097   1.152 -1.6557  1.0969  0.5454
13200TIP3    H261092   5.296   3.243   1.115  0.8474  1.0009  0.8993
13201TIP3   OH261093   4.545   2.553  12.671 -0.2718  0.0916  0.1582
13201TIP3    H161094   4.477   2.621  12.675 -0.5727 -0.1265 -0.9448
13201TIP3    H261095   4.513   2.492  12.605  1.1318  0.1275 -0.5775
13202TIP3   OH261096   2.545   0.218  13.265 -0.1898 -0.3402  0.1110
13202TIP3    H161097   2.573   0.308  13.278 -0.7556 -0.0339 -0.6856
13202TIP3    H261098   2.602   0.166  13.321 -0.2843  0.5698  1.0767
13203TIP3   OH261099   5.057   0.091   2.653  0.1764  0.0707  0.1513
13203TIP3    H161100   5.011   0.068   2.733 -0.3517  2.3454  0.5617
13203TIP3    H261101   4.999   0.063   2.583 -0.7638  0.7599  0.6343
13204TIP3   OH261102   0.101   4.804   1.210 -0.7947  0.2630  0.1394
13204TIP3    H161103   0.127   4.717   1.241 -1.4471  0.5647  1.6088
13204TIP3    H261104   0.165   4.825   1.141  0.7767 -0.4221  1.3288
13205TIP3   OH261105   0.545   1.616  12.274 -0.0090  0.0736  0.2837
13205TIP3    H161106   0.547   1.711  12.259  4.1256 -0.0470 -1.4856
13205TIP3    H261107   0.628   1.598  12.319 -0.7419 -2.7133  0.6884
13206TIP3   OH261108   3.565   6.566   1.618 -0.1286 -0.0836 -0.7870
13206TIP3    H161109   3.586   6.539   1.529  0.5301 -0.7341 -0.4483
13206TIP3    H261110   3.618   6.645   1.632 -0.7503  0.4145 -1.1950
13207TIP3   OH261111   6.778   0.065  16.017  0.0659  0.0811  0.3484
13207TIP3    H161112   6.757   0.081  16.109  0.0226 -1.8612  0.7189
13207TIP3    H261113   6.789  -0.029  16.011 -1.1980  0.0038 -1.9241
13208TIP3   OH261114   2.353   4.230   0.613 -0.1587 -0.1899  0.5756
13208TIP3    H161115   2.263   4.254   0.636 -0.4789 -2.4937  2.0468
13208TIP3    H261116   2.356   4.135   0.623  2.1296 -0.3201 -0.6834
13209TIP3   OH261117   0.492   4.585   1.229  0.7130  0.0855 -0.0196
13209TIP3    H161118   0.518   4.592   1.321  0.5606 -0.2539  0.0517
13209TIP3    H261119   0.406   4.544   1.231 -1.0531  3.4518 -0.1136
13210TIP3   OH261120   2.960   0.922  10.418  0.3530 -0.0927  0.6385
13210TIP3    H161121   2.993   0.986  10.481 -0.9091 -0.8485  2.1329
13210TIP3    H261122   2.970   0.965  10.333  1.9628  1.0195  1.3299
13211TIP3   OH261123   3.245   5.699  15.819 -0.2502  0.2470 -0.4055
13211TIP3    H161124   3.312   5.700  15.751 -0.8324 -0.0534 -0.9936
13211TIP3    H261125   3.171   5.746  15.782 -0.9106 -0.7062 -0.3477
13212TIP3   OH261126   1.130   3.907   0.845  0.3009  0.0559  0.3847
13212TIP3    H161127   1.183   3.930   0.921 -0.4869 -2.1033  1.6694
13212TIP3    H261128   1.041   3.900   0.879 -0.7140  2.3795 -1.4658
13213TIP3   OH261129   3.205   5.758  14.574  0.0341  0.4461  0.2034
13213TIP3    H161130   3.277   5.796  14.525 -0.2645 -0.8548 -1.3282
13213TIP3    H261131   3.126   5.794  14.534 -0.2128 -0.6015 -0.2856
13214TIP3   OH261132   0.976   2.661  11.910 -0.9493 -0.1175 -0.2169
13214TIP3    H161133   1.069   2.674  11.923 -0.3084 -2.3542 -1.9012
13214TIP3    H261134   0.934   2.717  11.975  1.4795  2.4253 -0.6706
13215TIP3   OH261135   6.438   6.055  11.692 -0.5934  0.2530 -0.2003
13215TIP3    H161136   6.446   6.099  11.777 -0.0626 -0.1036 -0.0580
13215TIP3    H261137   6.529   6.040  11.665 -0.7611 -0.5609 -0.3394
13216TIP3   OH261138   6.570   0.497   5.240 -0.1813 -0.4150 -1.1439
13216TIP3    H161139   6.566   0.406   5.269 -0.7189 -0.7888 -2.3639
13216TIP3    H261140   6.491   0.537   5.276  1.7498  0.5959  2.5483
13217TIP3   OH261141   5.126   3.079  16.261  0.7465  0.2195 -0.2838
13217TIP3    H161142   5.058   3.106  16.323  0.9511 -1.6584  0.8240
13217TIP3    H261143   5.104   3.125  16.180 -1.2566  0.4457  0.3387
13218TIP3   OH261144   0.806   6.546  12.629 -0.1572  0.7372 -0.4791
13218TIP3    H161145   0.900   6.557  12.613 -0.1415  1.8390  0.2429
13218TIP3    H261146   0.797   6.455  12.658  0.5530  0.3640 -1.3948
13219TIP3   OH261147   5.924   2.212   4.799  0.0475  0.0805  0.0352
13219TIP3    H161148   5.842   2.170   4.826  1.4878 -3.3914 -0.4289
13219TIP3    H261149   5.979   2.209   4.878  0.6684 -0.2499 -0.4044
13220TIP3   OH261150   2.327   0.503  11.151  0.4555  0.2051  0.5587
13220TIP3    H161151   2.363   0.557  11.080 -1.4750  1.2397  0.2971
13220TIP3    H261152   2.403   0.480  11.204  1.7424  0.6857 -0.9962
13221TIP3   OH261153   5.474   4.307   2.091 -0.3374 -0.3245  0.0994
13221TIP3    H161154   5.492   4.391   2.048 -1.2015 -0.3261 -0.2814
13221TIP3    H261155   5.515   4.242   2.034 -0.7307 -0.2561 -0.2681
13222TIP3   OH261156   1.334   6.168  11.727 -0.6468  0.1605  0.7135
13222TIP3    H161157   1.388   6.173  11.806  0.6045  2.4037 -0.1911
13222TIP3    H261158   1.359   6.246  11.677 -4.3423  1.0223 -0.0403
13223TIP3   OH261159   4.441   0.294   0.392  0.1443 -0.1747 -0.8335
13223TIP3    H161160   4.418   0.213   0.438  1.8184 -0.4928 -0.4852
13223TIP3    H261161   4.434   0.272   0.299 -0.9863 -0.2148 -0.7537
13224TIP3   OH261162   4.699   5.688   2.691 -0.1576 -0.2460  0.0657
13224TIP3    H161163   4.772   5.739   2.657 -0.5623  0.0461 -0.3912
13224TIP3    H261164   4.633   5.753   2.717 -1.4352 -0.5003 -2.2364
13225TIP3   OH261165   3.558   3.326   3.808 -0.4040  0.1923  0.2312
13225TIP3    H161166   3.556   3.263   3.736  0.3303  0.0175  0.3576
13225TIP3    H261167   3.628   3.387   3.784 -0.4279  0.3676  0.6029
13226TIP3   OH261168   1.462   4.073  15.887  0.0664  0.8223  0.3029
13226TIP3    H161169   1.390   4.033  15.839 -1.0103  2.3944  0.5445
13226TIP3    H261170   1.530   4.006  15.888 -1.8382 -1.2062  1.1862
13227TIP3   OH261171   4.127   4.663  16.845 -0.2366 -0.2036 -0.6022
13227TIP3    H161172   4.071   4.649  16.769 -0.2176  0.5412 -0.7623
13227TIP3    H261173   4.066   4.666  16.919 -0.3402 -0.0523 -0.6949
13228TIP3   OH261174   0.866   6.789  11.323  0.1028  0.1889 -0.1435
13228TIP3    H161175   0.835   6.713  11.372  2.5237 -1.3060 -0.7646
13228TIP3    H261176   0.809   6.794  11.247 -0.1580 -0.9337 -0.0261
13229TIP3   OH261177   3.398   4.611  13.691 -0.4555 -0.4879  0.1163
13229TIP3    H161178   3.446   4.682  13.647 -1.8714  0.6189  0.3027
13229TIP3    H261179   3.383   4.643  13.780  0.8310 -1.9802  0.9182
13230TIP3   OH261180   5.018   5.130  11.584  0.2710  0.2117  0.2419
13230TIP3    H161181   5.076   5.205  11.602  0.9824 -0.2976  0.1409
13230TIP3    H261182   4.964   5.158  11.511  1.0968  0.3433 -0.3415
13231TIP3   OH261183   0.023   5.539  11.985 -0.0263  0.2816 -0.0903
13231TIP3    H161184  -0.001   5.630  12.000 -1.7178 -0.3155  1.1695
13231TIP3    H261185  -0.049   5.503  11.932  0.7821 -0.2660 -0.8583
13232TIP3   OH261186   5.303   1.682   5.264  0.1378 -0.1430 -0.2376
13232TIP3    H161187   5.232   1.730   5.308  0.9076  0.7416  0.0740
13232TIP3    H261188   5.342   1.629   5.333  0.5393  0.2836 -0.1335
13233TIP3   OH261189   3.740   3.005   4.683 -0.4688 -0.6114 -0.3260
13233TIP3    H161190   3.742   3.005   4.778  1.8843 -2.4156 -0.3016
13233TIP3    H261191   3.732   2.913   4.658  0.8475 -0.3714 -1.8389
13234TIP3   OH261192   3.963   0.937   3.408  0.4353  0.0160 -0.1918
13234TIP3    H161193   3.937   0.902   3.323  0.9007  0.2533 -0.4331
13234TIP3    H261194   3.994   1.025   3.390  1.4893 -0.2878  0.0699
13235TIP3   OH261195   4.670   1.349  16.559 -0.8735  0.4420 -0.1479
13235TIP3    H161196   4.672   1.412  16.487 -0.1143  0.5326 -0.0519
13235TIP3    H261197   4.725   1.387  16.626  0.1852 -0.6451 -0.3637
13236TIP3   OH261198   1.029   5.540   3.001  0.0453  0.2135  0.2995
13236TIP3    H161199   0.983   5.545   2.917  3.2870  0.0371 -1.6926
13236TIP3    H261200   1.014   5.626   3.041 -0.8705  0.6375 -0.8838
13237TIP3   OH261201   3.387   2.976   4.402 -0.0097 -0.8539  0.2921
13237TIP3    H161202   3.425   2.891   4.381 -0.8620 -1.3505  0.7251
13237TIP3    H261203   3.461   3.027   4.436  0.8351 -0.8937 -1.3979
13238TIP3   OH261204   5.481   6.434  16.772 -0.0347 -0.4943 -0.7766
13238TIP3    H161205   5.465   6.522  16.806 -0.8051 -0.6682 -0.6668
13238TIP3    H261206   5.416   6.424  16.702  1.5467 -0.1251 -2.3571
13239TIP3   OH261207   1.657   6.247  11.414  0.5826  0.1101  0.2899
13239TIP3    H161208   1.634   6.288  11.331 -0.0117  2.0661  1.3647
13239TIP3    H261209   1.578   6.199  11.440  0.8613 -0.7398 -0.3599
13240TIP3   OH261210   6.239   1.021  13.544 -0.4648 -0.0126 -0.3182
13240TIP3    H161211   6.246   1.000  13.450  0.9722  0.5218 -0.3517
13240TIP3    H261212   6.172   0.961  13.576  0.1351 -1.3320 -1.3769
13241TIP3   OH261213   4.545   1.489   2.388  0.2246  0.2365 -0.4461
13241TIP3    H161214   4.588   1.566   2.349  1.6377 -0.3463 -0.0853
13241TIP3    H261215   4.471   1.525   2.437  0.7838  1.3541 -0.3972
13242TIP3   OH261216   2.472   1.431  11.332  0.7202 -0.1251 -0.3150
13242TIP3    H161217   2.484   1.464  11.421  0.2047  0.7317 -0.5574
13242TIP3    H261218   2.548   1.373  11.318  1.2923  0.4414  0.3516
13243TIP3   OH261219   2.723   0.726   0.924  0.0774 -0.2187  0.6976
13243TIP3    H161220   2.701   0.777   0.846  1.9629  0.8485  0.8067
13243TIP3    H261221   2.643   0.679   0.945 -0.3697 -0.9690 -2.1893
13244TIP3   OH261222   5.696   4.593  15.770 -0.1567  0.7626 -0.4136
13244TIP3    H161223   5.778   4.545  15.781 -0.3042  0.6182  0.0734
13244TIP3    H261224   5.716   4.682  15.797  0.0226  0.8931 -0.9711
13245TIP3   OH261225   6.541   4.667   1.795  0.3385  0.3063 -0.1062
13245TIP3    H161226   6.524   4.746   1.846  1.7744  0.1236  0.6906
13245TIP3    H261227   6.619   4.629   1.834 -1.0289 -2.2496  0.3922
13246TIP3   OH261228   3.648   6.462   3.864 -0.3670  0.3668 -0.1346
13246TIP3    H161229   3.724   6.473   3.922 -0.0544 -2.3421  0.0740
13246TIP3    H261230   3.577   6.437   3.923 -1.0582  1.3580 -0.5200
13247TIP3   OH261231   3.110   4.661   1.098 -0.9314 -0.6678  0.3224
13247TIP3    H161232   3.092   4.592   1.163 -2.1806 -0.4267  0.2549
13247TIP3    H261233   3.026   4.705   1.086 -0.6568 -0.5063 -1.2358
13248TIP3   OH261234   6.763   2.260  11.407  0.7836  0.6120  0.1874
13248TIP3    H161235   6.787   2.310  11.329  0.0113  0.8938  0.1279
13248TIP3    H261236   6.669   2.245  11.399  1.0470 -1.1394  0.0443
13249TIP3   OH261237   5.699   0.529  12.001 -0.4963 -0.0221 -0.3495
13249TIP3    H161238   5.760   0.522  12.074 -1.1995  2.3148  0.5417
13249TIP3    H261239   5.744   0.584  11.937 -0.5998 -0.5850 -0.9209
13250TIP3   OH261240   4.250   3.548  13.250  0.9066  0.0891 -0.8996
13250TIP3    H161241   4.271   3.616  13.186  1.9057  2.6551  1.9166
13250TIP3    H261242   4.304   3.473  13.224  0.6955  0.7183 -3.4240
13251TIP3   OH261243   3.625   3.124  16.065  0.1433 -0.9935 -0.7340
13251TIP3    H161244   3.601   3.101  16.155 -0.4078 -3.0985 -1.3637
13251TIP3    H261245   3.664   3.211  16.072 -0.2070 -0.9626  1.4852
13252TIP3   OH261246   4.488   3.682   3.023  0.5761 -0.2091 -0.2933
13252TIP3    H161247   4.507   3.740   2.949 -0.3348  1.2668  0.5794
13252TIP3    H261248   4.574   3.649   3.050  1.5291  2.7355  0.7106
13253TIP3   OH261249   4.666   5.033   2.179 -0.7358  0.2352 -0.3558
13253TIP3    H161250   4.748   5.037   2.228  0.1786  1.5860 -1.9218
13253TIP3    H261251   4.602   5.077   2.236 -0.3439 -0.5768  0.7482
13254TIP3   OH261252   6.256   3.373   0.979 -0.4317  0.1855  0.4942
13254TIP3    H161253   6.229   3.326   0.900  0.4556 -0.2034  0.4076
13254TIP3    H261254   6.324   3.433   0.949  0.7946 -0.8310  1.1412
13255TIP3   OH261255   5.373   0.482   4.249  0.2123  0.3309  0.1207
13255TIP3    H161256   5.441   0.542   4.281 -0.0247  0.5288  0.2530
13255TIP3    H261257   5.378   0.488   4.154  0.9837 -0.3295  0.1099
13256TIP3   OH261258   1.555   3.726  14.620  0.2927  0.4818  0.1114
13256TIP3    H161259   1.505   3.786  14.675  0.9042  0.5738  0.5777
13256TIP3    H261260   1.499   3.710  14.544 -0.6675  0.1720  0.8727
13257TIP3   OH261261   1.987   4.937  10.717 -0.2317 -0.2957  0.1591
13257TIP3    H161262   1.946   4.871  10.661  0.6763 -1.1674  0.4924
13257TIP3    H261263   1.973   4.906  10.806  0.6102 -0.3062  0.3037
13258TIP3   OH261264   3.115   1.077   2.815  0.0453 -0.5876 -0.2380
13258TIP3    H161265   3.150   1.060   2.727 -0.1553  1.0655 -0.6717
13258TIP3    H261266   3.159   1.157   2.843 -1.4866  0.0994  0.2692
13259TIP3   OH261267   4.721   1.834  10.570  0.3959 -0.2120 -0.6169
13259TIP3    H161268   4.705   1.790  10.486  2.2868 -0.4495 -0.8800
13259TIP3    H261269   4.778   1.774  10.618  0.1839  0.3987  0.4369
13260TIP3   OH261270   0.920   2.395  11.276 -0.2156  0.4887  0.4219
13260TIP3    H161271   0.946   2.414  11.186 -0.6048  1.1609  0.4425
13260TIP3    H261272   0.940   2.302  11.288  3.9004  1.3035  1.0604
13261TIP3   OH261273   6.510   2.564   3.198  0.5610  0.4190 -0.1645
13261TIP3    H161274   6.483   2.656   3.199 -2.5083 -0.3682 -0.0301
13261TIP3    H261275   6.492   2.533   3.287  1.2575 -0.4303 -0.3068
13262TIP3   OH261276   4.289   5.690   2.501 -0.3336 -0.2838 -0.3180
13262TIP3    H161277   4.339   5.651   2.572  0.0809  0.4868 -0.1747
13262TIP3    H261278   4.286   5.623   2.433 -1.3825 -1.3096  0.7046
13263TIP3   OH261279   1.830   4.191   2.327 -0.0574  0.2313 -0.1629
13263TIP3    H161280   1.822   4.284   2.304 -2.8235  0.0413 -0.2547
13263TIP3    H261281   1.810   4.145   2.246  2.8726 -0.5643 -0.5648
13264TIP3   OH261282   3.249   1.106  13.758  0.4318 -0.1164  0.3208
13264TIP3    H161283   3.181   1.169  13.734  0.1317 -1.4758 -2.9422
13264TIP3    H261284   3.202   1.035  13.802 -0.0349 -0.2849 -0.4351
13265TIP3   OH261285   0.502   3.006   3.806 -0.0065  0.5870  0.1473
13265TIP3    H161286   0.514   2.928   3.860  1.4177  0.9550  0.4092
13265TIP3    H261287   0.435   2.982   3.742  0.7935 -1.0185 -0.1123
13266TIP3   OH261288   0.765   4.002  11.549 -0.7193 -0.0492 -0.5200
13266TIP3    H161289   0.838   3.973  11.494 -0.6405 -0.4088 -0.2356
13266TIP3    H261290   0.734   3.922  11.592  1.2160  0.5549  2.3468
13267TIP3   OH261291   2.656   3.045   2.266  0.7950  0.1177  0.5725
13267TIP3    H161292   2.666   2.957   2.229 -0.3756  0.2462 -0.1188
13267TIP3    H261293   2.721   3.097   2.220 -0.5280  0.2363 -1.2884
13268TIP3   OH261294   3.868   6.197  14.528  0.4510 -0.0822 -0.2044
13268TIP3    H161295   3.947   6.205  14.581  0.1542  2.9982 -0.0751
13268TIP3    H261296   3.831   6.285  14.526 -2.0822 -1.0682 -1.6871
13269TIP3   OH261297   1.972   0.748   5.000  0.3804  0.2043  0.2038
13269TIP3    H161298   1.964   0.690   5.075 -0.9411  1.2403  0.9027
13269TIP3    H261299   2.021   0.697   4.935  0.1672 -1.2787  1.1683
13270TIP3   OH261300   2.431   4.101  11.204 -0.0645 -0.5551 -0.5669
13270TIP3    H161301   2.358   4.139  11.155 -0.2597  2.8907  2.0420
13270TIP3    H261302   2.390   4.049  11.273  0.0245 -0.7566 -0.6660
13271TIP3   OH261303   2.533   6.106   4.943  0.2435  0.3158  0.1421
13271TIP3    H161304   2.493   6.030   4.985 -0.0368  0.8611  0.8867
13271TIP3    H261305   2.560   6.075   4.857  1.8164 -1.1612  1.0951
13272TIP3   OH261306   3.493   6.736  11.705 -0.1025 -0.1974 -0.1197
13272TIP3    H161307   3.566   6.755  11.765 -0.2596  0.6088 -0.1737
13272TIP3    H261308   3.509   6.793  11.630 -1.3949  0.8466  0.3558
13273TIP3   OH261309   3.540   3.652   5.657  0.0960  0.9670  0.1747
13273TIP3    H161310   3.484   3.675   5.732  1.8633  2.6589  1.0443
13273TIP3    H261311   3.558   3.735   5.614  0.3442  0.1897 -1.2812
13274TIP3   OH261312   1.897   0.860  13.369  0.5401  0.0174 -0.5693
13274TIP3    H161313   1.831   0.918  13.330 -0.6773 -0.5332  0.6086
13274TIP3    H261314   1.918   0.798  13.300 -0.6581 -0.1816 -0.7703
13275TIP3   OH261315   1.194   2.738   2.493 -0.2479 -0.3302 -0.0992
13275TIP3    H161316   1.143   2.721   2.414  1.5503  1.0501 -1.6616
13275TIP3    H261317   1.260   2.669   2.495 -1.9324 -2.0334  1.8420
13276TIP3   OH261318   4.781   6.094  16.387 -0.1192 -0.4068  0.1619
13276TIP3    H161319   4.810   6.128  16.472  0.5083  0.4088 -0.3689
13276TIP3    H261320   4.692   6.127  16.377  0.3090  0.7115 -0.1282
13277TIP3   OH261321   6.361   3.492   3.822  0.3796 -0.1530  0.1302
13277TIP3    H161322   6.401   3.573   3.855  2.1404 -0.9465  0.0423
13277TIP3    H261323   6.393   3.484   3.732 -0.3383 -0.5991 -0.0953
13278TIP3   OH261324   4.507   2.079   0.742  0.3240 -0.9403  0.5726
13278TIP3    H161325   4.498   2.035   0.657  0.4483 -0.8936  0.5354
13278TIP3    H261326   4.545   2.164   0.721 -0.5723 -0.5290  0.5710
13279TIP3   OH261327   6.457   0.895  15.269 -0.0145  0.5365  0.4432
13279TIP3    H161328   6.538   0.909  15.318 -0.8663 -0.4723  2.2446
13279TIP3    H261329   6.458   0.802  15.249 -0.5923  0.5724  0.2507
13280TIP3   OH261330   4.563   0.476   1.802  0.6032 -0.6584 -0.7475
13280TIP3    H161331   4.618   0.555   1.805 -0.3060 -0.0069 -0.8424
13280TIP3    H261332   4.625   0.404   1.792  1.3736  0.2145 -3.0167
13281TIP3   OH261333   3.768   5.467  13.830  0.6509 -0.4412  0.0260
13281TIP3    H161334   3.766   5.405  13.757 -2.6140 -0.4323 -0.0414
13281TIP3    H261335   3.726   5.420  13.902  0.3575  0.8391  0.7263
13282TIP3   OH261336   2.234   0.151  11.359 -0.7771  0.1398 -0.1562
13282TIP3    H161337   2.263   0.124  11.272 -0.0460  1.9513 -0.5355
13282TIP3    H261338   2.157   0.206  11.342 -0.5612  0.5990  0.3227
13283TIP3   OH261339   5.592   0.964   3.179 -0.4743 -0.2448 -0.0746
13283TIP3    H161340   5.505   0.923   3.185 -0.3304 -0.5959 -0.3564
13283TIP3    H261341   5.633   0.922   3.103  0.6037 -1.3485  1.0556
13284TIP3   OH261342   5.183   2.152   1.977 -0.2987 -0.2396  0.5808
13284TIP3    H161343   5.255   2.089   1.978 -0.2212 -0.1456  0.9784
13284TIP3    H261344   5.226   2.237   1.987 -0.0950  0.2075 -2.7571
13285TIP3   OH261345   0.420   0.119  11.110  0.4679 -0.8321  0.0027
13285TIP3    H161346   0.385   0.146  11.195  0.8633 -0.0652 -0.0763
13285TIP3    H261347   0.345   0.121  11.052  0.0463 -2.0208  0.4686
13286TIP3   OH261348   5.762   5.554  10.351 -0.1011  0.0285 -0.0714
13286TIP3    H161349   5.693   5.552  10.416 -1.2980 -2.7647 -1.2522
13286TIP3    H261350   5.805   5.468  10.358 -1.0229 -0.8879 -3.5601
13287TIP3   OH261351   0.546   3.384   2.663  0.0769 -0.0532 -0.1775
13287TIP3    H161352   0.627   3.381   2.611 -0.4066 -1.9352 -0.9305
13287TIP3    H261353   0.563   3.326   2.737 -0.6200 -0.5987 -0.4320
13288TIP3   OH261354   2.628   0.245  14.094 -0.5137  0.1216 -0.2657
13288TIP3    H161355   2.714   0.276  14.066 -0.2479  0.1991  0.6029
13288TIP3    H261356   2.585   0.322  14.130 -0.2506 -0.2554  0.9318
13289TIP3   OH261357   4.347   2.605  10.897  0.0491  0.4994  0.0810
13289TIP3    H161358   4.257   2.621  10.926 -0.2979  0.4887 -0.9474
13289TIP3    H261359   4.354   2.510  10.892 -0.5639  0.5040 -1.7874
13290TIP3   OH261360   5.216   5.461  15.534 -0.6918  0.7220  0.1460
13290TIP3    H161361   5.218   5.365  15.541  1.8604  0.6442 -0.6405
13290TIP3    H261362   5.141   5.480  15.479 -0.9134 -0.8659 -0.1457
13291TIP3   OH261363   3.201   6.762  14.442  0.3419  0.7175  0.2150
13291TIP3    H161364   3.162   6.848  14.426 -1.3830 -0.2639 -1.1625
13291TIP3    H261365   3.230   6.732  14.356  0.6110 -0.2341  0.6223
13292TIP3   OH261366   5.711   3.720  16.763  0.4908  0.4396  0.5360
13292TIP3    H161367   5.741   3.752  16.848  1.7194 -1.2376  0.7697
13292TIP3    H261368   5.786   3.673  16.726  0.0644  1.2663 -1.5789
13293TIP3   OH261369   0.622   0.147  16.609 -0.0427 -0.0027 -0.2484
13293TIP3    H161370   0.613   0.053  16.626  1.3607  0.1264  1.4744
13293TIP3    H261371   0.714   0.166  16.626  0.0656  1.4352 -2.1178
13294TIP3   OH261372   5.996   4.871  15.102 -0.0755 -0.5166  0.0052
13294TIP3    H161373   5.933   4.807  15.133 -0.2493  0.1410  1.0691
13294TIP3    H261374   6.081   4.830  15.116 -0.2297 -0.9979 -0.4697
13295TIP3   OH261375   5.395   3.068  16.229  0.2795  0.8416  0.2398
13295TIP3    H161376   5.433   3.101  16.310  0.0821 -2.8529  2.0312
13295TIP3    H261377   5.301   3.070  16.243  0.1607  1.6182 -0.5722
13296TIP3   OH261378   5.486   3.278  12.989  0.0293  0.4956 -0.7391
13296TIP3    H161379   5.526   3.272  12.903 -0.5546 -0.4146 -0.9548
13296TIP3    H261380   5.522   3.204  13.039  0.1728  0.8684 -0.2730
13297TIP3   OH261381   1.514   6.414  12.866 -0.0268  0.3839  0.4778
13297TIP3    H161382   1.553   6.415  12.953  0.4694 -0.9840  0.2979
13297TIP3    H261383   1.524   6.503  12.833 -0.7066  1.0565  2.0186
13298TIP3   OH261384   6.535   5.123   1.771 -0.0437 -0.0772  0.1478
13298TIP3    H161385   6.547   5.218   1.762 -0.0062  0.0679  1.4698
13298TIP3    H261386   6.543   5.089   1.682  1.5107  0.9908 -0.1629
13299TIP3   OH261387   3.126   4.813  13.015  0.4210  0.2209 -0.0187
13299TIP3    H161388   3.172   4.886  13.056 -0.4045  0.3241  0.7378
13299TIP3    H261389   3.103   4.755  13.087  1.1051 -0.8269 -0.6122
13300TIP3   OH261390   0.137   4.680   3.795 -0.0201  0.5724 -0.8240
13300TIP3    H161391   0.172   4.670   3.707 -2.1343  1.0117 -1.7965
13300TIP3    H261392   0.062   4.620   3.798  0.0903  0.4808  0.7167
13301TIP3   OH261393   5.113   3.582   1.631 -0.6834  0.3883  0.4174
13301TIP3    H161394   5.138   3.670   1.604 -0.9861  0.3385 -0.0252
13301TIP3    H261395   5.184   3.527   1.599 -1.7844  0.1151 -1.7095
13302TIP3   OH261396   2.427   1.148   5.775  0.1892  0.3854 -0.3029
13302TIP3    H161397   2.487   1.182   5.708  0.8843  0.5619  0.4034
13302TIP3    H261398   2.475   1.157   5.857 -0.2286 -0.8612  0.0965
13303TIP3   OH261399   2.824   6.665  16.942 -0.2900  0.2792  0.8060
13303TIP3    H161400   2.902   6.713  16.914 -1.9352  2.1784 -0.8082
13303TIP3    H261401   2.800   6.612  16.866 -2.2232  2.0510  0.0544
13304TIP3   OH261402   5.266   0.109  17.163  0.4210 -0.5164 -0.3485
13304TIP3    H161403   5.281   0.029  17.214  0.8903 -0.1015  0.1759
13304TIP3    H261404   5.176   0.134  17.185  0.8935  0.1134  0.9346
13305TIP3   OH261405   2.777   1.571   0.383  0.2975  0.1120 -0.3248
13305TIP3    H161406   2.827   1.650   0.401  0.1295  0.2268 -0.3672
13305TIP3    H261407   2.777   1.564   0.287 -2.0194  1.5663 -0.4963
13306TIP3   OH261408   0.718   2.820   5.700 -0.0718  0.8399  0.0654
13306TIP3    H161409   0.772   2.742   5.683 -0.0814  0.4213  1.7818
13306TIP3    H261410   0.722   2.831   5.795 -2.9118  0.8711  0.2615
13307TIP3   OH261411   4.691   1.219  12.759 -0.0821 -0.0031  0.4576
13307TIP3    H161412   4.647   1.243  12.841  0.0834  1.3381  0.1898
13307TIP3    H261413   4.765   1.165  12.786  0.0378  0.5200  1.2154
13308TIP3   OH261414   5.592   3.633  11.573 -0.1945 -0.1042  0.5999
13308TIP3    H161415   5.528   3.631  11.502  0.3395 -0.2743  0.1174
13308TIP3    H261416   5.674   3.604  11.533 -0.5653 -3.4340  1.9797
13309TIP3   OH261417   1.220   4.934  15.904  0.4704  0.2394 -0.1211
13309TIP3    H161418   1.291   4.982  15.861 -0.6265  2.2420  0.1312
13309TIP3    H261419   1.239   4.842  15.887  2.1335  0.7859 -1.5846
13310TIP3   OH261420   4.382   3.247   0.255 -0.2993  0.1258  0.5786
13310TIP3    H161421   4.465   3.254   0.301  0.1120  0.8907 -0.2377
13310TIP3    H261422   4.344   3.165   0.286  2.1251 -1.8247 -1.2059
13311TIP3   OH261423   3.137   6.359  11.579  0.0257  0.5606 -0.7266
13311TIP3    H161424   3.185   6.375  11.498  0.7978 -0.7120 -0.5402
13311TIP3    H261425   3.175   6.419  11.642  0.0596  0.8984 -1.0678
13312TIP3   OH261426   4.413   4.856  15.556  0.4618 -0.0422 -0.3458
13312TIP3    H161427   4.325   4.847  15.520 -0.1030  2.8272  0.0923
13312TIP3    H261428   4.470   4.859  15.479 -0.3817  2.6933 -0.9593
13313TIP3   OH261429   1.136   4.650   4.211 -0.9471  0.3876 -0.3221
13313TIP3    H161430   1.199   4.686   4.274 -0.7435  1.6050 -1.2032
13313TIP3    H261431   1.052   4.687   4.237 -1.0082  0.1904 -0.2375
13314TIP3   OH261432   0.682   6.265   1.929  0.0512 -0.1670 -0.0794
13314TIP3    H161433   0.676   6.360   1.929 -0.6055 -0.1964 -0.6101
13314TIP3    H261434   0.680   6.240   2.021  0.5961  0.3478  0.0772
13315TIP3   OH261435   4.810   0.820   1.527  0.7907 -0.0079 -0.0349
13315TIP3    H161436   4.765   0.779   1.452  0.7075  1.1692 -0.6477
13315TIP3    H261437   4.749   0.810   1.600  0.0996  0.3873 -0.5493
13316TIP3   OH261438   4.728   5.478  12.518 -0.4844  0.5928  0.1243
13316TIP3    H161439   4.654   5.529  12.550 -1.3307 -0.0503 -0.7176
13316TIP3    H261440   4.689   5.395  12.489  0.4282  0.5675 -1.1335
13317TIP3   OH261441   6.606   0.761   4.240  0.6797  0.4855 -0.1715
13317TIP3    H161442   6.664   0.702   4.192 -0.6947 -0.4611 -0.7167
13317TIP3    H261443   6.588   0.716   4.322 -0.1931  0.2263 -0.4941
13318TIP3   OH261444   0.291   4.274  15.239  0.6344  0.2674 -1.0580
13318TIP3    H161445   0.385   4.279  15.255  0.7356 -1.1316 -1.0973
13318TIP3    H261446   0.283   4.223  15.159 -0.1690 -0.1248 -0.7426
13319TIP3   OH261447   0.517   0.025   5.375  0.0135  0.0709  0.5484
13319TIP3    H161448   0.478   0.103   5.337 -1.1479 -1.1048 -0.7762
13319TIP3    H261449   0.565   0.057   5.452 -1.8644  1.8396  1.0598
13320TIP3   OH261450   0.255   4.129   2.030 -1.1035 -0.1783 -0.3993
13320TIP3    H161451   0.300   4.214   2.027 -0.8170 -0.2618  1.0381
13320TIP3    H261452   0.199   4.134   2.107  0.9826 -2.2687  1.3711
13321TIP3   OH261453   0.693   0.751   5.440 -0.4864  0.0476  0.4618
13321TIP3    H161454   0.682   0.841   5.410  2.3436  0.1491 -0.6095
13321TIP3    H261455   0.753   0.712   5.376  0.6477 -1.7275  2.4820
13322TIP3   OH261456   4.425   1.696  17.163  0.0838  0.4456 -0.4351
13322TIP3    H161457   4.351   1.757  17.161 -1.1325 -1.0034 -1.4577
13322TIP3    H261458   4.408   1.635  17.092  1.9282 -0.3592 -0.2479
13323TIP3   OH261459   0.069   5.984   3.557 -0.1961  0.3843  0.4720
13323TIP3    H161460   0.144   5.926   3.564  1.1866  2.2560  2.2497
13323TIP3    H261461   0.058   6.020   3.645 -2.1643  1.4080 -0.1271
13324TIP3   OH261462   3.891   2.581   0.859  0.8692 -0.2245  0.2387
13324TIP3    H161463   3.810   2.550   0.817  0.9242 -0.1766  0.0947
13324TIP3    H261464   3.951   2.507   0.853  0.7962 -0.3022  0.4564
13325TIP3   OH261465   5.865   4.596   1.709  0.1654  0.1987 -0.6977
13325TIP3    H161466   5.850   4.506   1.737  2.5814 -0.1167 -0.1579
13325TIP3    H261467   5.906   4.586   1.622 -0.0056  0.7880 -0.8446
13326TIP3   OH261468   4.203   5.243   1.137  0.0078  0.3240 -0.0780
13326TIP3    H161469   4.113   5.209   1.144 -0.5001  1.8698  1.6062
13326TIP3    H261470   4.201   5.326   1.183  2.5162  0.0489  0.6674
13327TIP3   OH261471   0.964   3.697   2.706 -0.8746  0.2889  0.2813
13327TIP3    H161472   0.985   3.789   2.694  0.0621 -0.0839 -1.1738
13327TIP3    H261473   1.016   3.651   2.640 -1.1045 -1.3143  1.1475
13328TIP3   OH261474   1.942   3.924  11.402 -0.2516 -0.0075 -0.6310
13328TIP3    H161475   1.880   3.908  11.331 -0.0178 -2.5258 -0.3408
13328TIP3    H261476   1.932   4.017  11.422 -4.0448 -0.2818 -0.4972
13329TIP3   OH261477   1.222   1.284   1.210 -0.2819  0.8315 -0.0399
13329TIP3    H161478   1.274   1.341   1.266  0.0804  1.7000 -1.2084
13329TIP3    H261479   1.133   1.290   1.245 -0.0415  1.2631  0.5035
13330TIP3   OH261480   6.392   0.262  16.090 -0.5974  0.2510  0.3870
13330TIP3    H161481   6.322   0.322  16.113 -0.9226  0.5723 -1.2987
13330TIP3    H261482   6.472   0.307  16.117 -0.9982 -0.2698  2.6366
13331TIP3   OH261483   2.844   4.829   3.009  0.0991  0.4954 -0.1260
13331TIP3    H161484   2.894   4.762   3.055  1.9195  0.8984 -1.4396
13331TIP3    H261485   2.900   4.907   3.010 -1.2538  1.5160 -0.1119
13332TIP3   OH261486   4.362   2.966  17.231 -0.4211  0.2973 -0.1964
13332TIP3    H161487   4.430   3.032  17.220 -1.2718  0.9371 -2.1167
13332TIP3    H261488   4.384   2.922  17.313  1.5700  1.3055 -0.1281
13333TIP3   OH261489   6.507   2.379   5.621  0.7544  0.2691  0.1514
13333TIP3    H161490   6.417   2.408   5.633 -0.4065 -2.6796 -0.6001
13333TIP3    H261491   6.526   2.398   5.529 -0.2320 -1.6626 -0.5194
13334TIP3   OH261492   0.733   4.686   0.995  0.5001  0.1164  0.1272
13334TIP3    H161493   0.759   4.625   1.064  0.8738  1.7613  1.5222
13334TIP3    H261494   0.643   4.661   0.974 -0.5539  1.0605  3.0266
13335TIP3   OH261495   4.186   6.172   2.186  0.5631 -0.8409  0.4220
13335TIP3    H161496   4.151   6.214   2.107  0.5689 -0.9904  0.3397
13335TIP3    H261497   4.190   6.079   2.164  1.3790 -0.7877  0.2911
13336TIP3   OH261498   6.442   3.835   3.184  0.5863 -0.0843 -0.1682
13336TIP3    H161499   6.421   3.878   3.101 -0.2967 -0.0912  0.0448
13336TIP3    H261500   6.524   3.876   3.211  1.2645 -0.5813 -1.3831
13337TIP3   OH261501   4.758   3.417   1.328 -0.2622  0.0304  0.1363
13337TIP3    H161502   4.840   3.465   1.336 -0.7544  0.9502 -0.0938
13337TIP3    H261503   4.711   3.437   1.409 -0.5904  0.1903 -0.0884
13338TIP3   OH261504   3.156   5.988  15.426  0.1753 -0.6429 -0.3030
13338TIP3    H161505   3.098   5.923  15.464  0.1135  0.4252  1.5856
13338TIP3    H261506   3.107   6.025  15.352 -0.5952 -1.3362 -0.1472
13339TIP3   OH261507   3.466   1.456   2.135  0.0903  0.5345 -0.9020
13339TIP3    H161508   3.412   1.381   2.110 -1.7393  0.8283  1.7685
13339TIP3    H261509   3.524   1.469   2.060 -2.2585 -1.0032 -3.1841
13340TIP3   OH261510   1.567   2.631   1.703 -0.3336  0.5994  0.0148
13340TIP3    H161511   1.612   2.547   1.705  0.6331  1.1210  0.7998
13340TIP3    H261512   1.474   2.608   1.698 -0.1362 -0.5343  1.0086
13341TIP3   OH261513   3.798   0.062   4.628 -0.0303 -0.2328  0.1833
13341TIP3    H161514   3.752  -0.017   4.658  0.1217 -0.6778 -0.7016
13341TIP3    H261515   3.785   0.126   4.698 -1.0625 -0.7066  0.4439
13342TIP3   OH261516   0.548   0.945   3.659 -0.2208 -0.2239  0.3346
13342TIP3    H161517   0.601   0.963   3.581  0.0071 -0.2214  0.4907
13342TIP3    H261518   0.541   1.030   3.703  0.1834 -0.3481  0.6495
13343TIP3   OH261519   3.723   0.088   3.834 -0.1680 -0.5776  0.3494
13343TIP3    H161520   3.682   0.162   3.788 -0.1509  0.3344  1.7509
13343TIP3    H261521   3.666   0.013   3.815 -0.2895 -0.1913 -0.9394
13344TIP3   OH261522   1.476   6.039  12.387 -0.4648  0.6746  0.5903
13344TIP3    H161523   1.469   6.073  12.476 -2.0599  2.6083 -0.2097
13344TIP3    H261524   1.502   6.114  12.334 -2.5344  0.3472 -1.0113
13345TIP3   OH261525   2.296   2.506  13.629 -0.0405 -0.6544  0.1434
13345TIP3    H161526   2.290   2.461  13.545  1.2660  0.8036 -0.7589
13345TIP3    H261527   2.386   2.493  13.658 -0.5230 -1.3160  1.4497
13346TIP3   OH261528   6.478   6.136   4.934  0.4266  0.2384  0.1891
13346TIP3    H161529   6.483   6.225   4.901 -0.4711  0.5482  0.8678
13346TIP3    H261530   6.484   6.145   5.029  3.1466 -0.6449  0.1912
13347TIP3   OH261531   2.248   3.904  15.877  0.4526  0.1923  0.2248
13347TIP3    H161532   2.241   3.878  15.786  2.6531  0.5268 -0.0889
13347TIP3    H261533   2.174   3.861  15.920  1.3581 -2.9357 -1.0574
13348TIP3   OH261534   0.088   2.808   5.088  0.3168  0.1861 -0.1002
13348TIP3    H161535   0.094   2.749   5.163 -0.0390  2.1615  1.5797
13348TIP3    H261536  -0.006   2.823   5.077  0.4424  2.0898  0.9510
13349TIP3   OH261537   3.002   4.708  14.702  0.3673  0.9386 -0.2059
13349TIP3    H161538   3.090   4.679  14.726 -0.2143 -0.1583  0.7320
13349TIP3    H261539   3.008   4.730  14.609  1.5357  0.5137 -0.2430
13350TIP3   OH261540   0.247   4.193  12.323  0.8991 -0.7603 -0.1816
13350TIP3    H161541   0.205   4.279  12.310  1.8788  0.0885  1.8811
13350TIP3    H261542   0.327   4.198  12.272  1.2560 -0.1897  0.4177
13351TIP3   OH261543   6.126   5.656   2.779  0.4319 -0.3951 -0.1683
13351TIP3    H161544   6.088   5.743   2.766  1.7445  0.0680 -1.1224
13351TIP3    H261545   6.217   5.674   2.803  1.4632 -1.4790 -2.8839
13352TIP3   OH261546   2.789   6.486  11.009  0.4535  0.4958 -0.2318
13352TIP3    H161547   2.779   6.581  11.008  0.2830  0.5047  0.7260
13352TIP3    H261548   2.753   6.456  10.926 -1.4067  1.1036  0.3099
13353TIP3   OH261549   0.059   2.599  12.103  0.5164  0.5304 -0.4201
13353TIP3    H161550   0.026   2.678  12.146  0.8150 -0.6352  2.1387
13353TIP3    H261551   0.021   2.602  12.015 -1.3592  2.3445  0.3637
13354TIP3   OH261552   3.671   3.104  15.442  0.1515 -0.1364 -0.3748
13354TIP3    H161553   3.763   3.113  15.467 -0.5336  0.0515  2.3573
13354TIP3    H261554   3.635   3.192  15.451 -1.1324 -0.8411  2.6283
13355TIP3   OH261555   2.873   5.529  11.806 -0.3181  0.4099 -0.1014
13355TIP3    H161556   2.788   5.570  11.821 -1.7441 -2.3797  0.1939
13355TIP3    H261557   2.933   5.575  11.865 -2.0277  1.2426  1.0656
13356TIP3   OH261558   1.246   4.042  14.131  0.3545 -0.4434  0.0113
13356TIP3    H161559   1.302   3.993  14.191  0.2201 -1.7212 -0.8804
13356TIP3    H261560   1.272   4.012  14.044  1.4114  2.2562 -0.7254
13357TIP3   OH261561   6.083   6.075  11.716 -0.7569  0.3572  0.5850
13357TIP3    H161562   6.116   6.160  11.744  0.7301 -0.4124  1.3172
13357TIP3    H261563   6.097   6.074  11.621  0.8609  0.2956  0.7967
13358TIP3   OH261564   0.291   0.078  13.506 -0.1295  0.6822 -0.7470
13358TIP3    H161565   0.306   0.170  13.483  0.5401  0.5179 -1.0056
13358TIP3    H261566   0.246   0.081  13.590  1.8540  1.2362  0.3645
13359TIP3   OH261567   2.716   4.756   2.028  0.4407  0.1448 -0.3731
13359TIP3    H161568   2.655   4.788   1.962  0.4262 -1.1825 -1.0397
13359TIP3    H261569   2.674   4.777   2.111  0.4828  1.8910 -0.7598
13360TIP3   OH261570   0.725   3.615  14.288 -0.4181 -0.0718 -0.2311
13360TIP3    H161571   0.653   3.568  14.331 -0.9035  1.6317  0.8968
13360TIP3    H261572   0.804   3.572  14.322 -0.8519 -0.5750  0.1752
13361TIP3   OH261573   5.100   0.953   0.747  0.0207 -0.9558 -0.3567
13361TIP3    H161574   5.154   1.013   0.798 -1.9359 -0.7817  1.7004
13361TIP3    H261575   5.152   0.873   0.740  1.3087 -0.1500 -0.2169
13362TIP3   OH261576   6.456   3.071   5.016  0.6950  0.4287 -0.3321
13362TIP3    H161577   6.504   2.990   5.033  1.4604  1.1616  1.1625
13362TIP3    H261578   6.433   3.066   4.923 -1.1328 -2.4734  0.1607
13363TIP3   OH261579   5.325   4.153   4.606  0.0594 -0.3965 -0.3036
13363TIP3    H161580   5.366   4.225   4.654  0.2576  0.2734 -1.4384
13363TIP3    H261581   5.237   4.148   4.642  1.1282 -2.0234  2.3616
13364TIP3   OH261582   2.645   0.376   5.688  0.0925 -0.0426  0.3584
13364TIP3    H161583   2.729   0.420   5.675  0.2581 -0.3765  0.2697
13364TIP3    H261584   2.614   0.357   5.599  0.1687 -0.3716  0.3986
13365TIP3   OH261585   3.666   4.931  15.321  0.6088  0.2202  0.4987
13365TIP3    H161586   3.744   4.979  15.350  1.2397 -0.5206  0.0766
13365TIP3    H261587   3.649   4.867  15.391  0.2844  0.4811  0.6607
13366TIP3   OH261588   1.622   3.534   6.735  0.1444  0.3088  0.7076
13366TIP3    H161589   1.705   3.548   6.779  2.1895 -3.4464 -1.4085
13366TIP3    H261590   1.634   3.572   6.648  0.0685 -1.0577  0.0749
13367TIP3   OH261591   4.497   0.009   6.164 -0.4786  0.3240  0.1566
13367TIP3    H161592   4.588  -0.013   6.142  0.5567  1.9463  2.4481
13367TIP3    H261593   4.498   0.104   6.174 -2.6789  0.4704 -0.5916
13368TIP3   OH261594   4.544   6.564  14.675  0.5894 -1.2367  0.2493
13368TIP3    H161595   4.502   6.533  14.595  1.5676 -0.9534 -0.3936
13368TIP3    H261596   4.471   6.594  14.730 -0.0951 -1.3582 -0.5684
13369TIP3   OH261597   1.739   0.468  12.907 -0.5902  0.1436  0.2568
13369TIP3    H161598   1.675   0.496  12.841 -0.3129 -1.1751 -0.6029
13369TIP3    H261599   1.692   0.403  12.959 -0.3330  0.0986  0.4342
13370TIP3   OH261600   4.802   0.105   3.392 -0.4404  0.4221  0.1094
13370TIP3    H161601   4.891   0.106   3.359  0.1177 -1.4516  1.3701
13370TIP3    H261602   4.802   0.166   3.465  0.2685 -0.7037  1.0837
13371TIP3   OH261603   2.508   1.021  14.877  0.3939  0.2920 -0.3263
13371TIP3    H161604   2.542   0.932  14.884 -0.2414  0.0577 -0.1221
13371TIP3    H261605   2.487   1.045  14.967 -2.2296 -0.4820 -0.6623
13372TIP3   OH261606   5.954   1.248  15.616  0.1090 -0.5828  0.7232
13372TIP3    H161607   5.862   1.251  15.641  0.1581  0.3643  0.8102
13372TIP3    H261608   5.964   1.318  15.551  1.3413  1.2115  2.7058
13373TIP3   OH261609   4.983   6.523   0.279 -0.0636 -0.2164  0.3052
13373TIP3    H161610   4.935   6.565   0.351 -1.0794  0.3385 -0.6634
13373TIP3    H261611   4.968   6.581   0.204  1.2790 -0.5902 -0.2812
13374TIP3   OH261612   5.906   2.861  14.092 -0.3870  0.2435  0.4116
13374TIP3    H161613   5.887   2.841  14.184 -0.7354 -0.8030  0.1247
13374TIP3    H261614   6.001   2.858  14.086 -0.4023 -0.7198  0.5223
13375TIP3   OH261615   6.111   3.301   3.286 -0.3220 -0.2514  0.1421
13375TIP3    H161616   6.144   3.214   3.312  3.0687  1.3522  1.8823
13375TIP3    H261617   6.058   3.330   3.359  0.1556 -0.1016  0.4322
13376TIP3   OH261618   3.561   0.804  10.960  0.7820  0.1383 -0.3165
13376TIP3    H161619   3.477   0.845  10.940  0.0092  0.7554  3.3281
13376TIP3    H261620   3.625   0.874  10.950  0.1080  1.0788  1.3811
13377TIP3   OH261621   0.815   1.560  14.972  0.0027  0.1205  0.3155
13377TIP3    H161622   0.757   1.510  14.915  1.1684 -0.7492 -0.1515
13377TIP3    H261623   0.903   1.528  14.951  0.4945 -0.1504  2.5127
13378TIP3   OH261624   2.894   2.088   1.606 -0.2668 -0.5436  0.4336
13378TIP3    H161625   2.876   2.092   1.512  1.2530  0.9084  0.1445
13378TIP3    H261626   2.851   2.008   1.636  1.3524 -2.4825 -2.0048
13379TIP3   OH261627   3.716   5.150   6.257  0.1016 -0.1537  0.6655
13379TIP3    H161628   3.802   5.178   6.225  0.2110 -1.4980 -0.3298
13379TIP3    H261629   3.657   5.223   6.236  0.9019  0.5832  0.9288
13380TIP3   OH261630   4.613   5.157   3.296 -0.1046  0.2430  0.5951
13380TIP3    H161631   4.591   5.066   3.316 -1.7665  0.6383  0.7531
13380TIP3    H261632   4.676   5.181   3.364  2.9698 -1.6897 -1.3416
13381TIP3   OH261633   5.884   1.949  12.613  0.2106  0.7286 -0.2856
13381TIP3    H161634   5.839   2.033  12.604 -1.3887  0.1036  1.4068
13381TIP3    H261635   5.964   1.969  12.662 -0.5886  1.1602  0.8781
13382TIP3   OH261636   5.933   5.356  11.353  0.0963  0.1514 -0.6394
13382TIP3    H161637   5.925   5.451  11.339 -0.0920  0.5532  1.7087
13382TIP3    H261638   5.867   5.337  11.420  1.1760 -1.3414  0.0476
13383TIP3   OH261639   2.138   2.177  12.155 -0.4167  0.3954 -0.1258
13383TIP3    H161640   2.120   2.153  12.246  1.1802  0.0237  0.1296
13383TIP3    H261641   2.058   2.219  12.125 -1.1751  0.0254  1.2799
13384TIP3   OH261642   1.875   2.893   4.033 -0.1864  0.0871 -0.3060
13384TIP3    H161643   1.814   2.822   4.050  1.2721 -1.4115 -1.1304
13384TIP3    H261644   1.920   2.907   4.117 -0.5409  0.1003 -0.1183
13385TIP3   OH261645   1.098   3.187  13.181 -0.0289  0.6513  0.7388
13385TIP3    H161646   1.099   3.148  13.094 -0.6033 -0.8266  1.3672
13385TIP3    H261647   1.182   3.161  13.219  1.2161  3.1290 -0.0944
13386TIP3   OH261648   4.624   4.499  14.359  0.5426 -0.1226 -0.0956
13386TIP3    H161649   4.695   4.562  14.354  0.7382  0.0523  3.0332
13386TIP3    H261650   4.641   4.438  14.287  2.1387  1.5497 -1.2357
13387TIP3   OH261651   0.507   1.947   1.236 -0.3296 -0.1427 -0.7617
13387TIP3    H161652   0.421   1.951   1.277 -0.7166  0.1551 -1.5827
13387TIP3    H261653   0.499   1.879   1.169  0.3106 -0.6672 -0.3277
13388TIP3   OH261654   5.800   0.534   5.911  0.1330 -0.3522  0.3232
13388TIP3    H161655   5.726   0.537   5.972 -0.1358 -0.6988  0.0212
13388TIP3    H261656   5.759   0.528   5.825  0.5098 -1.6168  0.2192
13389TIP3   OH261657   3.468   4.272  14.150  0.0479  0.7396  0.5930
13389TIP3    H161658   3.479   4.177  14.158 -1.8734  0.3662 -0.6273
13389TIP3    H261659   3.527   4.297  14.079  0.0816  0.3582  0.4842
13390TIP3   OH261660   3.863   1.660  15.684 -0.5723  0.0042  0.2173
13390TIP3    H161661   3.818   1.726  15.735 -2.1809 -0.9588  0.0965
13390TIP3    H261662   3.947   1.700  15.662 -0.9702  1.4766  1.2552
13391TIP3   OH261663   4.318   6.724   2.315  0.3951 -0.1145 -0.1318
13391TIP3    H161664   4.241   6.697   2.264 -0.6814 -1.0149  1.8659
13391TIP3    H261665   4.387   6.664   2.288 -0.6710 -1.7966  0.7672
13392TIP3   OH261666   3.391   5.825  15.420  0.1049 -0.0223 -0.1451
13392TIP3    H161667   3.330   5.757  15.392 -1.2885  0.9754  0.3818
13392TIP3    H261668   3.340   5.883  15.476  1.3563  1.2493 -0.2409
13393TIP3   OH261669   2.051   0.667   3.440  0.0782  0.1166  0.2168
13393TIP3    H161670   2.027   0.591   3.492 -0.2922 -0.2725 -0.5151
13393TIP3    H261671   2.133   0.698   3.479 -0.4079  0.0897  1.2943
13394TIP3   OH261672   2.827   0.577   1.382  0.1126  0.3072 -0.1058
13394TIP3    H161673   2.908   0.536   1.352  0.2532  1.5879 -1.5812
13394TIP3    H261674   2.856   0.659   1.424 -0.3793  0.5666 -0.2617
13395TIP3   OH261675   1.218   4.628   3.408 -0.1547 -0.7957  0.7693
13395TIP3    H161676   1.158   4.665   3.343  0.9296 -0.4604 -0.0612
13395TIP3    H261677   1.237   4.540   3.376  0.1341 -0.7474  0.8044
13396TIP3   OH261678   2.747   3.813   1.144 -0.4555  0.4706  0.5013
13396TIP3    H161679   2.723   3.891   1.095  0.5590  0.2040 -0.4604
13396TIP3    H261680   2.789   3.756   1.079  2.7190  0.8937  2.0093
13397TIP3   OH261681   1.970   0.848  11.190  0.0135  0.2394  0.3871
13397TIP3    H161682   1.928   0.890  11.116  0.4819 -0.6265 -0.3958
13397TIP3    H261683   1.956   0.754  11.176  2.7208 -0.1602 -0.2855
13398TIP3   OH261684   2.917   4.410   6.113  0.2461 -0.0788  0.1105
13398TIP3    H161685   2.902   4.465   6.037  0.6550 -2.1913 -1.5799
13398TIP3    H261686   2.848   4.343   6.109 -0.0550  0.0661  1.9179
13399TIP3   OH261687   3.458   2.408  15.177 -0.0275 -0.6210 -0.3733
13399TIP3    H161688   3.418   2.404  15.263  0.3121  1.3764 -0.0711
13399TIP3    H261689   3.545   2.369  15.188  0.8001  1.4080  0.7272
13400TIP3   OH261690   5.068   3.994   5.164 -0.2488 -0.7382  0.4882
13400TIP3    H161691   5.110   4.035   5.088 -0.2460  1.3460  1.5457
13400TIP3    H261692   5.129   4.011   5.236 -2.1880  1.2117  1.8042
13401TIP3   OH261693   1.026   5.697   2.133 -0.1439 -0.4045 -0.2950
13401TIP3    H161694   1.007   5.780   2.176 -0.8205  0.5367 -2.3248
13401TIP3    H261695   1.051   5.639   2.205 -2.2389  0.7737  1.5039
13402TIP3   OH261696   6.345   1.477  15.995 -0.3565  0.2575 -0.3765
13402TIP3    H161697   6.390   1.407  16.042 -0.4690 -0.0195 -0.6766
13402TIP3    H261698   6.369   1.463  15.903 -0.0576  0.8489 -0.3991
13403TIP3   OH261699   0.886   3.350   3.121 -0.1429  0.2140 -0.5194
13403TIP3    H161700   0.862   3.288   3.190  1.5912  0.0801  0.0231
13403TIP3    H261701   0.887   3.435   3.165  0.3483  0.2148 -0.5291
13404TIP3   OH261702   3.891   1.822   2.693  0.9317  0.0058  0.4497
13404TIP3    H161703   3.986   1.816   2.695  1.0985  1.3685 -1.1127
13404TIP3    H261704   3.863   1.739   2.654  1.4822 -0.2594  0.6015
13405TIP3   OH261705   1.808   2.650   4.164 -0.2116  0.0372  0.3349
13405TIP3    H161706   1.895   2.615   4.183 -0.1181  0.1142  0.0470
13405TIP3    H261707   1.763   2.648   4.249  0.1000  0.0821  0.5048
13406TIP3   OH261708   2.248   0.065   2.094 -0.3190  0.3956  0.3157
13406TIP3    H161709   2.265   0.116   2.173  1.8409  0.8103 -0.3495
13406TIP3    H261710   2.182   0.000   2.120  0.6844  0.2205  2.5885
13407TIP3   OH261711   0.291   5.389  13.151  0.5639  0.2932 -0.1610
13407TIP3    H161712   0.239   5.421  13.224 -0.3267 -0.0530 -0.6190
13407TIP3    H261713   0.249   5.426  13.073  0.8671 -0.1684 -0.5556
13408TIP3   OH261714   2.504   5.581   2.723 -0.4004  0.5271 -0.2772
13408TIP3    H161715   2.502   5.507   2.662 -0.7047 -0.0364  0.4084
13408TIP3    H261716   2.597   5.607   2.726 -0.5479  1.5188 -2.0820
13409TIP3   OH261717   0.537   6.804  13.982  0.0729  0.2510  0.0403
13409TIP3    H161718   0.597   6.826  13.910  0.5754 -1.0987  0.0069
13409TIP3    H261719   0.466   6.756  13.939  1.5586 -2.7331  0.6286
13410TIP3   OH261720   4.446   0.325   6.325  0.6105  0.9455 -0.2519
13410TIP3    H161721   4.487   0.280   6.252 -0.8070 -0.7130 -0.0861
13410TIP3    H261722   4.475   0.416   6.316  3.5253  0.0811 -0.6254
13411TIP3   OH261723   0.804   5.620  14.119 -0.6542  0.5002 -0.3167
13411TIP3    H161724   0.864   5.617  14.044 -0.2785 -0.9785 -0.0004
13411TIP3    H261725   0.858   5.646  14.193 -0.6769  0.3993 -0.2644
13412TIP3   OH261726   3.054   2.441  12.468 -0.2029  0.1352 -0.3442
13412TIP3    H161727   3.123   2.499  12.500 -1.7141  2.0030 -0.2516
13412TIP3    H261728   3.066   2.438  12.373  0.1556  0.2300 -0.3016
13413TIP3   OH261729   3.225   3.605   2.408 -0.0745 -0.2329 -0.2472
13413TIP3    H161730   3.150   3.659   2.432 -0.3426  0.0994 -1.7745
13413TIP3    H261731   3.188   3.520   2.387  0.0612 -0.2649 -0.3569
13414TIP3   OH261732   3.253   0.764   5.715 -0.0437 -0.2552 -0.4351
13414TIP3    H161733   3.276   0.699   5.781 -0.5576  0.5432  0.5583
13414TIP3    H261734   3.215   0.713   5.643  0.3805 -1.1194 -0.0582
13415TIP3   OH261735   1.249   3.212   6.247  0.4405  0.9198  0.2994
13415TIP3    H161736   1.257   3.151   6.173 -0.7320 -0.3243  1.1544
13415TIP3    H261737   1.332   3.260   6.246  1.4606 -0.7241 -0.3800
13416TIP3   OH261738   6.762   4.482   3.690  0.7758 -0.2374 -0.0151
13416TIP3    H161739   6.820   4.463   3.617  2.2273  2.5038  0.2528
13416TIP3    H261740   6.699   4.545   3.655  0.5394 -0.0562  0.7085
13417TIP3   OH261741   6.176   0.382  11.656  0.5715  0.0859  0.0467
13417TIP3    H161742   6.157   0.362  11.565 -1.0139 -1.5729  0.6810
13417TIP3    H261743   6.122   0.458  11.676 -0.2516 -0.4828  0.0059
13418TIP3   OH261744   0.444   6.274  16.807 -0.4943  0.5175  0.3181
13418TIP3    H161745   0.409   6.271  16.896  0.7068 -2.1510  0.8021
13418TIP3    H261746   0.425   6.363  16.776 -1.1976  1.4242  3.1005
13419TIP3   OH261747   3.974   6.508   0.325 -0.2793  0.4067 -0.4814
13419TIP3    H161748   4.023   6.446   0.270  0.6224 -1.1285  1.8922
13419TIP3    H261749   4.039   6.575   0.349  0.7446 -1.4288  2.3600
13420TIP3   OH261750   6.190   3.526  14.640 -0.1178 -0.1242 -0.5396
13420TIP3    H161751   6.141   3.454  14.599  0.5592 -1.1492  0.3902
13420TIP3    H261752   6.244   3.562  14.570  1.0288 -1.8593 -0.6061
13421TIP3   OH261753   1.203   5.330  11.243  0.4692  0.5758 -0.2079
13421TIP3    H161754   1.185   5.306  11.152  1.5475 -3.3577  0.4140
13421TIP3    H261755   1.297   5.347  11.245 -0.1443  5.1463 -0.4877
13422TIP3   OH261756   1.741   6.161  12.816  0.6786  0.0984  0.9237
13422TIP3    H161757   1.676   6.229  12.833  0.0075 -0.1732 -0.4646
13422TIP3    H261758   1.794   6.196  12.745  0.9546 -0.4205  0.8701
13423TIP3   OH261759   5.345   1.108  13.780  0.1067  0.2821 -0.4581
13423TIP3    H161760   5.253   1.136  13.787 -0.6087 -1.5668 -1.6471
13423TIP3    H261761   5.381   1.124  13.867 -0.5853  3.4235 -0.6447
13424TIP3   OH261762   1.012   0.858  16.554  0.0459 -0.2041 -0.0548
13424TIP3    H161763   0.990   0.860  16.461  2.0831  1.9729 -0.5910
13424TIP3    H261764   1.107   0.846  16.556 -0.0979 -1.5263  1.8250
13425TIP3   OH261765   0.688   6.308   5.164  0.2568 -0.2360 -0.4218
13425TIP3    H161766   0.767   6.354   5.193  0.2791  0.0852 -0.9883
13425TIP3    H261767   0.624   6.377   5.149 -0.3042 -0.5264  0.5117
13426TIP3   OH261768   3.582   6.141  11.471  0.2719 -0.1619  0.0316
13426TIP3    H161769   3.660   6.158  11.419  0.4877 -1.6209 -0.1457
13426TIP3    H261770   3.526   6.086  11.416 -1.0926  1.1884 -0.0058
13427TIP3   OH261771   3.948   0.808   2.644  0.3221  0.5978 -0.0845
13427TIP3    H161772   4.003   0.758   2.583  0.5853 -0.2050  0.7908
13427TIP3    H261773   3.985   0.896   2.642  1.3636  0.1833  0.1454
13428TIP3   OH261774   4.581   6.391  11.211  0.5275  0.5867 -0.2428
13428TIP3    H161775   4.558   6.306  11.249 -0.5077  0.7939 -0.3544
13428TIP3    H261776   4.676   6.388  11.200  0.2609 -1.7373 -3.0036
13429TIP3   OH261777   1.800   4.909  12.723  0.3402  0.5692 -0.6206
13429TIP3    H161778   1.740   4.981  12.743  1.7504  1.6337 -0.0806
13429TIP3    H261779   1.775   4.881  12.635 -0.3117  1.6550 -0.8005
13430TIP3   OH261780   4.681   0.186  13.371 -0.0136  0.1578  0.4304
13430TIP3    H161781   4.750   0.238  13.412  0.1896 -1.3237  2.1339
13430TIP3    H261782   4.628   0.154  13.445 -0.7407 -1.1666 -0.6094
13431TIP3   OH261783   4.969   3.291  13.471  0.5083 -0.4960 -0.3488
13431TIP3    H161784   4.885   3.246  13.468  0.2504 -0.0682  0.3499
13431TIP3    H261785   5.028   3.230  13.515  0.2021 -0.2284  0.4413
13432TIP3   OH261786   4.305   1.617  13.279 -0.2920  0.0019 -0.4934
13432TIP3    H161787   4.314   1.561  13.357 -0.1708  0.4990 -0.1490
13432TIP3    H261788   4.246   1.568  13.222  0.1869 -0.7035 -0.3984
13433TIP3   OH261789   0.471   4.493  12.196  0.3073  0.1645 -0.1124
13433TIP3    H161790   0.391   4.542  12.176  0.0659  0.2614  1.0340
13433TIP3    H261791   0.542   4.556  12.180  0.0915  0.4088 -0.1058
13434TIP3   OH261792   6.004   0.405  12.138 -0.1344  0.6184  0.6199
13434TIP3    H161793   6.003   0.321  12.093  0.4614 -0.6122  2.7246
13434TIP3    H261794   6.082   0.449  12.104  1.2572 -0.9765  1.5330
13435TIP3   OH261795   1.377   1.335   3.963 -0.3141 -0.1108  0.3334
13435TIP3    H161796   1.423   1.416   3.983  0.8615 -0.1550 -1.9258
13435TIP3    H261797   1.285   1.360   3.957  0.0419  1.0926 -0.4164
13436TIP3   OH261798   5.113   5.433  13.098  0.2436  0.7653 -0.3863
13436TIP3    H161799   5.151   5.404  13.014  1.5596 -2.2071  1.1059
13436TIP3    H261800   5.136   5.364  13.160  0.8425  3.6311  2.8814
13437TIP3   OH261801   4.778   1.964   4.903  0.3179  0.4397 -0.1167
13437TIP3    H161802   4.850   2.024   4.923 -0.3973  1.1554  0.4100
13437TIP3    H261803   4.700   2.020   4.902 -0.4947 -0.5850  1.2527
13438TIP3   OH261804   5.025   4.085   5.523 -0.2461 -0.4459 -0.2342
13438TIP3    H161805   4.986   4.056   5.605  0.5040 -1.9582 -0.3891
13438TIP3    H261806   5.075   4.010   5.492  1.5946  0.9414 -0.7808
13439TIP3   OH261807   6.653   6.367   3.045 -0.3085 -0.0735  0.2238
13439TIP3    H161808   6.701   6.420   2.981  1.6323 -0.6295  1.1512
13439TIP3    H261809   6.569   6.412   3.055  0.0022  0.9693 -1.4269
13440TIP3   OH261810   0.490   6.736   1.416  0.0362  0.0100  0.1610
13440TIP3    H161811   0.432   6.665   1.440  1.4845 -2.0082 -1.8052
13440TIP3    H261812   0.558   6.736   1.483 -1.4064  1.4500  1.6892
13441TIP3   OH261813   1.537   4.973  14.841 -0.6936  0.0118  0.4528
13441TIP3    H161814   1.545   4.984  14.936  1.1212  1.3640  0.2073
13441TIP3    H261815   1.517   5.060  14.808 -0.2378 -0.2195 -0.4820
13442TIP3   OH261816   5.008   1.273   4.118 -0.7037 -0.4557  0.0850
13442TIP3    H161817   5.021   1.317   4.034  0.1400  0.4101  0.6448
13442TIP3    H261818   5.085   1.297   4.169 -0.1107 -2.7901  0.3659
13443TIP3   OH261819   4.011   3.794   1.287 -0.1936  0.2521 -0.0768
13443TIP3    H161820   4.106   3.790   1.297 -0.0624  1.5371 -0.6821
13443TIP3    H261821   3.995   3.757   1.200 -0.3598 -0.9763  0.4624
13444TIP3   OH261822   4.509   5.657   3.493  0.1437  0.2433 -0.3250
13444TIP3    H161823   4.589   5.630   3.537 -0.0842 -0.0800 -0.0960
13444TIP3    H261824   4.448   5.585   3.509 -0.2040  0.5055 -0.4571
13445TIP3   OH261825   6.538   2.242  14.154 -0.3090 -0.4283 -0.4354
13445TIP3    H161826   6.614   2.247  14.097 -0.8024  0.5356 -1.0301
13445TIP3    H261827   6.482   2.176  14.114 -0.3958 -0.1622 -0.7530
13446TIP3   OH261828   0.833   2.635   6.506  0.4814  0.0716  0.0796
13446TIP3    H161829   0.756   2.688   6.486  1.0982  1.2393  0.6682
13446TIP3    H261830   0.809   2.546   6.480 -1.2989  0.2844  0.8866
13447TIP3   OH261831   5.597   3.819   0.756  0.3538  0.6190  0.0552
13447TIP3    H161832   5.581   3.756   0.686 -0.9139  0.6247  0.3175
13447TIP3    H261833   5.577   3.771   0.836 -1.4454  1.5815  0.2095
13448TIP3   OH261834   4.589   0.885   0.896 -0.5629 -0.1816  0.7353
13448TIP3    H161835   4.665   0.869   0.952 -0.2469  0.0023  0.3653
13448TIP3    H261836   4.529   0.813   0.915 -0.4706 -0.1062  1.3255
13449TIP3   OH261837   1.556   4.074   2.719  0.8062  0.0398 -0.1412
13449TIP3    H161838   1.480   4.131   2.706  1.4746  0.9322 -0.2399
13449TIP3    H261839   1.557   4.057   2.814  2.0410  2.3174  0.3341
13450TIP3   OH261840   0.112   2.881   4.703 -0.0317 -0.7354  0.0285
13450TIP3    H161841   0.030   2.832   4.708 -1.3460  1.3499  0.2127
13450TIP3    H261842   0.156   2.845   4.626 -2.6090  0.1230 -2.0176
13451TIP3   OH261843   2.686   2.806   5.072 -0.1877 -0.7291  0.1721
13451TIP3    H161844   2.605   2.825   5.120  0.5059  0.3257  0.9780
13451TIP3    H261845   2.687   2.711   5.063 -0.4146 -0.9667  2.1541
13452TIP3   OH261846   0.045   6.183   0.553  0.0072 -0.6635 -0.1192
13452TIP3    H161847   0.035   6.088   0.558  0.0588 -0.6720 -0.1649
13452TIP3    H261848   0.109   6.196   0.483  2.4620 -0.7653  1.9069
13453TIP3   OH261849   1.610   3.744   2.094  0.0809 -0.2053 -0.2638
13453TIP3    H161850   1.516   3.740   2.110  0.1569  0.0392  0.2893
13453TIP3    H261851   1.622   3.707   2.007 -0.6599  0.8194 -0.8159
13454TIP3   OH261852   4.453   2.539   5.837  0.3280  0.1441 -0.7942
13454TIP3    H161853   4.383   2.539   5.902  0.1739 -0.7787 -0.9483
13454TIP3    H261854   4.521   2.484   5.876  0.4163 -0.0519 -1.2246
13455TIP3   OH261855   6.075   1.163  16.799  0.0768 -0.6871 -0.3116
13455TIP3    H161856   5.994   1.113  16.787  0.6189 -1.3271 -1.4176
13455TIP3    H261857   6.046   1.249  16.828 -0.8573 -2.0089  3.3260
13456TIP3   OH261858   1.161   3.730   3.233  0.5498 -0.1757  0.6362
13456TIP3    H161859   1.242   3.705   3.187 -0.0440 -0.5903 -0.2247
13456TIP3    H261860   1.096   3.736   3.163 -0.1727  0.1120  1.3294
13457TIP3   OH261861   4.048   3.717  14.691  0.0621  0.3342  0.1067
13457TIP3    H161862   3.954   3.700  14.684  0.2914 -0.4909 -1.2998
13457TIP3    H261863   4.071   3.683  14.778 -0.8549  0.1451  0.2931
13458TIP3   OH261864   1.645   0.173  16.822  0.5431  0.2484 -0.3908
13458TIP3    H161865   1.686   0.243  16.874  1.8526 -0.0663 -0.9631
13458TIP3    H261866   1.685   0.180  16.736 -1.3639  0.5491 -1.3027
13459TIP3   OH261867   2.817   3.133   0.696  0.4164  0.2857 -0.3661
13459TIP3    H161868   2.890   3.089   0.652  1.3730  1.7076 -0.2832
13459TIP3    H261869   2.738   3.095   0.657  1.2202  0.6073 -2.4209
13460TIP3   OH261870   6.790   1.058  15.181  0.1490  0.3594 -0.0914
13460TIP3    H161871   6.767   1.046  15.274 -0.3727 -1.2860 -0.4064
13460TIP3    H261872   6.789   0.970  15.145 -0.2919  1.0525 -1.8324
13461TIP3   OH261873   0.182   3.047  13.071  0.2437  0.1394  0.3915
13461TIP3    H161874   0.142   3.134  13.081 -0.3177  0.0694 -0.9846
13461TIP3    H261875   0.266   3.054  13.118  0.0562  1.3197  0.5886
13462TIP3   OH261876   3.461   5.730   5.910 -0.6742  0.5860 -0.4537
13462TIP3    H161877   3.414   5.653   5.880 -0.2395 -0.2191  0.8580
13462TIP3    H261878   3.462   5.723   6.005  1.8356  0.7119 -0.4035
13463TIP3   OH261879   2.798   4.213   0.847  0.0289 -0.1544 -0.1204
13463TIP3    H161880   2.728   4.278   0.852 -0.2700 -0.5200  0.4904
13463TIP3    H261881   2.755   4.134   0.813  0.1821 -0.3149  0.0561
13464TIP3   OH261882   3.838   4.266  13.421 -0.1491  0.3162  0.2363
13464TIP3    H161883   3.901   4.225  13.361  0.0740  0.7440  0.1733
13464TIP3    H261884   3.881   4.263  13.506  0.7471  2.1940 -0.0938
13465TIP3   OH261885   2.197   4.556  13.065 -0.4022  0.2257  0.8534
13465TIP3    H161886   2.214   4.552  13.159  2.7024 -2.1609  0.3602
13465TIP3    H261887   2.274   4.600  13.029 -0.4343 -0.9562 -0.7548
13466TIP3   OH261888   5.161   6.564  12.707 -0.1710  0.8136 -0.1295
13466TIP3    H161889   5.154   6.629  12.636  0.0433  0.4257 -0.5113
13466TIP3    H261890   5.090   6.502  12.689  1.6983 -1.0085 -1.8160
13467TIP3   OH261891   4.932   1.024   4.818 -0.0054  0.1878  0.1162
13467TIP3    H161892   5.014   1.053   4.859  0.1368  0.3140 -0.2410
13467TIP3    H261893   4.957   1.008   4.726 -0.6194  1.3158 -0.2721
13468TIP3   OH261894   2.737   4.522  15.686 -0.2166  0.2183 -0.0044
13468TIP3    H161895   2.672   4.576  15.641 -0.8376 -0.8620 -0.4417
13468TIP3    H261896   2.717   4.533  15.779 -1.3206 -0.4406 -0.1487
13469TIP3   OH261897   5.295   0.462   1.905 -0.1355  0.0449 -0.2545
13469TIP3    H161898   5.377   0.441   1.860  1.6759  1.0439  2.3252
13469TIP3    H261899   5.285   0.392   1.969 -1.9892 -0.6738 -1.2480
13470TIP3   OH261900   3.541   1.914  15.574  0.1185  0.6151 -0.1521
13470TIP3    H161901   3.450   1.897  15.597  0.1721  1.2512  0.5755
13470TIP3    H261902   3.585   1.924  15.658  0.9046  0.1190 -0.4916
13471TIP3   OH261903   1.385   5.016  14.350  0.4558 -0.1454 -0.7709
13471TIP3    H161904   1.310   5.039  14.296  1.3713  1.9015 -1.2778
13471TIP3    H261905   1.460   5.059  14.307  1.4739  0.1957  1.2039
13472TIP3   OH261906   0.746   2.795   0.927  0.2587  0.0127 -0.1947
13472TIP3    H161907   0.672   2.848   0.957  0.5839  0.1498  0.3991
13472TIP3    H261908   0.728   2.708   0.962  0.4464  0.0824  0.0840
13473TIP3   OH261909   0.852   2.582   2.692  0.0082 -0.5357 -0.4963
13473TIP3    H161910   0.872   2.564   2.783  0.1510  0.0802 -0.4042
13473TIP3    H261911   0.920   2.536   2.642  0.4017 -0.1977 -0.2668
13474TIP3   OH261912   5.361   3.006   5.158 -0.2931 -0.8920  0.1719
13474TIP3    H161913   5.371   2.960   5.074  1.1148 -0.0767 -0.1373
13474TIP3    H261914   5.407   2.951   5.221 -0.3397 -0.9076  0.1926
13475TIP3   OH261915   1.889   1.820  15.951  0.1724 -0.3217 -0.3074
13475TIP3    H161916   1.817   1.854  15.899  3.0520  1.4939 -3.5539
13475TIP3    H261917   1.893   1.727  15.929 -0.9552 -0.3663 -0.3463
13476TIP3   OH261918   6.276   5.486   5.482  0.4806 -0.1770  0.0553
13476TIP3    H161919   6.308   5.396   5.485  0.1029 -0.3165 -0.0534
13476TIP3    H261920   6.183   5.480   5.506  0.3587  0.1374 -0.3248
13477TIP3   OH261921   4.586   5.741  15.445 -0.2363 -0.5052  0.0149
13477TIP3    H161922   4.645   5.680  15.490 -1.7720 -0.4190  2.3062
13477TIP3    H261923   4.630   5.826  15.450  0.2930 -0.7762  0.0016
13478TIP3   OH261924   0.122   3.067   1.764  0.1322 -0.3391 -0.3141
13478TIP3    H161925   0.027   3.076   1.771 -0.0182  0.7584 -2.9106
13478TIP3    H261926   0.135   2.979   1.729  0.1655 -0.8131  0.8346
13479TIP3   OH261927   6.723   0.922  12.802  0.1732  0.4913 -0.1266
13479TIP3    H161928   6.720   0.897  12.894 -0.2993 -0.4132 -0.3810
13479TIP3    H261929   6.681   1.008  12.799 -0.6841  0.1033  0.3748
13480TIP3   OH261930   4.495   4.083  11.063 -0.1904  0.3376 -0.4014
13480TIP3    H161931   4.456   4.160  11.022 -1.6350  0.1232  0.5043
13480TIP3    H261932   4.445   4.009  11.027 -1.7861  0.1703  1.9383
13481TIP3   OH261933   4.670   2.245  15.894 -0.1021 -0.2609 -0.1177
13481TIP3    H161934   4.684   2.180  15.964  0.3912 -0.0297  0.0021
13481TIP3    H261935   4.749   2.240  15.841 -0.7371 -0.8752 -1.0299
13482TIP3   OH261936   1.660   3.261   5.382 -0.1836 -0.0722 -0.3164
13482TIP3    H161937   1.734   3.279   5.324 -0.3450  0.2795 -0.4150
13482TIP3    H261938   1.693   3.282   5.469  0.6655 -2.3467 -0.0214
13483TIP3   OH261939   0.347   1.442  13.064  0.3471 -0.9037  0.2737
13483TIP3    H161940   0.430   1.481  13.090 -0.6537  1.1146  0.7402
13483TIP3    H261941   0.310   1.407  13.145  0.2327 -0.7075  0.3091
13484TIP3   OH261942   2.143   2.357   4.706  0.1557 -0.2071 -0.1740
13484TIP3    H161943   2.053   2.354   4.738  0.3119 -0.4851  0.2399
13484TIP3    H261944   2.154   2.275   4.658  1.1752 -1.7371  2.4609
13485TIP3   OH261945   0.021   1.255   4.713 -0.0925  0.7416  0.0989
13485TIP3    H161946   0.086   1.187   4.693  1.2977  2.0929 -0.2137
13485TIP3    H261947  -0.021   1.224   4.793  0.9844 -0.1577  0.3583
13486TIP3   OH261948   1.706   4.245   5.428 -0.2821 -0.3840  0.2134
13486TIP3    H161949   1.674   4.199   5.350 -0.7574 -1.6003  1.0867
13486TIP3    H261950   1.800   4.255   5.414 -0.3958 -0.4200 -0.6018
13487TIP3   OH261951   0.127   2.496   2.962 -0.2480 -0.6915 -0.3625
13487TIP3    H161952   0.069   2.535   2.898 -0.3496  0.3380  0.3370
13487TIP3    H261953   0.078   2.497   3.044  0.1976 -1.1951 -0.0747
13488TIP3   OH261954   1.487   2.874   4.870 -0.3397 -0.7134  0.4859
13488TIP3    H161955   1.537   2.816   4.929  0.1403 -1.1932 -0.3763
13488TIP3    H261956   1.552   2.904   4.807 -0.4728  1.1788  1.2007
13489TIP3   OH261957   3.136   3.167   5.772 -0.1952  0.1783  0.6646
13489TIP3    H161958   3.177   3.121   5.845  0.0651 -0.2234  0.2700
13489TIP3    H261959   3.094   3.098   5.720 -0.6780  0.4965  0.6229
13490TIP3   OH261960   2.273   3.361   0.764 -0.2747  0.5445  0.2191
13490TIP3    H161961   2.292   3.354   0.857 -0.9515  0.4508  0.3518
13490TIP3    H261962   2.178   3.354   0.758 -0.3024  1.3162 -0.4057
13491TIP3   OH261963   5.482   1.032   5.916  0.4532 -0.0284 -0.3986
13491TIP3    H161964   5.389   1.042   5.898  0.4821  0.7724 -0.1586
13491TIP3    H261965   5.494   0.939   5.931 -0.6565  0.0734  1.3679
13492TIP3   OH261966   0.878   5.802   0.656 -0.5851 -0.4973 -0.2896
13492TIP3    H161967   0.862   5.892   0.625 -1.4796 -0.7474 -0.5592
13492TIP3    H261968   0.794   5.772   0.688 -0.3955 -1.4141 -0.6327
13493TIP3   OH261969   4.574   6.411  13.132  0.3165 -0.2951  0.0068
13493TIP3    H161970   4.536   6.341  13.186  0.8918 -0.9325 -0.3991
13493TIP3    H261971   4.668   6.401  13.144  0.3901  1.0361  0.7121
13494TIP3   OH261972   2.175   6.288  14.202  0.3821 -0.7486 -0.0112
13494TIP3    H161973   2.111   6.226  14.237  0.4812 -0.7650  0.1409
13494TIP3    H261974   2.256   6.268  14.249  0.8152 -1.5516 -1.0729
13495TIP3   OH261975   1.028   2.583   5.123 -0.4186  0.0351 -0.6765
13495TIP3    H161976   0.948   2.566   5.074 -0.8097  0.5329 -0.2326
13495TIP3    H261977   0.998   2.620   5.206  0.2437 -0.4491 -0.2056
13496TIP3   OH261978   5.004   4.560  14.410  0.5830  0.2994 -0.0200
13496TIP3    H161979   4.936   4.609  14.455 -0.6588 -1.7444  0.4697
13496TIP3    H261980   4.968   4.472  14.399  3.7916 -1.5212  2.0735
13497TIP3   OH261981   0.467   1.971   4.718  0.1521  0.3631 -0.1399
13497TIP3    H161982   0.444   2.059   4.749  1.2216  1.6216 -2.6088
13497TIP3    H261983   0.449   1.974   4.624  0.6220 -1.9399 -0.3447
13498TIP3   OH261984   5.497   0.308  12.528 -0.5598 -0.1714 -0.0127
13498TIP3    H161985   5.509   0.300  12.623  0.7604  0.5542 -0.0896
13498TIP3    H261986   5.407   0.339  12.518 -0.0949  1.7244  1.1417
13499TIP3   OH261987   5.660   1.359   1.772  0.2580 -0.0394  0.1598
13499TIP3    H161988   5.751   1.331   1.772  0.3113  0.0163  1.9622
13499TIP3    H261989   5.619   1.309   1.842 -1.3681 -0.8072 -1.2702
13500TIP3   OH261990   4.899   2.503   3.959  0.3262 -0.1415 -0.3464
13500TIP3    H161991   4.954   2.551   3.897 -0.0439  0.8532  0.0726
13500TIP3    H261992   4.832   2.566   3.985  0.1464 -0.7261  0.6447
13501TIP3   OH261993   0.878   2.121  14.391  0.0499  0.4687 -1.0520
13501TIP3    H161994   0.921   2.049  14.437 -1.6375 -0.9277 -1.5579
13501TIP3    H261995   0.852   2.182  14.461 -2.7358 -1.7443  0.0491
13502TIP3   OH261996   2.253   6.391   5.352 -0.3189 -0.1375 -0.5435
13502TIP3    H161997   2.267   6.466   5.294  0.4186 -0.4892 -0.8323
13502TIP3    H261998   2.192   6.423   5.419  1.0281  1.1240  0.1126
13503TIP3   OH261999   4.388   6.148   4.805  0.2713  0.4005 -0.0996
13503TIP3    H162000   4.338   6.218   4.763 -1.7469 -0.7926  0.1337
13503TIP3    H262001   4.424   6.187   4.884 -0.3062  1.3314 -0.2894
13504TIP3   OH262002   4.686   0.473   5.740 -0.5988 -0.0396  0.1639
13504TIP3    H162003   4.665   0.466   5.647 -1.7862 -0.4334  0.4381
13504TIP3    H262004   4.603   0.455   5.784  0.2632 -1.3038  1.3329
13505TIP3   OH262005   2.761   1.037   4.098 -0.1517  0.0869  0.4106
13505TIP3    H162006   2.803   0.954   4.119 -1.2824 -0.7111 -0.3829
13505TIP3    H262007   2.829   1.103   4.114  1.3955 -1.1383 -0.7559
13506TIP3   OH262008   0.668   4.689   3.399 -0.6262 -0.2488 -0.1008
13506TIP3    H162009   0.735   4.752   3.426 -0.2815 -0.2999 -0.8084
13506TIP3    H262010   0.587   4.723   3.436 -0.2012 -0.2489  0.8743
13507TIP3   OH262011   1.913   3.704  13.018  0.3403 -0.3104 -0.0169
13507TIP3    H162012   1.868   3.751  13.088 -0.7656 -0.9101 -0.3085
13507TIP3    H262013   2.005   3.730  13.028  0.3616 -0.9447  2.1282
13508TIP3   OH262014   6.256   4.987  14.769  0.2832  0.6812 -0.1128
13508TIP3    H162015   6.264   5.077  14.803 -1.6239  1.3838 -1.3198
13508TIP3    H262016   6.313   4.935  14.825 -0.6035  2.2067  2.3865
13509TIP3   OH262017   6.391   5.809   1.417  0.1301 -0.8011  0.2716
13509TIP3    H162018   6.302   5.819   1.449  0.1552 -0.6566  0.2982
13509TIP3    H262019   6.441   5.876   1.464  0.2296 -0.8054  0.1726
13510TIP3   OH262020   4.771   3.491  12.261  0.1757  0.4159  0.7649
13510TIP3    H162021   4.794   3.455  12.347  0.4027 -0.8169  0.1981
13510TIP3    H262022   4.737   3.417  12.212  0.2666  1.0628 -0.3008
13511TIP3   OH262023   2.451   1.639   3.701  0.0651 -0.1188 -0.6759
13511TIP3    H162024   2.359   1.627   3.680  0.2353 -0.5758 -1.2027
13511TIP3    H262025   2.471   1.729   3.674 -0.6482  0.6169  1.0902
13512TIP3   OH262026   6.548   0.076  13.805  0.1529  0.4316 -0.2276
13512TIP3    H162027   6.620   0.014  13.815  1.0975  1.5604  0.1420
13512TIP3    H262028   6.483   0.029  13.752  1.0709 -0.6724 -0.4009
13513TIP3   OH262029   6.024   1.157  13.022  0.8870  0.1234  0.0528
13513TIP3    H162030   6.093   1.196  12.967  0.1810  1.4039  0.0456
13513TIP3    H262031   5.982   1.092  12.965  1.1343  0.3820 -0.4355
13514TIP3   OH262032   4.782   3.122  11.481  0.3543  0.0290  0.1378
13514TIP3    H162033   4.775   3.134  11.386 -0.3010  0.1938  0.2029
13514TIP3    H262034   4.866   3.079  11.493  0.6573  0.4263 -0.4844
13515TIP3   OH262035   6.572   0.135   4.870 -0.2356 -0.0176  0.3366
13515TIP3    H162036   6.595   0.227   4.885 -0.2173  0.1133 -0.4701
13515TIP3    H262037   6.621   0.110   4.792 -0.2629 -0.7080  0.5341
13516TIP3   OH262038   4.729   2.633  17.022 -0.2418  0.4654 -0.1308
13516TIP3    H162039   4.772   2.631  16.937  0.1851  0.8184  0.0706
13516TIP3    H262040   4.736   2.544  17.056 -1.7116 -0.0578 -1.0901
13517TIP3   OH262041   0.512   1.954   3.500 -0.5464 -0.1083  0.0690
13517TIP3    H162042   0.482   1.915   3.418 -0.0411  2.2397 -1.3395
13517TIP3    H262043   0.603   1.979   3.484  0.2695 -1.4508  2.1158
13518TIP3   OH262044   6.162   3.476  11.785 -0.1251  0.4427 -0.2351
13518TIP3    H162045   6.107   3.521  11.720 -1.0275 -0.2584  0.0118
13518TIP3    H262046   6.226   3.427  11.733 -0.0608  0.8576 -0.5482
13519TIP3   OH262047   1.079   3.030  10.275 -0.3191 -0.0974 -0.0666
13519TIP3    H162048   1.030   3.030  10.192 -0.3705 -1.3170 -0.0538
13519TIP3    H262049   1.156   3.083  10.257 -0.6122  0.1261 -0.7219
13520TIP3   OH262050   5.649   3.469   0.746 -0.1370 -0.5433  0.3208
13520TIP3    H162051   5.567   3.486   0.792  0.2274 -1.0665  1.1811
13520TIP3    H262052   5.621   3.441   0.658 -0.8068  2.6224 -0.6106
13521TIP3   OH262053   5.622   3.917   0.170  0.4371  0.6134  0.0889
13521TIP3    H162054   5.550   3.859   0.195 -0.3052  1.2458 -0.5245
13521TIP3    H262055   5.658   3.948   0.253 -0.5747  0.9853  0.4070
13522TIP3   OH262056   4.862   6.122  14.784  0.1191 -0.0002 -0.0176
13522TIP3    H162057   4.838   6.205  14.743  0.7582  0.8350  1.2639
13522TIP3    H262058   4.788   6.064  14.765 -0.5324  0.9816 -0.5382
13523TIP3   OH262059   3.391   2.475   1.333 -0.9091  0.5006  0.7755
13523TIP3    H162060   3.384   2.386   1.299  0.2849  0.6958 -0.0517
13523TIP3    H262061   3.379   2.465   1.427 -0.8756 -0.5207  0.6882
13524TIP3   OH262062   1.255   2.823  10.375 -0.4231  0.7678  0.0619
13524TIP3    H162063   1.240   2.864  10.290  0.3286 -2.4282 -1.7444
13524TIP3    H262064   1.346   2.845  10.397 -0.9986  2.6758  0.7862
13525TIP3   OH262065   3.434   5.895  14.472 -0.0280  0.5663  0.3105
13525TIP3    H162066   3.453   5.876  14.380  0.2253 -0.6697  0.5900
13525TIP3    H262067   3.518   5.922  14.509  0.2929 -0.6835  0.5614
13526TIP3   OH262068   1.946   0.016  16.401  0.1009  0.0120 -0.2443
13526TIP3    H162069   1.903  -0.059  16.442  0.0903  0.9916  1.6590
13526TIP3    H262070   2.010   0.046  16.466  1.4937  0.4740 -1.7585
13527TIP3   OH262071   1.457   3.180  16.290 -0.2153 -0.0653  0.3086
13527TIP3    H162072   1.539   3.200  16.246  0.3157  0.8641  1.6774
13527TIP3    H262073   1.428   3.097  16.251  0.2791  0.6544 -1.6696
13528TIP3   OH262074   5.292   5.989   3.378  0.3875 -0.0262 -0.3016
13528TIP3    H162075   5.319   5.966   3.289  0.6566 -0.0748 -0.2073
13528TIP3    H262076   5.217   5.931   3.396  0.3713 -0.0584 -0.4738
13529TIP3   OH262077   6.181   0.051   0.144 -0.0197 -0.6503  0.0938
13529TIP3    H162078   6.098   0.030   0.186  0.6027 -0.9849  1.2151
13529TIP3    H262079   6.245  -0.003   0.190  0.6288 -1.5328 -1.7416
13530TIP3   OH262080   3.017   3.317   4.783 -0.4547  0.1185 -0.4715
13530TIP3    H162081   3.037   3.293   4.692  1.0066  1.4603 -0.5386
13530TIP3    H262082   2.973   3.401   4.777  1.2060  1.0716  0.1192
13531TIP3   OH262083   2.891   0.590   5.123  0.3313  0.2101  0.5608
13531TIP3    H162084   2.891   0.583   5.219  2.5060  0.0935  0.5953
13531TIP3    H262085   2.970   0.641   5.103  0.8148 -1.1540 -1.2386
13532TIP3   OH262086   5.339   6.611  13.259  0.2538  0.2727  0.0297
13532TIP3    H162087   5.300   6.543  13.203  0.7754  0.2383 -0.2951
13532TIP3    H262088   5.305   6.693  13.224 -0.4904  0.1810  0.5084
13533TIP3   OH262089   5.503   6.349  14.746 -0.2119 -0.1605  0.0182
13533TIP3    H162090   5.436   6.416  14.727 -0.0191  0.3630  1.1338
13533TIP3    H262091   5.584   6.386  14.710  0.0639  0.6269  1.3739
13534TIP3   OH262092   1.109   3.775  14.263  0.6684 -0.0428  0.3897
13534TIP3    H162093   1.164   3.773  14.184  0.6183  1.8076  0.2569
13534TIP3    H262094   1.157   3.830  14.324 -0.3196  0.3591  0.8270
13535TIP3   OH262095   2.876   3.497  11.969 -0.4798  0.2644  0.0242
13535TIP3    H162096   2.817   3.430  11.936 -0.5693 -0.2960  1.2831
13535TIP3    H262097   2.819   3.559  12.014 -0.1317 -0.2848  1.2532
13536TIP3   OH262098   3.984   6.263   0.513 -0.1361 -0.1018  0.2017
13536TIP3    H162099   4.026   6.181   0.541 -1.9029 -0.5606  1.6854
13536TIP3    H262100   4.054   6.312   0.470  1.7828 -1.0391  2.0834
13537TIP3   OH262101   1.275   4.782   3.610  0.4306  0.2975  0.3145
13537TIP3    H162102   1.263   4.747   3.522  0.6908  3.0057 -0.9021
13537TIP3    H262103   1.322   4.713   3.657  1.3509 -0.7717 -2.0137
13538TIP3   OH262104   4.759   2.721  11.487  0.0545 -0.0346  0.2366
13538TIP3    H162105   4.680   2.707  11.540 -0.6330 -0.4709 -0.8610
13538TIP3    H262106   4.732   2.784  11.420  0.8071  0.2309  0.1744
13539TIP3   OH262107   3.978   1.590  11.142 -0.2656 -0.4695  0.3458
13539TIP3    H162108   4.071   1.595  11.117 -0.2458 -1.9807  0.0553
13539TIP3    H262109   3.960   1.675  11.183  1.0107  0.1857 -0.3771
13540TIP3   OH262110   6.225   5.920   5.060 -0.0902 -0.2225 -0.2684
13540TIP3    H162111   6.177   5.860   5.117 -1.3994 -0.7465 -1.8484
13540TIP3    H262112   6.317   5.907   5.083 -0.5201 -0.9872  1.1334
13541TIP3   OH262113   0.638   6.037  14.632  0.6696 -0.6067  0.0895
13541TIP3    H162114   0.625   6.098  14.560  0.2171  0.9170  1.3923
13541TIP3    H262115   0.733   6.023  14.634  0.6368 -1.1190 -1.1286
13542TIP3   OH262116   3.668   3.355   4.419  0.0427 -0.8995 -0.3245
13542TIP3    H162117   3.732   3.285   4.406 -0.6945 -1.4749 -0.8538
13542TIP3    H262118   3.720   3.436   4.411  0.5151 -1.3281 -1.9392
13543TIP3   OH262119   2.053   4.114   3.893 -0.6145  0.2646  0.1282
13543TIP3    H162120   2.132   4.168   3.888  0.1713 -0.9474 -1.4335
13543TIP3    H262121   2.022   4.126   3.983  0.6230  1.7550  0.4011
13544TIP3   OH262122   1.955   1.588  10.744 -0.0030 -0.3701 -0.3158
13544TIP3    H162123   2.008   1.601  10.666  0.1693  0.3709 -0.0927
13544TIP3    H262124   1.977   1.664  10.800 -1.9846  0.4676 -0.6032
13545TIP3   OH262125   3.618   0.033   5.566  0.5199  0.7584  0.0836
13545TIP3    H162126   3.557  -0.040   5.555  0.1259  1.2245 -0.9621
13545TIP3    H262127   3.567   0.100   5.612 -0.1577  1.5653 -1.7308
13546TIP3   OH262128   6.414   3.380   2.063  0.2828  0.2161  0.6287
13546TIP3    H162129   6.383   3.459   2.019 -1.2195 -1.9091 -2.5249
13546TIP3    H262130   6.492   3.354   2.014  1.0650 -0.0121  1.9590
13547TIP3   OH262131   6.554   5.298  17.260 -0.9588  0.3657  0.2486
13547TIP3    H162132   6.624   5.234  17.268 -1.0174  0.4230  1.3478
13547TIP3    H262133   6.487   5.255  17.206 -0.7176 -0.2427  0.4365
13548TIP3   OH262134   2.455   4.469  10.798  0.1986  0.1914 -0.0579
13548TIP3    H162135   2.379   4.477  10.741 -1.6548 -2.2593  1.8561
13548TIP3    H262136   2.479   4.376  10.793  0.4027  0.0332  2.5293
13549TIP3   OH262137   2.689   4.564  14.955  0.4248 -0.1745  0.2756
13549TIP3    H162138   2.650   4.640  14.999  0.7327  0.8576 -1.1468
13549TIP3    H262139   2.706   4.595  14.866 -0.5300 -2.2887 -0.7059
13550TIP3   OH262140   2.704   2.882  10.928 -0.9133  0.2597  0.7263
13550TIP3    H162141   2.724   2.817  10.860 -3.1914  1.3689 -1.1223
13550TIP3    H262142   2.610   2.894  10.923 -0.8015  2.3366  2.3321
13551TIP3   OH262143   5.354   3.666  15.378  0.0792  0.1107 -0.5135
13551TIP3    H162144   5.273   3.710  15.352  1.3978  2.7417 -0.5398
13551TIP3    H262145   5.413   3.679  15.303  1.5012  1.1155  0.7070
13552TIP3   OH262146   3.102   2.992  12.386  0.4175 -0.2848  0.2834
13552TIP3    H162147   3.057   3.076  12.374 -1.5485 -1.2426  0.4425
13552TIP3    H262148   3.056   2.951  12.459  1.1621 -1.6018  0.0390
13553TIP3   OH262149   4.246   3.029   0.276  0.2228  0.1110  0.8771
13553TIP3    H162150   4.275   2.943   0.305 -0.1863 -0.4680 -0.3848
13553TIP3    H262151   4.175   3.012   0.215  1.5921  1.2251 -1.1412
13554TIP3   OH262152   0.633   2.273   5.514  0.6202  0.2727  0.5041
13554TIP3    H162153   0.680   2.293   5.595  0.6502 -2.4222  1.2438
13554TIP3    H262154   0.551   2.232   5.543  0.4060 -0.2840 -0.8196
13555TIP3   OH262155   5.946   4.713   4.244 -0.8730 -0.4993  0.0890
13555TIP3    H162156   5.947   4.665   4.326 -1.8771  0.2402  0.5474
13555TIP3    H262157   5.898   4.794   4.263  0.1006  0.3437 -0.8562
13556TIP3   OH262158   2.936   6.082   2.335 -0.0118 -0.3677 -0.3571
13556TIP3    H162159   2.938   6.051   2.425  0.5873  0.3378 -0.1240
13556TIP3    H262160   2.859   6.039   2.297 -2.6431  2.3103  1.5488
13557TIP3   OH262161   3.121   1.482   2.018 -0.0020  0.4324 -0.1231
13557TIP3    H162162   3.145   1.407   1.965 -0.9464  0.4562 -0.6078
13557TIP3    H262163   3.045   1.453   2.069  1.0588  0.3117  1.4603
13558TIP3   OH262164   4.228   1.676  12.795 -0.1487  0.2269  0.4017
13558TIP3    H162165   4.145   1.696  12.752  0.2187  0.2155 -0.3129
13558TIP3    H262166   4.286   1.748  12.771  0.7875 -0.9807 -1.1255
13559TIP3   OH262167   6.507   2.536   5.033  0.0200  0.1063  0.2720
13559TIP3    H162168   6.465   2.451   5.051  1.6997 -0.7926  0.1612
13559TIP3    H262169   6.598   2.514   5.017  0.4234  1.9308 -0.1090
13560TIP3   OH262170   1.818   3.108  11.427  0.2903 -0.2660 -0.1434
13560TIP3    H162171   1.907   3.141  11.411 -0.1489  1.4756  0.6946
13560TIP3    H262172   1.831   3.024  11.471  1.4723 -1.9726 -3.4287
13561TIP3   OH262173   2.790   6.602  13.694  0.3292 -0.2554 -0.3337
13561TIP3    H162174   2.835   6.523  13.663  0.6983  0.2148 -1.0355
13561TIP3    H262175   2.730   6.625  13.623 -1.8400 -1.4663  1.0294
13562TIP3   OH262176   2.170   1.524  13.867  0.5255  0.0153 -0.1945
13562TIP3    H162177   2.264   1.533  13.884  0.8343 -0.1184 -1.6572
13562TIP3    H262178   2.145   1.441  13.905  1.5444 -1.0777 -1.7868
13563TIP3   OH262179   0.177   0.556   0.611  0.3495 -0.0220 -0.1205
13563TIP3    H162180   0.213   0.481   0.658 -0.5544 -1.1336 -1.1331
13563TIP3    H262181   0.086   0.532   0.592 -0.0695  1.4841 -0.1574
13564TIP3   OH262182   0.488   2.111  11.439  0.1048 -0.6697 -0.2982
13564TIP3    H162183   0.453   2.197  11.464 -3.1787 -1.6991 -0.8241
13564TIP3    H262184   0.567   2.130  11.389  0.4764  1.9222  1.1089
13565TIP3   OH262185   1.435   5.090   0.944 -0.0421 -0.6656  0.0645
13565TIP3    H162186   1.509   5.041   0.908 -1.2264 -2.8849  0.4615
13565TIP3    H262187   1.375   5.102   0.870  0.5657  0.9269 -0.2051
13566TIP3   OH262188   2.883   2.367   0.195  0.0415  0.2447 -0.5890
13566TIP3    H162189   2.965   2.397   0.234  1.0847 -0.8414 -1.8630
13566TIP3    H262190   2.834   2.447   0.177  0.6291  0.8877  0.5497
13567TIP3   OH262191   5.126   0.179   3.614 -0.3223  0.5087  0.4572
13567TIP3    H162192   5.094   0.168   3.703 -0.0954 -0.7496  0.4013
13567TIP3    H262193   5.220   0.161   3.620 -0.7317 -2.4896 -0.4678
13568TIP3   OH262194   1.232   2.759  11.953 -0.6809  0.1694  0.1304
13568TIP3    H162195   1.294   2.708  12.004  0.1007  0.3092 -0.6538
13568TIP3    H262196   1.231   2.846  11.994 -2.6557 -0.6533  1.9983
13569TIP3   OH262197   1.734   0.760  11.843 -0.0190 -0.5018 -0.4810
13569TIP3    H162198   1.733   0.716  11.928  0.2685 -0.4799 -0.4658
13569TIP3    H262199   1.826   0.764  11.820  0.1008  1.3457  0.1703
13570TIP3   OH262200   4.360   1.847  12.647 -0.1301 -0.1525 -0.6802
13570TIP3    H162201   4.454   1.852  12.666 -0.2517 -0.3337 -0.0124
13570TIP3    H262202   4.351   1.776  12.584  0.2200  0.0980 -1.0168
13571TIP3   OH262203   4.212   6.596   3.956  0.1721  0.0365  0.2086
13571TIP3    H162204   4.267   6.663   3.917  1.0826 -2.2184 -2.7338
13571TIP3    H262205   4.270   6.549   4.015  0.4178 -0.1024 -0.1395
13572TIP3   OH262206   0.692   6.773  15.432 -0.3494 -0.1242 -0.5473
13572TIP3    H162207   0.761   6.709  15.414  0.1926  0.0394  0.8571
13572TIP3    H262208   0.683   6.772  15.527 -0.7075  1.4988 -0.5470
13573TIP3   OH262209   5.204   1.883  16.165  0.0511 -0.3085 -0.5002
13573TIP3    H162210   5.294   1.913  16.153  0.2346 -0.7305 -0.1850
13573TIP3    H262211   5.200   1.855  16.256 -0.6000  0.3807 -0.3066
13574TIP3   OH262212   1.475   0.534  16.857 -0.0357 -1.3200 -0.1111
13574TIP3    H162213   1.447   0.564  16.943 -1.5838  1.2945 -1.3970
13574TIP3    H262214   1.571   0.542  16.858 -0.1547  0.5867  0.7805
13575TIP3   OH262215   5.585   3.485  15.572 -0.3462  0.3356 -0.1437
13575TIP3    H162216   5.518   3.453  15.512  1.2692 -0.5452 -1.5774
13575TIP3    H262217   5.591   3.579  15.554  0.1834  0.0668 -1.4895
13576TIP3   OH262218   2.007   0.404  12.852 -0.4327 -0.0126 -0.1211
13576TIP3    H162219   1.929   0.447  12.888  0.4850  1.9923 -0.3789
13576TIP3    H262220   2.073   0.415  12.921 -0.4885 -2.2135  0.3461
13577TIP3   OH262221   4.462   6.393  12.411 -0.4201  0.0741  0.5832
13577TIP3    H162222   4.515   6.320  12.443  0.0149  1.0293  2.1282
13577TIP3    H262223   4.526   6.458  12.383 -0.7898 -0.5271 -1.8786
13578TIP3   OH262224   3.137   6.809   5.392 -0.2405 -0.3095 -0.5273
13578TIP3    H162225   3.219   6.808   5.343 -0.1479 -1.5856 -0.3600
13578TIP3    H262226   3.114   6.902   5.396  0.3472 -0.0735 -1.9702
13579TIP3   OH262227   4.175   3.232  15.706 -0.0814  0.0182 -0.3379
13579TIP3    H162228   4.171   3.298  15.775 -0.5919 -0.7505  0.3764
13579TIP3    H262229   4.135   3.154  15.744 -1.5930 -0.0425 -1.9345
13580TIP3   OH262230   1.731   6.347  11.087  0.2147  0.3384  0.0304
13580TIP3    H162231   1.679   6.405  11.144  0.3087  0.0830  0.3750
13580TIP3    H262232   1.811   6.397  11.070  0.0359  0.5616 -0.1654
13581TIP3   OH262233   1.184   1.082  11.080 -0.1329 -0.0173  0.6861
13581TIP3    H162234   1.109   1.126  11.040  0.1041 -1.5665 -1.7061
13581TIP3    H262235   1.258   1.107  11.024  0.7224 -0.3107  1.6592
13582TIP3   OH262236   6.820   3.636   1.773  0.4429  0.7486 -0.2038
13582TIP3    H162237   6.818   3.631   1.678 -0.1674 -0.2874 -0.1540
13582TIP3    H262238   6.885   3.571   1.800 -2.1419 -1.8886  0.1911
13583TIP3   OH262239   6.716   4.567  11.613 -0.0005  0.2606  0.8024
13583TIP3    H162240   6.627   4.535  11.597  0.3512 -0.0752 -0.6067
13583TIP3    H262241   6.705   4.638  11.677 -1.0663 -0.9348  2.0001
13584TIP3   OH262242   5.721   4.040   5.664 -0.2627  0.0774 -0.0668
13584TIP3    H162243   5.637   4.052   5.619 -0.1663  0.1930 -0.2166
13584TIP3    H262244   5.786   4.042   5.594 -0.4044 -4.4284 -0.6147
13585TIP3   OH262245   4.167   2.265  15.761  0.4424 -0.5081  0.1490
13585TIP3    H162246   4.172   2.218  15.678  1.1856  0.7153 -0.5208
13585TIP3    H262247   4.131   2.201  15.823  0.7347 -1.7100 -0.9006
13586TIP3   OH262248   4.047   1.132   1.668 -0.5199  0.1980  0.3185
13586TIP3    H162249   3.952   1.131   1.683 -0.1716  2.2986  3.5360
13586TIP3    H262250   4.064   1.218   1.631  0.2138  0.1323  0.4956
13587TIP3   OH262251   3.349   1.880   6.196 -0.4036 -0.0050  0.3490
13587TIP3    H162252   3.431   1.895   6.149 -0.3455  0.0453  0.4643
13587TIP3    H262253   3.333   1.786   6.188 -0.3570 -0.0078  0.2904
13588TIP3   OH262254   4.857   4.546  17.129  0.7261  0.2797 -0.3911
13588TIP3    H162255   4.778   4.596  17.149  1.4662  1.2929  0.0606
13588TIP3    H262256   4.868   4.555  17.035 -0.2347 -0.7181 -0.6334
13589TIP3   OH262257   2.764   2.654  12.386 -0.0435 -0.3248  0.2791
13589TIP3    H162258   2.748   2.745  12.361  1.8659 -0.1419 -0.4485
13589TIP3    H262259   2.856   2.652  12.413 -0.5769 -1.6500  2.2426
13590TIP3   OH262260   3.273   1.864   3.793 -0.3823  0.2016 -0.5361
13590TIP3    H162261   3.234   1.885   3.708 -1.5957 -2.3801 -0.7208
13590TIP3    H262262   3.226   1.785   3.822  1.8243 -0.5523  1.2850
13591TIP3   OH262263   6.795   6.086  17.213  0.0645  0.1770  0.1800
13591TIP3    H162264   6.870   6.028  17.200  0.5846  0.9935 -0.5335
13591TIP3    H262265   6.806   6.155  17.147 -0.6398  0.9856  0.8876
13592TIP3   OH262266   2.935   5.481   4.954 -0.2399  0.2059 -0.0799
13592TIP3    H162267   2.991   5.447   5.024  0.7994 -2.6101 -2.0856
13592TIP3    H262268   2.852   5.434   4.965 -0.2799  0.2073 -0.3782
13593TIP3   OH262269   0.661   4.595   6.347 -0.4571 -0.4493  0.0309
13593TIP3    H162270   0.693   4.589   6.437 -1.7653  1.5403  0.7069
13593TIP3    H262271   0.665   4.689   6.326  0.3730 -0.9163 -2.2326
13594TIP3   OH262272   5.303   4.365  11.947  0.3537  0.7941  0.4938
13594TIP3    H162273   5.213   4.397  11.947  0.5017  1.3510  2.9103
13594TIP3    H262274   5.295   4.270  11.959  0.0892  0.6167 -0.8843
13595TIP3   OH262275   6.299   2.801   3.530 -0.2031  0.5784  0.6739
13595TIP3    H162276   6.242   2.807   3.607 -1.5262 -1.2248 -0.0896
13595TIP3    H262277   6.273   2.876   3.476 -2.7611 -0.7742 -0.1627
13596TIP3   OH262278   0.326   3.461  15.934 -0.1128  0.3209 -0.1892
13596TIP3    H162279   0.400   3.443  15.991 -2.3709 -0.7764  2.6236
13596TIP3    H262280   0.298   3.374  15.903 -1.8041  0.4018  1.0000
13597TIP3   OH262281   4.970   4.082   3.798  0.4487  0.1614  0.5867
13597TIP3    H162282   4.949   4.005   3.746 -2.1217  2.1706 -1.6749
13597TIP3    H262283   5.053   4.113   3.762  0.9891 -0.9312  0.8396
13598TIP3   OH262284   3.721   2.877   0.115 -0.7593 -0.0558 -0.3773
13598TIP3    H162285   3.748   2.961   0.152  1.4049 -0.1751 -1.4754
13598TIP3    H262286   3.751   2.880   0.024 -2.0305 -1.4218 -0.8826
13599TIP3   OH262287   6.577   3.121   4.377  0.0012  0.4337 -0.4226
13599TIP3    H162288   6.562   3.069   4.298 -0.2716 -2.6203  1.4821
13599TIP3    H262289   6.494   3.167   4.391 -0.5935 -0.4542 -0.8990
13600TIP3   OH262290   2.917   1.983  11.993  0.0362  0.1497 -1.0427
13600TIP3    H162291   2.872   2.065  12.014  0.5780  0.4607 -1.0832
13600TIP3    H262292   2.898   1.926  12.068 -0.7693  0.1282 -1.2522
13601TIP3   OH262293   4.814   0.443   4.892 -0.3107 -0.0091 -0.4677
13601TIP3    H162294   4.804   0.527   4.937 -0.8905 -0.3150 -0.0071
13601TIP3    H262295   4.821   0.466   4.800 -2.1586  0.4743 -0.5271
13602TIP3   OH262296   0.719   1.037  11.541 -0.0722 -0.2978 -0.0932
13602TIP3    H162297   0.801   0.987  11.549 -0.1074 -0.7134 -1.9955
13602TIP3    H262298   0.687   1.043  11.631  0.5314 -2.7078  0.3568
13603TIP3   OH262299   4.164   4.998  13.550 -0.0141 -0.3661  0.1241
13603TIP3    H162300   4.191   5.054  13.623  2.1420 -0.5039 -0.5151
13603TIP3    H262301   4.243   4.987  13.497 -0.8061 -2.6010 -0.7147
13604TIP3   OH262302   6.578   1.310  14.908 -0.4498 -0.6884  0.2815
13604TIP3    H162303   6.539   1.390  14.872 -0.3463  0.0662  1.7695
13604TIP3    H262304   6.504   1.262  14.945 -0.0998  0.5050  2.6596
13605TIP3   OH262305   4.223   3.757  13.692 -0.2082  0.4934  0.0106
13605TIP3    H162306   4.211   3.691  13.624 -0.1877  1.7517 -1.2799
13605TIP3    H262307   4.143   3.755  13.743  0.2574 -1.3036  0.7366
13606TIP3   OH262308   5.859   5.820  14.094  0.2228  0.4654 -0.2571
13606TIP3    H162309   5.900   5.746  14.140  1.8458  1.1066 -0.5962
13606TIP3    H262310   5.855   5.793  14.003 -0.1847  0.3765 -0.2133
13607TIP3   OH262311   2.589   0.783  10.745  0.6692 -0.0581  0.3563
13607TIP3    H162312   2.568   0.824  10.661 -1.3093 -2.5098 -0.4771
13607TIP3    H262313   2.663   0.726  10.726  0.3735 -0.4328  0.3075
13608TIP3   OH262314   5.356   6.164  16.500 -0.1252  0.5169 -0.2429
13608TIP3    H162315   5.334   6.163  16.593 -0.1064  2.9482 -0.1558
13608TIP3    H262316   5.452   6.161  16.498  0.0453  3.1217  0.0257
13609TIP3   OH262317   2.661   4.926   0.234 -0.2900 -0.1247 -0.4116
13609TIP3    H162318   2.748   4.966   0.244 -0.2675  0.0945 -1.3652
13609TIP3    H262319   2.679   4.837   0.204 -0.4016  0.1181 -1.2141
13610TIP3   OH262320   6.491   2.511  11.195 -0.1818  0.3379 -0.0139
13610TIP3    H162321   6.456   2.601  11.195 -1.1319 -0.0149 -0.6301
13610TIP3    H262322   6.421   2.459  11.234  0.2280 -0.1892  0.0156
13611TIP3   OH262323   5.544   6.292   0.634  0.2984 -0.3561 -0.6324
13611TIP3    H162324   5.453   6.304   0.660  0.9454 -0.9441  2.2673
13611TIP3    H262325   5.542   6.213   0.578 -0.7938 -1.3827  0.7713
13612TIP3   OH262326   0.004   4.607  17.159 -0.0536  0.0718  0.2066
13612TIP3    H162327  -0.071   4.621  17.217  1.1337  2.9044  1.2385
13612TIP3    H262328   0.039   4.522  17.186 -1.7757 -0.4491  0.9642
13613TIP3   OH262329   6.448   1.542  12.322 -0.4640 -0.0500 -0.2359
13613TIP3    H162330   6.422   1.460  12.280 -1.2443  0.7698 -1.4432
13613TIP3    H262331   6.509   1.582  12.259 -0.8240  0.7146 -0.1150
13614TIP3   OH262332   5.663   4.995   0.577 -0.6337  1.0004  0.1236
13614TIP3    H162333   5.645   4.946   0.657 -0.7280  0.5785 -0.1563
13614TIP3    H262334   5.715   4.936   0.523 -1.5353  0.8417 -0.6065
13615TIP3   OH262335   2.700   0.207   4.616  0.3892  0.1385  0.1772
13615TIP3    H162336   2.790   0.239   4.628 -0.2406  1.8939  0.5882
13615TIP3    H262337   2.706   0.144   4.545  1.9087  0.4325  0.0126
13616TIP3   OH262338   4.006   3.120  11.237  0.4454  0.2888  0.0128
13616TIP3    H162339   3.969   3.207  11.248 -0.8858 -0.1859 -0.4931
13616TIP3    H262340   3.937   3.061  11.267  1.0252 -0.6115 -0.3935
13617TIP3   OH262341   1.230   2.040   0.716 -0.0984 -0.4862 -0.5972
13617TIP3    H162342   1.196   2.017   0.630 -0.0688 -0.0142 -0.7405
13617TIP3    H262343   1.251   2.133   0.709  1.7323 -0.8857 -0.6717
13618TIP3   OH262344   3.966   3.982  14.131  0.1442 -0.4982 -0.0795
13618TIP3    H162345   3.904   3.947  14.067 -0.3595 -1.0420  0.6762
13618TIP3    H262346   3.912   4.036  14.189  0.1808 -1.6301  1.0758
13619TIP3   OH262347   2.468   0.548  13.886 -0.9447  0.3480  0.0536
13619TIP3    H162348   2.377   0.559  13.915 -0.6525 -1.2656  1.8494
13619TIP3    H262349   2.467   0.465  13.837 -0.2252 -0.5033  1.4100
13620TIP3   OH262350   3.039   1.367  16.526 -0.3967 -0.0147 -0.0756
13620TIP3    H162351   3.010   1.278  16.508 -1.2096  0.0651  0.7794
13620TIP3    H262352   3.038   1.410  16.440 -0.3656 -0.7099 -0.4313
13621TIP3   OH262353   2.620   6.218  11.619  0.5057 -0.0247 -0.3841
13621TIP3    H162354   2.706   6.248  11.651  0.7391 -0.0645 -0.9556
13621TIP3    H262355   2.585   6.294  11.573 -0.5480  0.5738  1.3289
13622TIP3   OH262356   4.042   5.550  13.438 -0.2930 -0.5006  0.4661
13622TIP3    H162357   3.954   5.588  13.444 -0.0133  0.2539 -0.0752
13622TIP3    H262358   4.063   5.526  13.528  0.0849  2.0007  1.1343
13623TIP3   OH262359   4.139   6.605  13.681  0.0782  0.2782  0.0992
13623TIP3    H162360   4.219   6.554  13.688 -1.1454 -1.6389  1.0206
13623TIP3    H262361   4.148   6.675  13.745  0.9879  0.0711  0.2041
13624TIP3   OH262362   1.226   5.961  15.831  0.1984 -0.4540  0.5200
13624TIP3    H162363   1.181   5.889  15.788 -1.0471 -0.8704  2.4150
13624TIP3    H262364   1.253   5.926  15.916  2.4700  0.3635  0.2009
13625TIP3   OH262365   0.031   6.039  12.811  0.1514  0.5029 -0.0963
13625TIP3    H162366  -0.033   5.990  12.863  0.9517 -2.0144 -1.3514
13625TIP3    H262367   0.012   6.131  12.831 -0.6945 -0.2621  3.2705
13626TIP3   OH262368   3.427   6.017  15.984  0.4229 -0.2184  0.0887
13626TIP3    H162369   3.483   5.980  15.917  0.4645  1.2775 -0.7567
13626TIP3    H262370   3.362   6.068  15.935 -2.6909 -3.0562  0.9152
13627TIP3   OH262371   3.154   1.328  13.432 -0.3535  0.7013  0.2018
13627TIP3    H162372   3.102   1.253  13.402  0.9372 -0.0524 -0.2166
13627TIP3    H262373   3.096   1.374  13.492 -1.0812 -0.8220  0.7383
13628TIP3   OH262374   0.289   1.172  15.828 -0.3294 -0.1491  0.4174
13628TIP3    H162375   0.356   1.108  15.853  0.4198  1.1699  1.9783
13628TIP3    H262376   0.337   1.236  15.774 -0.6190  0.1167  0.4733
13629TIP3   OH262377   2.115   2.230   4.041  0.0892 -0.5810 -0.0020
13629TIP3    H162378   2.113   2.282   4.122  0.5473  2.0215 -1.5460
13629TIP3    H262379   2.088   2.291   3.973 -3.4912 -3.4967 -1.5280
13630TIP3   OH262380   4.862   0.119   0.482  0.2827 -0.6586 -0.6988
13630TIP3    H162381   4.815   0.158   0.555  0.9378 -1.6119  0.2561
13630TIP3    H262382   4.896   0.194   0.432 -0.9479  0.0104 -0.5678
13631TIP3   OH262383   5.315   3.160  14.309 -0.0550  0.4302  0.6819
13631TIP3    H162384   5.403   3.126  14.327  0.0289  0.4726  0.3645
13631TIP3    H262385   5.318   3.185  14.216 -0.3616  0.5547  0.7061
13632TIP3   OH262386   1.175   5.877   5.393  0.3837  0.0797  0.1126
13632TIP3    H162387   1.152   5.913   5.478  2.1385  0.1575  0.5873
13632TIP3    H262388   1.117   5.923   5.331  0.1018  1.0865  1.0982
13633TIP3   OH262389   6.452   0.630  11.957  0.0336 -0.3929 -0.2376
13633TIP3    H162390   6.440   0.713  11.911  0.1231 -0.6806 -0.7897
13633TIP3    H262391   6.499   0.575  11.895 -0.1010 -0.8855  0.0921
13634TIP3   OH262392   5.495   3.033  12.085 -0.3103  0.5681  0.3474
13634TIP3    H162393   5.417   3.014  12.136 -0.9283  1.1865 -0.3422
13634TIP3    H262394   5.465   3.090  12.014  0.4113 -0.6524 -1.0116
13635TIP3   OH262395   2.698   4.035   0.491 -0.0185  0.2102 -0.1186
13635TIP3    H162396   2.611   4.048   0.453  0.2154  2.1265 -0.0952
13635TIP3    H262397   2.756   4.088   0.437  0.7108  1.0210  1.3960
13636TIP3   OH262398   4.818   6.518   1.574 -0.4200 -0.1074 -0.2723
13636TIP3    H162399   4.827   6.454   1.644 -0.2973  0.3600  0.1405
13636TIP3    H262400   4.846   6.601   1.612  0.5775 -0.0143 -1.1385
13637TIP3   OH262401   2.498   0.626  13.399 -0.3960  0.0969  0.0957
13637TIP3    H162402   2.404   0.611  13.386 -0.8193  2.1756  0.4615
13637TIP3    H262403   2.511   0.718  13.375  1.8506 -0.5484 -1.4627
13638TIP3   OH262404   1.964   0.225  14.163  0.3978  0.5428  0.2093
13638TIP3    H162405   1.942   0.256  14.075  0.0842  0.2861  0.1939
13638TIP3    H262406   1.939   0.297  14.221  1.6741  1.1786 -0.0003
13639TIP3   OH262407   0.506   4.788   5.381  0.0958  0.4639  0.1932
13639TIP3    H162408   0.497   4.744   5.466  0.1054  0.3258  0.1236
13639TIP3    H262409   0.561   4.864   5.399 -0.5532  0.8765  0.4637
13640TIP3   OH262410   0.035   4.662   0.177 -0.5580  0.3446  0.2965
13640TIP3    H162411   0.058   4.755   0.172  2.9613 -0.3399  1.0778
13640TIP3    H262412   0.052   4.629   0.089  0.5158  0.0524  0.5942
13641TIP3   OH262413   0.346   3.669   3.007 -0.1987  0.7937  0.4514
13641TIP3    H162414   0.442   3.666   3.000 -0.2786  0.2281 -0.5633
13641TIP3    H262415   0.327   3.759   3.036  0.5362  1.7173 -1.6543
13642TIP3   OH262416   4.946   0.404   1.887 -0.2895 -0.0204 -0.2528
13642TIP3    H162417   4.921   0.460   1.960 -2.0149  0.5992 -1.2399
13642TIP3    H262418   4.952   0.316   1.924 -0.2790  0.4130  0.7910
13643TIP3   OH262419   0.569   3.200   2.877 -0.1563 -0.2508 -0.0434
13643TIP3    H162420   0.538   3.248   2.954 -1.8035 -1.9239  0.4272
13643TIP3    H262421   0.651   3.159   2.906  0.2779  0.7289  0.1506
13644TIP3   OH262422   5.971   2.979  16.937  0.5362 -0.1874  0.1276
13644TIP3    H162423   5.996   3.048  16.875  0.6240 -0.8206 -0.5508
13644TIP3    H262424   5.920   3.025  17.004  0.0615  0.4394 -0.6412
13645TIP3   OH262425   2.005   3.880   2.831  0.2944  0.1862  0.0896
13645TIP3    H162426   2.099   3.890   2.848  0.3401 -3.0694  2.8159
13645TIP3    H262427   1.999   3.806   2.770 -0.4967  0.0517  0.3141
13646TIP3   OH262428   4.141   2.911   4.035  0.6070 -0.2593 -0.0080
13646TIP3    H162429   4.128   2.822   4.067  0.0132  0.1335  0.9088
13646TIP3    H262430   4.063   2.928   3.981 -0.3336  0.3830  1.4746
13647TIP3   OH262431   1.290   1.759   2.546 -0.5163  0.4158 -0.6425
13647TIP3    H162432   1.272   1.762   2.640 -1.1805 -0.2876 -0.7380
13647TIP3    H262433   1.352   1.831   2.531  3.0241 -2.0264  1.0507
13648TIP3   OH262434   6.279   5.865   2.673  0.8181  0.1754 -0.6940
13648TIP3    H162435   6.258   5.952   2.707  1.6559  0.6911 -1.4736
13648TIP3    H262436   6.357   5.877   2.620  2.0278 -1.3711  0.6134
13649TIP3   OH262437   3.340   1.589   4.598 -0.0561 -0.3324  0.4705
13649TIP3    H162438   3.370   1.501   4.574  1.3176  0.2987 -0.2844
13649TIP3    H262439   3.301   1.623   4.517  0.2872  0.0875  0.4794
13650TIP3   OH262440   2.330   3.713  14.017 -0.4155 -0.3773 -0.1897
13650TIP3    H162441   2.314   3.669  14.100  0.8406 -0.8596 -0.1832
13650TIP3    H262442   2.333   3.806  14.039 -0.2261 -0.4937  0.2760
13651TIP3   OH262443   5.738   5.526   0.422 -0.0248  0.0955 -1.0294
13651TIP3    H162444   5.772   5.615   0.409 -0.9361  0.3799 -1.5586
13651TIP3    H262445   5.814   5.476   0.454 -0.2238  1.8298  2.7489
13652TIP3   OH262446   4.898   0.815   1.861 -0.0401  0.0414  0.4522
13652TIP3    H162447   4.949   0.777   1.789 -0.0271 -1.6973  1.3507
13652TIP3    H262448   4.809   0.818   1.827  0.0276 -0.4170  0.2228
13653TIP3   OH262449   2.754   0.095  12.079  0.7053  0.4695 -0.5578
13653TIP3    H162450   2.720   0.011  12.107  0.1396  0.3806 -1.4729
13653TIP3    H262451   2.849   0.086  12.085  0.6344 -0.1030 -0.2990
13654TIP3   OH262452   5.688   1.485   3.703 -0.1478 -0.1243 -0.1627
13654TIP3    H162453   5.714   1.434   3.779 -0.1569  0.4355  0.2252
13654TIP3    H262454   5.596   1.463   3.690  0.3638 -1.8107 -1.3026
13655TIP3   OH262455   4.663   1.590  13.085  0.0636  0.5648  0.0992
13655TIP3    H162456   4.743   1.537  13.078 -1.6397 -2.2913  0.2980
13655TIP3    H262457   4.652   1.602  13.179  0.2081  0.8954  0.0746
13656TIP3   OH262458   4.747   4.793  13.773 -0.3377  0.5295  0.5476
13656TIP3    H162459   4.745   4.846  13.694  1.0705  0.5135  0.4743
13656TIP3    H262460   4.838   4.795  13.801 -0.3857 -1.2933  0.9299
13657TIP3   OH262461   0.059   2.293   4.580 -0.2208 -0.0862 -0.1686
13657TIP3    H162462  -0.018   2.346   4.560 -0.2403  0.5983  1.6004
13657TIP3    H262463   0.097   2.275   4.494 -1.3239  1.1101 -0.9586
13658TIP3   OH262464   1.913   1.813   0.675 -0.0908 -0.5080  0.1913
13658TIP3    H162465   1.841   1.779   0.620  1.3215 -1.7319 -0.9884
13658TIP3    H262466   1.991   1.770   0.641  1.0627 -0.1453  2.2434
13659TIP3   OH262467   0.059   6.551  13.889 -0.5622 -0.4931 -0.1694
13659TIP3    H162468  -0.024   6.537  13.845 -1.2348 -0.4425  1.0491
13659TIP3    H262469   0.049   6.509  13.975  1.1465 -1.6986 -0.4977
13660TIP3   OH262470   0.919   0.579   2.400 -0.3829 -0.6542  0.2442
13660TIP3    H162471   0.961   0.495   2.423 -0.1175 -0.3185  1.0167
13660TIP3    H262472   0.832   0.574   2.440 -1.0334 -1.2567 -1.1678
13661TIP3   OH262473   5.064   6.315  16.520  0.3519  0.2858 -0.0474
13661TIP3    H162474   5.153   6.342  16.541  0.0870 -1.4653  4.6534
13661TIP3    H262475   5.074   6.234  16.471  1.4819 -0.4176  1.2618
13662TIP3   OH262476   3.558   3.629  15.095 -0.3203  0.4287 -0.1333
13662TIP3    H162477   3.482   3.610  15.150 -0.8433  1.0380 -0.6414
13662TIP3    H262478   3.547   3.571  15.020  0.0292  0.0988  0.0667
13663TIP3   OH262479   6.380   6.189   3.134 -0.0665  0.5383  0.0580
13663TIP3    H162480   6.334   6.224   3.057  0.1057 -1.3810 -0.9999
13663TIP3    H262481   6.400   6.265   3.187  1.0119  2.1507 -2.4726
13664TIP3   OH262482   2.725   2.894  11.901 -0.2505 -0.2140  0.3609
13664TIP3    H162483   2.814   2.905  11.869 -0.5174  1.2446  0.0567
13664TIP3    H262484   2.713   2.799  11.907  0.3192 -0.5796 -2.4907
13665TIP3   OH262485   5.232   0.741   6.346 -0.0887  0.3159 -0.0622
13665TIP3    H162486   5.311   0.687   6.344 -0.6686 -0.5876  0.6402
13665TIP3    H262487   5.183   0.714   6.269  0.3889  1.0550 -0.6357
13666TIP3   OH262488   2.036   0.822   3.836  0.3041  0.7865  0.6425
13666TIP3    H162489   2.096   0.805   3.764 -0.2329  2.6329 -0.2814
13666TIP3    H262490   1.960   0.766   3.818  0.4892  0.6776  0.1953
13667TIP3   OH262491   4.184   1.319  15.303 -0.6477 -0.0538 -0.3305
13667TIP3    H162492   4.176   1.268  15.384  0.0848 -0.6699 -0.6359
13667TIP3    H262493   4.116   1.283  15.245 -0.7365 -0.0557 -0.2265
13668TIP3   OH262494   4.747   4.637   2.718 -0.0252 -0.3492 -0.3632
13668TIP3    H162495   4.660   4.672   2.698  0.1837 -0.1255 -0.8900
13668TIP3    H262496   4.729   4.560   2.774 -0.6544 -1.1960 -1.6716
13669TIP3   OH262497   2.026   5.612   1.848  0.3435  0.0868  0.4503
13669TIP3    H162498   1.999   5.694   1.807  2.8660  0.2644 -1.1153
13669TIP3    H262499   1.973   5.545   1.806  0.9951  0.5597 -1.2262
13670TIP3   OH262500   3.679   3.820   3.416 -0.3272 -0.0425  0.2572
13670TIP3    H162501   3.749   3.766   3.379  1.0598  2.0521 -0.3541
13670TIP3    H262502   3.703   3.832   3.508  0.3616  1.0004 -0.0474
13671TIP3   OH262503   2.366   4.165  12.667  0.3063  0.0234 -0.3675
13671TIP3    H162504   2.369   4.175  12.572 -1.7771 -3.0282 -0.8964
13671TIP3    H262505   2.274   4.179  12.690  0.0885 -2.4873  0.6325
13672TIP3   OH262506   3.257   3.748  13.926 -0.7003  0.3318  0.0181
13672TIP3    H162507   3.342   3.705  13.927 -2.4730 -3.5891 -0.2354
13672TIP3    H262508   3.261   3.810  13.852  1.7552  0.0077 -0.1698
13673TIP3   OH262509   0.996   5.212  11.782  0.4941 -0.5953 -0.6797
13673TIP3    H162510   1.003   5.117  11.778  0.1235 -0.6670  0.2060
13673TIP3    H262511   0.948   5.230  11.863  1.4552  0.3900 -0.2955
13674TIP3   OH262512   3.560   1.937   5.043  0.1275 -0.6503 -0.3936
13674TIP3    H162513   3.569   1.842   5.034  2.2385 -0.6019  0.4797
13674TIP3    H262514   3.486   1.948   5.102 -0.0690 -1.7643 -0.4018
13675TIP3   OH262515   0.461   0.185  11.417  0.2085  0.1621 -0.0664
13675TIP3    H162516   0.469   0.277  11.444 -0.0125  0.3560 -0.6408
13675TIP3    H262517   0.541   0.144  11.450 -0.5690  0.1300  1.8549
13676TIP3   OH262518   5.676   0.211   0.736  0.3403 -0.8974  0.3804
13676TIP3    H162519   5.650   0.299   0.761 -0.3543 -1.2969  1.0980
13676TIP3    H262520   5.624   0.153   0.791 -0.9862 -1.8235 -1.6923
13677TIP3   OH262521   4.024   3.080  16.251 -0.1677 -0.2195 -0.2954
13677TIP3    H162522   4.021   3.006  16.190  1.0363 -1.5714  1.2069
13677TIP3    H262523   4.113   3.078  16.286 -0.1780  1.8270 -0.0255
13678TIP3   OH262524   2.504   6.401   2.463  0.1199 -0.6240  0.0023
13678TIP3    H162525   2.465   6.453   2.392  0.8865  2.0378  1.3987
13678TIP3    H262526   2.595   6.389   2.437 -0.3021 -2.3926 -0.8462
13679TIP3   OH262527   1.223   5.724   0.101  0.4577  0.4918  0.9340
13679TIP3    H162528   1.163   5.726   0.175 -0.3744  1.2155  0.2619
13679TIP3    H262529   1.190   5.791   0.041  0.8027 -0.4304 -0.3253
13680TIP3   OH262530   3.012   2.811  12.125 -0.2993 -0.1319  0.7500
13680TIP3    H162531   3.086   2.763  12.162  0.9860 -0.4219 -1.9515
13680TIP3    H262532   2.952   2.743  12.094  0.1984  0.0076 -0.5692
13681TIP3   OH262533   6.398   1.835  16.848 -0.7053  0.2598 -0.6099
13681TIP3    H162534   6.310   1.861  16.821 -0.6663  0.3209 -0.6797
13681TIP3    H262535   6.453   1.853  16.771 -0.5037  0.9386 -0.3102
13682TIP3   OH262536   2.165   2.941  13.845  0.2473  0.5353  0.7501
13682TIP3    H162537   2.118   2.992  13.910  0.2654  0.3032  0.9453
13682TIP3    H262538   2.096   2.895  13.797  0.1177  1.8579 -0.3890
13683TIP3   OH262539   6.409   6.303   1.731  0.0188  0.3541 -0.0068
13683TIP3    H162540   6.473   6.242   1.693  0.3323 -0.8468  2.2623
13683TIP3    H262541   6.424   6.385   1.684  2.9467  0.0051  0.0847
13684TIP3   OH262542   1.299   4.412   3.272  0.0435  0.2543 -0.1970
13684TIP3    H162543   1.339   4.405   3.185 -0.5810  0.4771 -0.5068
13684TIP3    H262544   1.373   4.408   3.332  0.3146 -2.5014 -0.5935
13685TIP3   OH262545   6.611   0.304   4.136 -0.3740 -0.3878  0.5872
13685TIP3    H162546   6.597   0.335   4.047 -1.6768  0.1668  0.9619
13685TIP3    H262547   6.586   0.212   4.134 -2.2099  0.0650  0.7537
13686TIP3   OH262548   5.048   3.535  15.106 -0.6453 -0.8261  0.4134
13686TIP3    H162549   5.081   3.459  15.059  0.9884  0.0946  0.0332
13686TIP3    H262550   4.953   3.523  15.106 -0.5142 -2.1039 -0.9110
13687TIP3   OH262551   2.747   5.271   1.313  0.6051  0.3872  0.0328
13687TIP3    H162552   2.698   5.352   1.327  1.3322  0.6609  1.1130
13687TIP3    H262553   2.694   5.204   1.356  0.0240  0.2750 -0.8246
13688TIP3   OH262554   5.768   2.214   4.184  0.4542  0.2087  0.0274
13688TIP3    H162555   5.767   2.118   4.178 -0.5078  0.1546  0.7802
13688TIP3    H262556   5.713   2.243   4.112 -0.4787  0.1153  0.6827
13689TIP3   OH262557   3.795   1.702  17.290 -0.4464  0.0154 -0.3380
13689TIP3    H162558   3.831   1.771  17.346  1.4676 -1.5199  0.4854
13689TIP3    H262559   3.828   1.621  17.329 -1.5996 -1.3028 -1.9559
13690TIP3   OH262560   2.641   6.272  15.075 -0.1325  0.3301 -0.6062
13690TIP3    H162561   2.584   6.287  15.000 -0.1206  3.2284 -0.1582
13690TIP3    H262562   2.602   6.325  15.145  0.6232 -1.1907  1.0478
13691TIP3   OH262563   5.715   4.679   5.504 -0.3640  0.2704 -0.1712
13691TIP3    H162564   5.658   4.751   5.531 -0.5989  0.6211 -1.4890
13691TIP3    H262565   5.658   4.622   5.453  0.1744 -0.0202 -0.4600
13692TIP3   OH262566   5.120   2.350   4.521 -0.1455 -0.1686 -0.3984
13692TIP3    H162567   5.159   2.384   4.602  0.7575 -2.4839  0.2530
13692TIP3    H262568   5.193   2.306   4.477 -1.3792 -2.1288 -0.5857
13693TIP3   OH262569   5.717   1.648  15.361  0.0662  0.1681 -0.1878
13693TIP3    H162570   5.811   1.670  15.365 -0.1600  1.1276  0.2213
13693TIP3    H262571   5.711   1.561  15.401  1.1930 -1.3865 -3.0803
13694TIP3   OH262572   2.349   1.908  16.196 -0.3276 -0.1966  0.4194
13694TIP3    H162573   2.371   1.921  16.104 -0.5740 -3.0540 -0.1407
13694TIP3    H262574   2.253   1.910  16.199 -0.4076 -1.8891  0.2119
13695TIP3   OH262575   0.144   5.499   3.469 -0.1724 -0.3547 -0.3638
13695TIP3    H162576   0.087   5.575   3.462 -0.7572 -0.8541 -1.1439
13695TIP3    H262577   0.120   5.458   3.552 -0.5937 -0.2865 -0.4520
13696TIP3   OH262578   2.668   1.029  17.135 -0.3655 -0.1290  0.0551
13696TIP3    H162579   2.731   1.101  17.129 -2.0170  1.3348 -0.9683
13696TIP3    H262580   2.720   0.950  17.124  1.4920  0.9053  0.9800
13697TIP3   OH262581   0.700   2.311  12.837 -0.1498  0.1629 -0.8487
13697TIP3    H162582   0.783   2.343  12.873  0.7797 -1.1598 -1.7328
13697TIP3    H262583   0.642   2.304  12.913 -0.0591  2.7906 -0.4670
13698TIP3   OH262584   4.160   5.646   1.095  0.5730 -0.8852 -0.0526
13698TIP3    H162585   4.245   5.641   1.139  0.8271 -0.5034 -0.4876
13698TIP3    H262586   4.143   5.740   1.086  0.2310 -0.9590 -0.2139
13699TIP3   OH262587   1.221   5.795   4.057 -0.6170 -0.3795  0.3643
13699TIP3    H162588   1.223   5.817   4.150  0.5383 -1.2361  0.5704
13699TIP3    H262589   1.312   5.801   4.029 -0.9709 -0.0258 -0.7484
13700TIP3   OH262590   4.768   3.430   4.860  0.0254  0.3152  0.2560
13700TIP3    H162591   4.707   3.500   4.839 -0.0626 -0.0033 -0.6045
13700TIP3    H262592   4.805   3.454   4.945 -0.5497  1.0201  0.3124
13701TIP3   OH262593   5.465   3.173   2.407 -0.3694 -0.1759 -0.4137
13701TIP3    H162594   5.523   3.231   2.457  1.3270 -0.9536 -1.4047
13701TIP3    H262595   5.505   3.087   2.415 -1.6358 -0.8114 -0.7897
13702TIP3   OH262596   6.160   2.048  12.673  1.0721 -0.1100 -0.2685
13702TIP3    H162597   6.255   2.041  12.666  1.1474  1.5977 -1.3310
13702TIP3    H262598   6.142   2.142  12.677 -0.4947 -0.4011  1.4856
13703TIP3   OH262599   4.101   6.683   1.241 -0.0518 -0.1434  0.0084
13703TIP3    H162600   4.196   6.673   1.240 -0.1421 -1.2342  0.3709
13703TIP3    H262601   4.069   6.606   1.194 -0.7500  0.4504 -0.5157
13704TIP3   OH262602   2.115   3.437   4.305 -0.2531  0.5271 -0.0185
13704TIP3    H162603   2.125   3.395   4.219  1.5379 -1.6811  1.1503
13704TIP3    H262604   2.048   3.384   4.349 -0.3176  0.9179  0.3507
13705TIP3   OH262605   2.007   1.159  14.300 -0.2329  0.1562 -0.4694
13705TIP3    H162606   2.097   1.146  14.269 -0.1215 -0.0844 -0.0575
13705TIP3    H262607   1.963   1.076  14.280  0.7424 -1.4014  3.0745
13706TIP3   OH262608   2.825   3.182  15.428 -0.1206  0.1234 -0.4918
13706TIP3    H162609   2.752   3.226  15.385 -1.6413  0.0334  1.7794
13706TIP3    H262610   2.795   3.091  15.438  0.9920 -0.3061 -0.9354
13707TIP3   OH262611   2.806   1.141  13.672  0.1341 -0.2411  0.8801
13707TIP3    H162612   2.799   1.125  13.766 -1.5634  0.6048  0.9410
13707TIP3    H262613   2.820   1.054  13.634  0.2658 -0.6607  1.8633
13708TIP3   OH262614   3.514   6.114   4.553  0.1411  0.3087 -0.1549
13708TIP3    H162615   3.529   6.195   4.506 -0.5535 -0.0209 -0.9625
13708TIP3    H262616   3.549   6.046   4.496  0.6008  0.0161  0.4550
13709TIP3   OH262617   0.416   5.686   1.031  0.2236  0.2457 -0.0732
13709TIP3    H162618   0.432   5.604   0.986 -0.6726 -0.5107  0.9496
13709TIP3    H262619   0.400   5.750   0.961 -0.8197 -0.8206 -0.8343
13710TIP3   OH262620   0.359   4.507  13.803  0.2652 -0.3776 -0.2886
13710TIP3    H162621   0.295   4.512  13.874  1.2570  1.8816  0.5727
13710TIP3    H262622   0.442   4.491  13.847  0.7828  0.2709 -0.9985
13711TIP3   OH262623   5.601   1.636  16.840 -0.1028  0.7552 -0.2913
13711TIP3    H162624   5.628   1.724  16.865  0.6477  1.2123 -2.5134
13711TIP3    H262625   5.526   1.649  16.783 -0.0133 -0.0307 -0.6027
13712TIP3   OH262626   0.719   0.027   3.293 -0.9836  0.6945  0.2652
13712TIP3    H162627   0.758   0.109   3.322 -0.3529  0.1804  0.9050
13712TIP3    H262628   0.637   0.021   3.343 -1.7542  1.6213 -0.8502
13713TIP3   OH262629   2.237   5.759   3.105  0.0158 -0.0123  0.2574
13713TIP3    H162630   2.180   5.814   3.160  1.1398  0.5408  0.9003
13713TIP3    H262631   2.266   5.689   3.163 -0.8142 -0.8948 -0.3602
13714TIP3   OH262632   0.347   3.181  12.155 -0.3731 -0.0668 -0.4165
13714TIP3    H162633   0.396   3.102  12.132 -1.3778 -1.0310  0.6536
13714TIP3    H262634   0.343   3.231  12.073  0.8172 -0.8217 -0.9514
13715TIP3   OH262635   5.558   3.681  15.172 -0.5429  0.0669 -0.3124
13715TIP3    H162636   5.623   3.611  15.174 -1.6859 -1.0216  1.9011
13715TIP3    H262637   5.595   3.746  15.112  2.3862 -0.6958  0.5149
13716TIP3   OH262638   2.589   5.404  12.123 -0.3145 -0.4550 -0.2430
13716TIP3    H162639   2.541   5.348  12.062 -1.8629  0.6387 -0.0742
13716TIP3    H262640   2.676   5.413  12.083 -0.3291 -2.1527 -0.7611
13717TIP3   OH262641   0.642   3.203  12.743 -0.0112 -0.0663 -0.5830
13717TIP3    H162642   0.622   3.222  12.651 -0.7968 -1.4080 -0.7225
13717TIP3    H262643   0.579   3.256  12.793  1.4570  1.9100 -0.7106
13718TIP3   OH262644   5.957   3.887  17.037 -0.2224 -0.9570 -0.2391
13718TIP3    H162645   6.015   3.929  16.973 -1.3794  0.1296 -0.6251
13718TIP3    H262646   5.939   3.956  17.100 -1.2630 -1.2069 -0.2539
13719TIP3   OH262647   0.201   5.887   5.007  0.3899  0.0035 -1.1164
13719TIP3    H162648   0.216   5.945   4.932 -0.6691  0.3910 -1.0480
13719TIP3    H262649   0.241   5.933   5.081 -0.8315  0.9059 -0.9783
13720TIP3   OH262650   0.074   6.285  12.447  0.3671  0.0670  0.4754
13720TIP3    H162651   0.050   6.197  12.476  0.7675 -0.1315  0.2186
13720TIP3    H262652  -0.010   6.331  12.439  0.1816 -0.1878  0.9325
13721TIP3   OH262653   4.233   0.257  14.631 -0.2383  0.1851  0.1484
13721TIP3    H162654   4.159   0.240  14.573 -1.5355 -0.7357  1.9482
13721TIP3    H262655   4.300   0.297  14.575 -1.4953 -0.4051 -1.8723
13722TIP3   OH262656   1.571   1.424   0.876 -0.2425  1.0169  0.3101
13722TIP3    H162657   1.651   1.470   0.851  1.1622  0.6374  3.5661
13722TIP3    H262658   1.500   1.477   0.839  1.4280  1.3231 -2.7264
13723TIP3   OH262659   2.216   3.942   2.582 -0.2808  0.1569  0.0115
13723TIP3    H162660   2.266   3.943   2.500 -1.1366  0.7867 -0.5160
13723TIP3    H262661   2.197   3.850   2.598 -0.9641  0.0958 -1.0408
13724TIP3   OH262662   3.101   3.874   2.346 -0.1531  0.0789 -0.1222
13724TIP3    H162663   3.051   3.813   2.402 -0.9982  0.5971 -0.2920
13724TIP3    H262664   3.132   3.819   2.274 -1.7752  0.0083 -0.8189
13725TIP3   OH262665   3.260   5.715   0.143 -0.2679 -0.3159 -0.0931
13725TIP3    H162666   3.281   5.626   0.115  0.6143  0.0008 -0.4891
13725TIP3    H262667   3.302   5.771   0.077 -1.7669  0.3808 -0.5075
13726TIP3   OH262668   5.227   1.143  16.077 -0.0216  0.5242 -0.1678
13726TIP3    H162669   5.276   1.208  16.127 -1.1196  0.9905  0.3289
13726TIP3    H262670   5.164   1.195  16.026 -0.5286 -0.1092 -0.1939
13727TIP3   OH262671   6.188   4.637   3.814  0.1901  0.0846  0.0001
13727TIP3    H162672   6.265   4.694   3.818 -1.0576  1.8899 -0.6574
13727TIP3    H262673   6.125   4.678   3.873 -0.4669 -1.0950  0.1425
13728TIP3   OH262674   0.696   2.123  12.597 -0.0200  0.3466 -0.8380
13728TIP3    H162675   0.677   2.184  12.668  0.8935 -0.4152  0.1191
13728TIP3    H262676   0.645   2.045  12.618  1.1992 -0.3403 -0.2949
13729TIP3   OH262677   4.064   2.844  13.278  0.5584  0.4949  0.0004
13729TIP3    H162678   4.025   2.815  13.195 -0.8369 -1.3525  1.2162
13729TIP3    H262679   3.990   2.871  13.331  1.1065 -0.9132  1.5720
13730TIP3   OH262680   5.472   1.114  15.181 -0.2995  0.4119  0.9221
13730TIP3    H162681   5.502   1.204  15.173 -1.2663  0.7298  0.7607
13730TIP3    H262682   5.377   1.120  15.180 -0.4441 -0.7948 -1.5754
13731TIP3   OH262683   0.368   3.131   1.463 -0.1787 -0.1181 -0.2075
13731TIP3    H162684   0.428   3.139   1.388  0.6413  0.1530  0.4584
13731TIP3    H262685   0.401   3.055   1.512 -1.2042 -0.7937 -0.5456
13732TIP3   OH262686   4.119   5.033  11.240  0.2284 -0.1343  0.2530
13732TIP3    H162687   4.145   5.049  11.150  1.6122 -0.7035  0.5297
13732TIP3    H262688   4.201   5.024  11.288 -0.4811  0.7114  1.6865
13733TIP3   OH262689   0.704   0.977  14.149 -0.0481 -0.5991 -0.1772
13733TIP3    H162690   0.773   1.016  14.204  1.0159  0.2856 -2.0279
13733TIP3    H262691   0.684   1.045  14.085 -1.3189 -1.5482 -0.8265
13734TIP3   OH262692   3.906   4.450   3.851 -0.9324  0.1411 -0.2205
13734TIP3    H162693   3.945   4.374   3.809 -0.0868 -0.0681  0.8907
13734TIP3    H262694   3.888   4.511   3.779 -0.4979 -0.6183 -0.9869
13735TIP3   OH262695   5.588   2.215  14.780 -0.0786  0.3191 -0.3480
13735TIP3    H162696   5.553   2.296  14.818 -0.2785  0.6596 -1.2346
13735TIP3    H262697   5.536   2.146  14.820 -0.3987  0.6788 -0.1290
13736TIP3   OH262698   2.992   4.987   1.680  0.2280  0.4018 -0.5648
13736TIP3    H162699   2.967   4.903   1.718  4.5321 -1.3321 -0.9899
13736TIP3    H262700   2.990   5.048   1.754 -2.9360  0.0865 -0.2429
13737TIP3   OH262701   2.767   4.153  11.976  0.0328  0.5620  0.5724
13737TIP3    H162702   2.825   4.116  11.910  0.3218  1.6717  0.1683
13737TIP3    H262703   2.816   4.145  12.058 -0.3937 -0.9648  0.7076
13738TIP3   OH262704   5.186   3.252  13.772 -0.3829 -0.1195 -0.4688
13738TIP3    H162705   5.231   3.206  13.843 -0.6397  0.8720  0.3726
13738TIP3    H262706   5.156   3.183  13.713 -1.2441 -1.0601  1.0168
13739TIP3   OH262707   1.153   3.267   1.366 -0.1945  0.2609 -0.4256
13739TIP3    H162708   1.182   3.223   1.287 -0.4091  0.1680 -0.4549
13739TIP3    H262709   1.095   3.337   1.335  0.7242  1.0446 -0.4259
13740TIP3   OH262710   6.383   4.861   1.595  0.6861  0.3941 -0.1745
13740TIP3    H162711   6.358   4.834   1.683 -2.3606  1.6619 -0.5394
13740TIP3    H262712   6.461   4.916   1.608  0.1184  0.8051  1.7493
13741TIP3   OH262713   2.649   4.890   4.963 -0.8126  0.2253  0.3112
13741TIP3    H162714   2.629   4.916   5.053 -2.7717  0.9365 -0.2709
13741TIP3    H262715   2.621   4.799   4.957 -0.9453  0.2626  0.3595
13742TIP3   OH262716   4.868   5.382  14.147  0.0613  0.4674  0.9496
13742TIP3    H162717   4.847   5.297  14.108 -1.2369  1.2923 -0.2082
13742TIP3    H262718   4.964   5.386  14.144  0.2658 -1.5424  2.3559
13743TIP3   OH262719   1.822   1.462   5.058 -0.1277 -0.0685  0.0785
13743TIP3    H162720   1.778   1.485   5.140 -0.9477  0.7837 -0.5714
13743TIP3    H262721   1.823   1.544   5.008  1.2686 -0.3311 -0.3547
13744TIP3   OH262722   6.740   0.918   2.117 -0.2207 -0.3884 -0.1183
13744TIP3    H162723   6.716   1.010   2.110 -1.3143 -0.5324  1.2343
13744TIP3    H262724   6.758   0.905   2.210  1.0989 -1.2904 -0.4619
13745TIP3   OH262725   2.306   5.301  17.086  0.0807 -0.1457  0.1762
13745TIP3    H162726   2.260   5.251  17.019  1.2567  0.4132 -1.0988
13745TIP3    H262727   2.384   5.335  17.042  1.0787 -0.0257  1.9158
13746TIP3   OH262728   1.901   1.446  11.320 -0.0853 -0.2653  0.6877
13746TIP3    H162729   1.876   1.413  11.407  0.7700 -4.2701 -0.3800
13746TIP3    H262730   1.818   1.457  11.274 -0.4812 -3.0126  0.5524
13747TIP3   OH262731   2.460   2.677  10.402  0.1804  0.4560 -0.7740
13747TIP3    H162732   2.409   2.604  10.436 -0.7686  1.4255 -0.0050
13747TIP3    H262733   2.512   2.640  10.331  0.4436 -1.1460  0.2048
13748TIP3   OH262734   4.315   2.407   5.255  0.1508 -0.4553 -0.2609
13748TIP3    H162735   4.358   2.492   5.243  0.7863 -0.7214  0.0888
13748TIP3    H262736   4.309   2.370   5.167  0.3224 -0.2581 -0.3565
13749TIP3   OH262737   0.461   2.490  13.670  0.0744  0.5727  0.2073
13749TIP3    H162738   0.547   2.462  13.703  0.8012  2.2699 -0.1578
13749TIP3    H262739   0.429   2.551  13.736  0.3743  1.9975 -0.9197
13750TIP3   OH262740   5.294   4.525  14.563 -0.0504  0.3051 -0.3884
13750TIP3    H162741   5.279   4.477  14.482 -0.3327  2.3300 -1.6070
13750TIP3    H262742   5.207   4.556  14.589 -0.2876 -1.8859  1.8098
13751TIP3   OH262743   1.506   3.221   3.742  0.4483  0.4538  0.3425
13751TIP3    H162744   1.513   3.221   3.646  0.6635  1.5924  0.3444
13751TIP3    H262745   1.576   3.162   3.771 -0.0592 -0.4381 -0.2202
13752TIP3   OH262746   1.086   5.475  13.510 -0.2213 -0.0479  0.2454
13752TIP3    H162747   1.126   5.442  13.590  1.1814  1.0917  0.0441
13752TIP3    H262748   0.993   5.483  13.531  0.1075  0.1506  1.7290
13753TIP3   OH262749   6.160   3.556   1.172 -0.1664 -0.1490  0.0928
13753TIP3    H162750   6.080   3.591   1.132 -1.9703 -0.9950  2.6814
13753TIP3    H262751   6.186   3.485   1.114 -3.3362 -2.1055  0.7899
13754TIP3   OH262752   2.907   3.104  14.896  0.0338  0.1985  0.3419
13754TIP3    H162753   2.914   3.070  14.985  2.8499 -2.1451 -0.6153
13754TIP3    H262754   2.817   3.137  14.890 -0.5586 -0.4210  3.7081
13755TIP3   OH262755   6.813   5.025   6.550  0.0566 -0.9588 -0.3131
13755TIP3    H162756   6.777   4.937   6.562  1.1947 -1.5171 -0.8815
13755TIP3    H262757   6.846   5.025   6.461 -2.8039  1.1234 -1.5090
13756TIP3   OH262758   1.000   0.433  17.260  0.2702  0.2498  0.1748
13756TIP3    H162759   1.013   0.403  17.170  0.7719  1.3198 -0.1224
13756TIP3    H262760   1.086   0.427  17.300  0.4157  1.4340  0.0574
13757TIP3   OH262761   1.244   1.924   3.312 -0.0163 -0.0203  0.4854
13757TIP3    H162762   1.304   1.947   3.383  1.2667 -0.8903 -0.2828
13757TIP3    H262763   1.219   1.833   3.330  0.5512 -0.3454 -0.3160
13758TIP3   OH262764   6.286   4.814  13.742 -0.2992 -1.0283  0.4774
13758TIP3    H162765   6.275   4.887  13.681  0.3777  0.7351  2.3577
13758TIP3    H262766   6.264   4.737  13.690  1.1184  0.2450 -2.2594
13759TIP3   OH262767   3.630   3.764  17.188 -0.3243  0.3653 -0.2803
13759TIP3    H162768   3.681   3.838  17.220  0.1894  1.2083 -2.7772
13759TIP3    H262769   3.539   3.791  17.202 -0.1260  0.8769  0.0616
13760TIP3   OH262770   2.644   6.011  14.533 -0.5415 -0.4295 -0.1786
13760TIP3    H162771   2.653   5.985  14.624  0.0684  0.0172 -0.1023
13760TIP3    H262772   2.712   6.078  14.520 -0.2510 -0.8818 -1.1037
13761TIP3   OH262773   0.638   5.806  15.083 -0.2163 -0.8698  0.6017
13761TIP3    H162774   0.546   5.831  15.090 -0.6721 -1.3716 -2.2539
13761TIP3    H262775   0.664   5.783  15.172 -2.5281  0.2989  1.6656
13762TIP3   OH262776   2.011   4.633   5.653 -0.0261 -0.0067 -0.1341
13762TIP3    H162777   1.930   4.676   5.681  0.6125  0.5231  0.9540
13762TIP3    H262778   2.000   4.542   5.680 -0.1480  0.1194  0.2455
13763TIP3   OH262779   0.383   3.082   6.175  0.3763 -0.3313  0.0453
13763TIP3    H162780   0.389   3.020   6.248 -1.3579 -1.4003 -0.6466
13763TIP3    H262781   0.291   3.079   6.149  1.0514 -0.4820 -2.6133
13764TIP3   OH262782   2.652   0.744   4.442  0.4615 -0.2139  0.3465
13764TIP3    H162783   2.641   0.737   4.537 -0.1335  1.6794  0.4470
13764TIP3    H262784   2.694   0.661   4.417  0.8401 -0.6551  2.2790
13765TIP3   OH262785   4.781   0.097   1.082  0.4037 -0.0811 -0.1761
13765TIP3    H162786   4.749   0.184   1.054  0.0194 -0.3444 -0.5745
13765TIP3    H262787   4.858   0.116   1.135  0.5999  0.4908 -0.6452
13766TIP3   OH262788   0.137   6.557  17.120 -0.1578 -0.2082 -0.2579
13766TIP3    H162789   0.206   6.490  17.124 -1.2586 -1.3304  0.7828
13766TIP3    H262790   0.076   6.533  17.190 -1.2321  1.1896 -0.6678
13767TIP3   OH262791   1.259   3.718   3.482 -0.0091 -0.3586 -0.2125
13767TIP3    H162792   1.222   3.723   3.394 -3.2790  0.1719  1.0494
13767TIP3    H262793   1.214   3.643   3.523 -1.3046  1.5265  2.0664
13768TIP3   OH262794   0.706   2.734  11.815 -0.5020 -0.1519  0.4443
13768TIP3    H162795   0.710   2.742  11.720  0.6029  0.0986  0.5093
13768TIP3    H262796   0.786   2.687  11.839 -1.3080 -1.2055  1.1496
13769TIP3   OH262797   6.187   4.107   4.354  0.4032  0.5942  0.1743
13769TIP3    H162798   6.106   4.151   4.329  0.3760 -0.1089 -1.0803
13769TIP3    H262799   6.222   4.073   4.271  1.4658  0.0395  0.8323
13770TIP3   OH262800   6.631   5.111  17.043 -0.1775  0.1548 -0.0318
13770TIP3    H162801   6.711   5.163  17.042 -0.1856  0.1954  0.9662
13770TIP3    H262802   6.585   5.136  16.962  1.8007 -1.4730 -1.7781
13771TIP3   OH262803   4.940   2.558   4.776  1.0182  0.4043  0.7084
13771TIP3    H162804   4.868   2.617   4.799  0.8062  0.7848 -0.8180
13771TIP3    H262805   4.907   2.470   4.794  0.0459  0.5602 -0.2552
13772TIP3   OH262806   0.643   6.325   1.047 -0.2592  0.2221  0.4052
13772TIP3    H162807   0.698   6.257   1.086 -0.8652 -0.2968  0.3761
13772TIP3    H262808   0.674   6.406   1.087  2.6072  0.4119 -1.8498
13773TIP3   OH262809   5.250   2.767   2.075 -1.0626  1.1032  0.0982
13773TIP3    H162810   5.267   2.779   2.168  0.1573  0.1466  0.0313
13773TIP3    H262811   5.327   2.721   2.043 -2.4912 -0.7311 -0.9104
13774TIP3   OH262812   6.154   0.757   5.079 -0.2000  0.9607 -0.0419
13774TIP3    H162813   6.148   0.753   4.984  0.4985  0.9423 -0.0919
13774TIP3    H262814   6.134   0.668   5.108 -1.1780  1.1498 -0.1180
13775TIP3   OH262815   2.197   3.684   0.677 -0.1002 -0.2609 -0.4461
13775TIP3    H162816   2.243   3.606   0.709  1.3830  0.0893 -1.6110
13775TIP3    H262817   2.186   3.739   0.755 -0.2559 -1.1689  0.1959
13776TIP3   OH262818   4.242   5.800  12.989  0.3271 -0.5602  0.2658
13776TIP3    H162819   4.239   5.706  13.005 -0.5227 -0.4108  1.0915
13776TIP3    H262820   4.251   5.808  12.894 -0.6539 -1.4656  0.0795
13777TIP3   OH262821   4.701   2.984   1.129 -0.3330  0.1344  0.0712
13777TIP3    H162822   4.708   3.035   1.048 -1.7835 -1.2863 -1.0221
13777TIP3    H262823   4.609   2.958   1.133  0.0966 -1.3718  1.2029
13778TIP3   OH262824   1.581   3.964  10.868 -0.5282  0.0215  0.2954
13778TIP3    H162825   1.652   4.000  10.813 -2.4580  1.6479 -1.3134
13778TIP3    H262826   1.581   3.870  10.849  0.2106  0.2390 -0.8910
13779TIP3   OH262827   3.009   6.601  11.498 -0.4078  0.0084  0.4284
13779TIP3    H162828   2.944   6.558  11.444  0.6728  1.2596 -2.0485
13779TIP3    H262829   3.072   6.532  11.520 -1.3309 -0.7048  0.9252
13780TIP3   OH262830   2.508   6.746  10.631 -0.3774  0.1050 -0.3108
13780TIP3    H162831   2.565   6.816  10.598 -0.6506  0.2985 -0.3718
13780TIP3    H262832   2.558   6.666  10.615 -0.5265  0.1874 -1.2595
13781TIP3   OH262833   0.125   1.867   4.436 -0.2476  0.2893  0.1186
13781TIP3    H162834   0.060   1.797   4.447  0.3067 -0.3077 -0.3676
13781TIP3    H262835   0.073   1.944   4.413 -0.6447 -0.9971 -4.2664
13782TIP3   OH262836   0.702   6.369   0.234 -0.2687 -0.2237 -0.2191
13782TIP3    H162837   0.610   6.381   0.208  0.0710  0.3919 -1.2311
13782TIP3    H262838   0.731   6.457   0.258 -0.2265 -0.5944  1.1258
13783TIP3   OH262839   2.472   6.588   2.704  0.4077 -0.7203 -0.2471
13783TIP3    H162840   2.458   6.529   2.630  2.2498 -1.4881 -0.0256
13783TIP3    H262841   2.535   6.653   2.671  0.0690 -0.1641  0.1896
13784TIP3   OH262842   3.613   0.134   2.658  0.0410 -0.5411  0.3466
13784TIP3    H162843   3.544   0.145   2.592  0.4817  0.3997  0.0196
13784TIP3    H262844   3.579   0.067   2.718  0.0034 -2.1237 -1.3306
13785TIP3   OH262845   2.356   5.371  11.386 -0.0745  0.1285  1.2448
13785TIP3    H162846   2.439   5.325  11.371 -0.1734 -0.3460  2.0432
13785TIP3    H262847   2.290   5.315  11.345 -0.2216 -0.5987  2.4175
13786TIP3   OH262848   4.054   1.615  14.381  0.8190 -0.0905  0.2840
13786TIP3    H162849   4.004   1.553  14.434  1.2835 -0.1520  0.6490
13786TIP3    H262850   3.991   1.646  14.315  0.7798 -1.5114 -0.3881
13787TIP3   OH262851   5.737   4.361   4.836 -0.2683  0.1148  0.5353
13787TIP3    H162852   5.786   4.357   4.918 -0.3492  1.5336  0.6675
13787TIP3    H262853   5.804   4.374   4.769 -0.2376 -0.6922  0.3889
13788TIP3   OH262854   2.324   5.846   2.819  0.7639  0.5047 -0.3036
13788TIP3    H162855   2.287   5.855   2.907  0.3922  1.7753 -0.5703
13788TIP3    H262856   2.372   5.763   2.822 -1.2810 -0.7457  0.3478
13789TIP3   OH262857   3.039   1.142  13.140  0.8472  0.3962  0.4009
13789TIP3    H162858   2.965   1.189  13.178  1.0891  0.5695  0.6643
13789TIP3    H262859   3.015   1.050  13.147  0.1584  0.4900 -0.5589
13790TIP3   OH262860   3.075   0.215  12.729 -0.0712 -0.7013  0.3352
13790TIP3    H162861   3.132   0.180  12.797  0.2023  0.1594  0.5710
13790TIP3    H262862   2.994   0.239  12.775  0.1843  0.0574  0.4132
13791TIP3   OH262863   4.413   3.355   4.322 -1.0677 -0.3579 -0.2366
13791TIP3    H162864   4.386   3.407   4.246 -1.5689 -0.8792 -0.4246
13791TIP3    H262865   4.452   3.276   4.284  1.6441  0.7509 -0.0092
13792TIP3   OH262866   0.219   5.350  11.525  0.0311  0.2827 -0.4053
13792TIP3    H162867   0.211   5.430  11.472 -0.7417 -0.2136 -1.0584
13792TIP3    H262868   0.281   5.296  11.476  1.0420  0.7095  0.3545
13793TIP3   OH262869   3.007   1.010   3.427 -0.1107 -0.8200  0.7450
13793TIP3    H162870   2.973   1.099   3.414 -0.1660 -0.8308  0.8160
13793TIP3    H262871   2.930   0.954   3.422  0.1186 -1.0347 -0.9686
13794TIP3   OH262872   0.173   5.587   6.309  0.7126  0.2408  0.2373
13794TIP3    H162873   0.182   5.492   6.304  1.0467  0.1107  2.3319
13794TIP3    H262874   0.084   5.601   6.341  0.5779  0.6560 -0.3007
13795TIP3   OH262875   6.461   3.257   6.636 -0.0406 -0.1401  0.3341
13795TIP3    H162876   6.462   3.242   6.542  0.5010  0.0948  0.2943
13795TIP3    H262877   6.430   3.175   6.674  3.4313 -1.7343  0.1833
13796TIP3   OH262878   2.925   0.899   1.069 -0.2223 -0.0265  0.4339
13796TIP3    H162879   2.866   0.831   1.037  0.7701 -0.3244 -0.8458
13796TIP3    H262880   3.009   0.856   1.077  0.4977  1.0962 -0.6871
13797TIP3   OH262881   6.325   4.627   2.642  0.1866  0.3100 -0.1896
13797TIP3    H162882   6.343   4.534   2.656 -1.5034  0.1606  1.2774
13797TIP3    H262883   6.372   4.648   2.561 -1.4408 -2.4775 -2.0236
13798TIP3   OH262884   2.965   3.459   2.363 -0.0792 -0.2437 -0.0924
13798TIP3    H162885   2.883   3.433   2.321  0.7364 -2.8118 -0.2620
13798TIP3    H262886   2.938   3.516   2.435 -2.1372 -1.7862  0.4523
13799TIP3   OH262887   3.991   5.863  12.747 -0.1670 -0.3211 -0.0084
13799TIP3    H162888   4.004   5.919  12.671  1.4634  0.6614  0.9481
13799TIP3    H262889   4.058   5.795  12.738  0.1208 -0.1247  0.5946
13800TIP3   OH262890   5.289   5.658   2.239 -0.2275  0.0441  0.1070
13800TIP3    H162891   5.354   5.678   2.307  1.3834 -0.7075 -1.1173
13800TIP3    H262892   5.218   5.615   2.285  1.2095 -1.2590  1.2389
13801TIP3   OH262893   0.101   6.410   2.279  0.3779 -1.0003  0.0588
13801TIP3    H162894   0.096   6.505   2.267 -2.4343 -1.0114  0.4403
13801TIP3    H262895   0.168   6.397   2.346 -0.2144  0.8534  1.0801
13802TIP3   OH262896   5.754   2.870   4.508  0.5534  0.2612 -0.3941
13802TIP3    H162897   5.766   2.908   4.595  2.5003  0.3501 -0.6716
13802TIP3    H262898   5.659   2.862   4.498  0.3076 -0.1963  1.9170
13803TIP3   OH262899   2.281   4.543  13.340 -0.1913 -0.0765  0.3235
13803TIP3    H162900   2.366   4.563  13.378  1.9763 -0.6243 -3.6372
13803TIP3    H262901   2.285   4.449  13.323 -1.6153 -0.1080  0.0827
13804TIP3   OH262902   1.799   2.442   6.366 -0.1219 -0.5735  0.3994
13804TIP3    H162903   1.817   2.395   6.447  2.4915 -1.2479 -0.4392
13804TIP3    H262904   1.819   2.378   6.297  0.9046  0.9118 -0.7575
13805TIP3   OH262905   2.241   0.820   4.007 -0.1118 -0.0546  0.3426
13805TIP3    H162906   2.221   0.900   4.056  0.5644  0.0792  0.4110
13805TIP3    H262907   2.177   0.820   3.936  0.5939  1.1756 -0.3420
13806TIP3   OH262908   0.485   3.155  10.716  0.6944 -0.1719 -0.3801
13806TIP3    H162909   0.522   3.067  10.714  0.0268 -0.4561 -0.3984
13806TIP3    H262910   0.533   3.202  10.647  2.7215  0.1841  1.1921
13807TIP3   OH262911   5.974   5.669   1.268  0.1637 -0.2503 -0.0481
13807TIP3    H162912   5.916   5.736   1.233  1.9444 -0.1155 -3.1220
13807TIP3    H262913   6.031   5.716   1.328 -1.6638 -0.0511  1.6153
13808TIP3   OH262914   5.751   4.439   1.248 -0.0732 -0.5055 -0.0378
13808TIP3    H162915   5.797   4.437   1.164  0.8520 -1.2131  0.4582
13808TIP3    H262916   5.721   4.529   1.257 -0.1403 -0.4112 -1.1037
13809TIP3   OH262917   0.241   6.103  15.899 -0.6990  0.0135  0.1917
13809TIP3    H162918   0.174   6.065  15.843 -0.5654  0.9921 -0.6635
13809TIP3    H262919   0.194   6.170  15.949 -0.5635 -0.0092  0.3492
13810TIP3   OH262920   4.105   6.187  10.470  0.4803 -0.3212 -0.3368
13810TIP3    H162921   4.135   6.152  10.554  0.1183  1.2051  0.4707
13810TIP3    H262922   4.167   6.152  10.406  3.2006  1.5402  1.0823
13811TIP3   OH262923   3.880   2.654   3.512 -0.0072 -0.5729 -0.2603
13811TIP3    H162924   3.812   2.689   3.454 -0.2294 -0.7096 -0.0858
13811TIP3    H262925   3.954   2.637   3.455  0.7591  1.8331 -0.0960
13812TIP3   OH262926   1.484   3.218  13.847 -0.1473  0.8244  0.1279
13812TIP3    H162927   1.574   3.195  13.868  0.3320  1.9387 -0.5903
13812TIP3    H262928   1.439   3.222  13.932 -0.3995 -2.8576  0.3465
13813TIP3   OH262929   3.589   0.574   2.625 -0.0831  0.1412 -0.3530
13813TIP3    H162930   3.683   0.557   2.626  0.2596  1.4491 -2.3508
13813TIP3    H262931   3.583   0.670   2.624 -1.5433  0.1288  1.8506
13814TIP3   OH262932   5.505   4.637   4.666  0.8033 -0.0061 -1.3585
13814TIP3    H162933   5.469   4.594   4.744  1.6742 -1.8943 -1.9475
13814TIP3    H262934   5.510   4.730   4.691 -2.1463  0.0199 -0.4089
13815TIP3   OH262935   5.077   0.076   1.964 -0.2230 -0.0281  0.2506
13815TIP3    H162936   5.120  -0.004   1.994 -0.3561 -1.0266 -2.0199
13815TIP3    H262937   5.143   0.121   1.913 -1.3001 -0.8441 -2.0179
13816TIP3   OH262938   6.741   4.217   1.124  0.4966  0.3635 -0.1208
13816TIP3    H162939   6.656   4.257   1.105  1.3563  1.7557 -1.2850
13816TIP3    H262940   6.760   4.244   1.214  0.8147  2.2818 -0.6993
13817TIP3   OH262941   5.543   2.303   3.326 -0.1422 -0.1892  0.7297
13817TIP3    H162942   5.603   2.235   3.359  1.1523  0.8561  0.6316
13817TIP3    H262943   5.552   2.375   3.389  0.1234  0.6921 -0.2846
13818TIP3   OH262944   0.012   0.972   5.089 -0.2847 -0.0174  0.0532
13818TIP3    H162945   0.022   1.064   5.063 -1.2531 -0.4874 -2.3226
13818TIP3    H262946  -0.018   0.976   5.180  3.0317  1.8288  1.2438
13819TIP3   OH262947   5.706   6.805  11.227 -0.7031 -0.1452 -0.1586
13819TIP3    H162948   5.630   6.855  11.199 -0.3192  1.2740  1.1880
13819TIP3    H262949   5.774   6.828  11.164 -1.0076 -0.3512 -0.5652
13820TIP3   OH262950   4.620   5.136   3.747 -0.2287 -0.1817 -0.5737
13820TIP3    H162951   4.656   5.142   3.836 -2.1982  0.9622  0.2105
13820TIP3    H262952   4.693   5.160   3.690 -0.1647  4.2636  1.0289
13821TIP3   OH262953   1.914   2.562  14.804  0.2320 -0.1698 -0.1750
13821TIP3    H162954   1.946   2.568  14.894 -0.0739 -0.4049 -0.0470
13821TIP3    H262955   1.912   2.468  14.785 -0.3840 -0.1635 -0.1714
13822TIP3   OH262956   6.260   5.415   0.824 -0.1390 -0.0139  0.5234
13822TIP3    H162957   6.169   5.386   0.819  0.0950 -0.6842 -0.0628
13822TIP3    H262958   6.258   5.493   0.879 -1.1459  0.3036  0.0494
13823TIP3   OH262959   2.088   4.098   0.664  0.6414 -0.5318  0.1356
13823TIP3    H162960   2.067   4.129   0.576 -0.2562 -1.2995  0.0659
13823TIP3    H262961   2.007   4.057   0.695  1.1265 -0.7961  1.0842
13824TIP3   OH262962   0.779   0.436  16.465  0.1117 -0.5160 -0.8755
13824TIP3    H162963   0.797   0.354  16.419  0.5239  0.1310 -1.8981
13824TIP3    H262964   0.779   0.412  16.557  0.3380 -1.6512 -1.1581
13825TIP3   OH262965   0.142   0.540   4.977 -0.7548 -0.3654  0.2413
13825TIP3    H162966   0.186   0.474   5.031  0.4760 -0.7531 -1.1688
13825TIP3    H262967   0.146   0.504   4.888 -0.4226  1.4221 -0.4983
13826TIP3   OH262968   0.375   1.600  11.509 -0.7419  0.6053 -0.5320
13826TIP3    H162969   0.350   1.664  11.443  0.2764 -0.1302 -1.6851
13826TIP3    H262970   0.307   1.606  11.576 -3.5387 -0.6623 -3.0301
13827TIP3   OH262971   1.686   1.166  16.199  0.3923 -0.9290  0.2978
13827TIP3    H162972   1.659   1.113  16.274  2.8360 -0.0305  1.9806
13827TIP3    H262973   1.659   1.255  16.221  0.3193 -0.7882 -0.3325
13828TIP3   OH262974   5.953   0.342   2.225 -0.7366  0.0668  0.2900
13828TIP3    H162975   5.929   0.430   2.255 -1.8736 -0.6025  1.4009
13828TIP3    H262976   5.953   0.350   2.129 -1.7046  1.0538  0.3486
13829TIP3   OH262977   4.103   5.884   0.138  0.7125 -1.0616  0.0685
13829TIP3    H162978   4.037   5.814   0.135  0.8683 -1.1898 -0.9860
13829TIP3    H262979   4.155   5.865   0.215 -0.2798 -1.1471  0.7344
13830TIP3   OH262980   0.511   4.980  13.389 -0.2439 -0.0810 -0.3554
13830TIP3    H162981   0.503   4.936  13.474 -1.0548  1.1064  0.2227
13830TIP3    H262982   0.495   4.911  13.324 -1.7259 -0.5953  0.5129
13831TIP3   OH262983   5.318   6.139  14.798 -0.1628  0.2564 -0.2545
13831TIP3    H162984   5.379   6.106  14.864  1.2316 -1.7039 -2.3580
13831TIP3    H262985   5.369   6.206  14.751  0.1696 -0.8173 -1.4988
13832TIP3   OH262986   4.849   1.259  12.303  0.5212 -0.3833 -0.6464
13832TIP3    H162987   4.812   1.198  12.367  1.4014 -1.4454 -1.1039
13832TIP3    H262988   4.774   1.312  12.275 -0.1412 -0.7957  0.2645
13833TIP3   OH262989   2.748   5.465  15.229 -0.0906 -0.1292 -0.3503
13833TIP3    H162990   2.660   5.493  15.208 -0.3160 -0.7437 -0.2448
13833TIP3    H262991   2.769   5.398  15.164  0.5702  0.5170 -0.8147
13834TIP3   OH262992   0.232   5.208   0.138 -0.2802  0.0102 -0.6619
13834TIP3    H162993   0.301   5.226   0.202 -0.0285 -0.2912 -0.8499
13834TIP3    H262994   0.203   5.295   0.110 -0.4620  0.1477 -0.0682
13835TIP3   OH262995   3.056   0.253  10.458  0.0389  0.0164 -0.6913
13835TIP3    H162996   3.021   0.340  10.477  0.8180  0.8937 -2.9061
13835TIP3    H262997   3.147   0.256  10.488  0.8431  0.9269 -2.9404
13836TIP3   OH262998   0.545   3.061   5.948  0.1958  0.0423 -0.2110
13836TIP3    H162999   0.485   3.052   6.023 -0.5015 -0.6321 -0.8299
13836TIP3    H263000   0.626   3.021   5.978 -0.4829 -1.4195 -0.2470
13837TIP3   OH263001   5.839   2.716   2.520 -0.1475  0.0186  0.6734
13837TIP3    H163002   5.895   2.764   2.580  0.8993 -1.1803  0.6847
13837TIP3    H263003   5.813   2.781   2.454  1.5775  0.5050  0.4389
13838TIP3   OH263004   1.867   3.959   3.399  0.1166  0.7279 -0.3627
13838TIP3    H163005   1.844   4.021   3.468 -0.3711  0.3652 -0.1929
13838TIP3    H263006   1.885   4.015   3.323 -1.4132  1.0639 -0.5305
13839TIP3   OH263007   4.464   2.154  13.733 -0.6388 -0.4457 -0.0114
13839TIP3    H163008   4.445   2.247  13.719 -0.3911 -0.4110 -0.1053
13839TIP3    H263009   4.387   2.109  13.697 -0.9071 -0.2650  0.3233
13840TIP3   OH263010   0.138   4.919   4.613  0.2372  0.4286  0.0184
13840TIP3    H163011   0.204   4.850   4.609  1.0571  1.1637  0.4197
13840TIP3    H263012   0.161   4.970   4.691  0.6338  2.0864 -1.1038
13841TIP3   OH263013   4.498   4.934  16.772 -0.9122  0.2429 -0.4672
13841TIP3    H163014   4.576   4.917  16.825 -1.3929 -0.2816  0.0950
13841TIP3    H263015   4.459   5.012  16.810 -0.1325  1.1101 -1.3870
13842TIP3   OH263016   5.682   5.516  17.171 -0.4100 -0.1648 -0.0973
13842TIP3    H163017   5.708   5.486  17.259  0.3046  0.6859 -0.0065
13842TIP3    H263018   5.764   5.524  17.123 -0.8232 -0.9141 -0.9524
13843TIP3   OH263019   6.582   1.467   2.673  0.2815 -0.0400  0.8258
13843TIP3    H163020   6.625   1.508   2.597 -0.9832  2.8752  1.5108
13843TIP3    H263021   6.517   1.409   2.635  1.9727 -1.3224 -0.2400
13844TIP3   OH263022   3.173   5.906  16.098 -0.1911 -0.4622  0.2650
13844TIP3    H163023   3.254   5.935  16.056 -1.0129 -1.5675 -2.2377
13844TIP3    H263024   3.146   5.982  16.151  0.9631  0.9962 -1.1270
13845TIP3   OH263025   3.504   1.673   5.058 -0.4992  0.1323 -0.0245
13845TIP3    H163026   3.484   1.643   5.147 -0.5825 -1.1580 -0.4575
13845TIP3    H263027   3.438   1.630   5.003  1.2993 -1.4822 -1.0606
13846TIP3   OH263028   6.407   0.015  13.571  0.9093 -0.4692  0.2168
13846TIP3    H163029   6.340   0.058  13.519  1.9186 -0.1366 -0.8533
13846TIP3    H263030   6.488   0.027  13.521  1.6352 -1.5243  1.0821
13847TIP3   OH263031   1.972   2.645   1.374 -0.0616  0.5888  0.1298
13847TIP3    H163032   2.025   2.632   1.295  0.3859  0.7640  0.3990
13847TIP3    H263033   1.884   2.665   1.341 -0.7832 -2.8502 -0.3324
13848TIP3   OH263034   2.487   0.087   5.649  0.1154 -0.4886 -0.3284
13848TIP3    H163035   2.582   0.084   5.656  0.1209  0.3810  0.1626
13848TIP3    H263036   2.466   0.180   5.648 -0.7387 -0.6714 -0.3573
13849TIP3   OH263037   2.436   2.222   1.034  1.0384 -0.1805 -0.2362
13849TIP3    H163038   2.390   2.280   1.094  2.0847 -0.9090  1.3306
13849TIP3    H263039   2.486   2.281   0.977  0.5215  0.5016  0.0036
13850TIP3   OH263040   1.781   2.209  11.558 -0.3122  0.1295 -0.0320
13850TIP3    H163041   1.775   2.273  11.629  0.0412 -1.2121  1.2546
13850TIP3    H263042   1.868   2.170  11.569  0.2948  0.8233 -2.0548
13851TIP3   OH263043   0.666   4.442   5.132  0.3855 -0.2992  0.3321
13851TIP3    H163044   0.637   4.532   5.140 -1.0333 -0.6613 -0.4934
13851TIP3    H263045   0.624   4.396   5.205  1.9309 -0.1200  1.3730
13852TIP3   OH263046   4.687   6.354   3.568  0.0516  0.3506  0.2329
13852TIP3    H163047   4.714   6.354   3.476  0.3004  2.1860  0.2783
13852TIP3    H263048   4.766   6.326   3.615 -0.0858 -0.6329 -0.0864
13853TIP3   OH263049   3.604   3.028   1.558  0.1910  0.7397  0.0332
13853TIP3    H163050   3.641   2.986   1.480  1.1806 -0.8624  1.3109
13853TIP3    H263051   3.528   2.974   1.580 -1.8180  2.8036 -1.3610
13854TIP3   OH263052   1.300   2.289   4.567 -0.0790 -0.0578  0.6055
13854TIP3    H163053   1.323   2.370   4.521  0.3447 -0.6196 -0.1917
13854TIP3    H263054   1.244   2.318   4.639  1.9249  1.2136  1.7518
13855TIP3   OH263055   5.696   6.216  15.332  0.5761  0.5756 -0.7810
13855TIP3    H163056   5.685   6.289  15.392  3.2800 -0.4340  1.1183
13855TIP3    H263057   5.607   6.182  15.320 -0.3214  2.1466  0.8945
13856TIP3   OH263058   1.679   5.128   0.627 -0.1855  0.0953 -0.4226
13856TIP3    H163059   1.593   5.095   0.651 -0.1429  0.6118  0.4933
13856TIP3    H263060   1.669   5.160   0.537 -1.7832  2.8943  0.6370
13857TIP3   OH263061   1.269   1.199   4.309  0.5814 -0.1924 -0.0232
13857TIP3    H163062   1.263   1.137   4.237  0.7490 -0.2675  0.0260
13857TIP3    H263063   1.268   1.144   4.388  3.7061 -0.4227 -0.0129
13858TIP3   OH263064   5.500   1.080   5.180 -0.5196 -0.1601  0.6122
13858TIP3    H163065   5.541   1.095   5.094 -1.8256 -0.0476 -0.0075
13858TIP3    H263066   5.415   1.043   5.160 -0.3045 -1.4430  1.9272
13859TIP3   OH263067   6.550   1.887   2.706  0.4076 -0.0657  0.0012
13859TIP3    H163068   6.530   1.958   2.645  0.3025  0.8615  1.0950
13859TIP3    H263069   6.464   1.851   2.729  0.2546  1.0353  1.2817
13860TIP3   OH263070   3.514   1.333  13.287  0.4902 -0.2075  0.2144
13860TIP3    H163071   3.437   1.278  13.270  0.4009 -0.2322  0.6871
13860TIP3    H263072   3.498   1.413  13.237 -0.0658 -0.0226  0.6813
13861TIP3   OH263073   4.580   1.018   3.994 -0.1343  0.2492 -0.0045
13861TIP3    H163074   4.663   1.046   4.033 -0.2603  0.8890 -0.1840
13861TIP3    H263075   4.515   1.077   4.032 -0.2560  0.9038 -1.1767
13862TIP3   OH263076   1.061   4.918   4.007 -0.0821  0.2992  0.3995
13862TIP3    H163077   1.021   4.841   3.966  3.1889 -0.7763 -1.1085
13862TIP3    H263078   1.014   4.928   4.090 -0.5009 -3.5384  0.8189
13863TIP3   OH263079   4.598   5.630   0.684  0.5979 -0.3762 -0.0084
13863TIP3    H163080   4.510   5.640   0.648  0.4651  0.5568  0.5643
13863TIP3    H263081   4.637   5.559   0.632  0.2725  0.6585 -1.7427
13864TIP3   OH263082   3.986   4.106   0.223  0.2709 -0.4015  0.0691
13864TIP3    H163083   4.000   4.151   0.140 -0.0162 -0.3123  0.0688
13864TIP3    H263084   3.896   4.074   0.218 -0.2476  0.8495  0.9361
13865TIP3   OH263085   1.001   3.543  11.319  0.3253  0.5518 -0.5298
13865TIP3    H163086   1.010   3.456  11.281  1.0006 -0.5362  1.9357
13865TIP3    H263087   1.084   3.558  11.364 -0.0314  2.2162 -0.3609
13866TIP3   OH263088   1.451   0.639   0.049  0.2491 -0.8424  0.4599
13866TIP3    H163089   1.431   0.732   0.056 -0.4286 -1.0119  0.8419
13866TIP3    H263090   1.540   0.631   0.083  1.0501 -0.0718 -1.3048
13867TIP3   OH263091   4.784   2.554   3.572  0.1429 -0.9568 -0.0615
13867TIP3    H163092   4.743   2.534   3.488 -0.5479  0.0480  0.0217
13867TIP3    H263093   4.878   2.549   3.555  0.0023 -1.8490 -0.6116
13868TIP3   OH263094   2.188   3.714  15.129  0.4949  0.0128  0.1607
13868TIP3    H163095   2.155   3.745  15.214  2.6344 -1.0051  1.4564
13868TIP3    H263096   2.273   3.757  15.119  1.4183 -1.8007 -0.2083
13869TIP3   OH263097   6.786   4.401  13.378  0.2936 -0.7157 -0.2730
13869TIP3    H163098   6.756   4.487  13.349  0.9223 -0.2898  0.3285
13869TIP3    H263099   6.880   4.410  13.389  0.3778 -1.5057 -0.2851
13870TIP3   OH263100   6.074   5.549   3.879  0.0844 -0.0533 -0.2506
13870TIP3    H163101   6.090   5.530   3.971 -0.0488  1.5058  0.1212
13870TIP3    H263102   6.161   5.569   3.843  0.0331  0.1350 -0.2690
13871TIP3   OH263103   3.450   6.750   5.057  0.0623  0.3944  0.7373
13871TIP3    H163104   3.510   6.680   5.080  0.3276 -0.1264 -1.3346
13871TIP3    H263105   3.438   6.742   4.962  2.4164  4.8447 -0.2527
13872TIP3   OH263106   5.742   0.503   5.101  0.2340 -0.0947  0.6007
13872TIP3    H163107   5.814   0.472   5.047 -0.2371 -1.1834  0.5677
13872TIP3    H263108   5.666   0.504   5.042 -0.0645 -0.2659  0.9768
13873TIP3   OH263109   1.442   1.762  17.199 -0.0006  0.5553  0.3046
13873TIP3    H163110   1.420   1.819  17.273 -1.1850 -1.3086  1.4898
13873TIP3    H263111   1.537   1.752  17.204 -0.0824  0.2747  1.7498
13874TIP3   OH263112   6.209   4.324   2.258  0.1849 -0.4186 -0.0527
13874TIP3    H163113   6.195   4.307   2.351  3.6931  1.9488  1.1021
13874TIP3    H263114   6.154   4.400   2.238  1.4102  0.7905  0.9369
13875TIP3   OH263115   5.849   5.592  14.780  0.2406  0.4033  0.6786
13875TIP3    H163116   5.759   5.595  14.815 -0.6200 -0.6937 -1.2693
13875TIP3    H263117   5.901   5.557  14.852 -1.3873 -1.4770  1.0459
13876TIP3   OH263118   6.806   1.180  15.480  0.2248 -0.1630 -0.7499
13876TIP3    H163119   6.804   1.250  15.415 -2.4065  1.4044  0.8170
13876TIP3    H263120   6.714   1.151  15.486  0.7750 -1.7681  0.6952
13877TIP3   OH263121   0.367   4.186  12.900 -0.3001  0.2278  0.0169
13877TIP3    H163122   0.365   4.273  12.941 -0.2705  0.3293 -0.1982
13877TIP3    H263123   0.445   4.187  12.845  0.1755 -0.2312  0.6578
13878TIP3   OH263124   0.248   4.420  16.963 -0.4984  0.3566 -1.2023
13878TIP3    H163125   0.331   4.374  16.952 -0.5780 -0.2209  0.3227
13878TIP3    H263126   0.271   4.504  17.002 -0.7140 -0.6194  1.2124
13879TIP3   OH263127   3.721   3.329  12.383 -0.3735  0.3001  0.0990
13879TIP3    H163128   3.781   3.255  12.395 -0.2848  0.4694  0.7263
13879TIP3    H263129   3.635   3.288  12.373 -0.4358  0.1316  1.2264
13880TIP3   OH263130   4.792   2.792   4.470  1.0398  0.2953  0.4239
13880TIP3    H163131   4.824   2.862   4.412 -1.4364 -1.1140 -2.9964
13880TIP3    H263132   4.869   2.737   4.485  1.7600  0.5317 -1.9444
13881TIP3   OH263133   5.731   4.588  11.686  0.5684 -0.0690  0.4307
13881TIP3    H163134   5.694   4.669  11.721 -0.0165 -0.6023  1.0661
13881TIP3    H263135   5.678   4.518  11.725  4.4633 -1.1872  4.4772
13882TIP3   OH263136   5.124   4.776  16.993 -0.7649 -0.5017  0.0152
13882TIP3    H163137   5.128   4.795  16.900  0.3352 -1.7315 -0.2181
13882TIP3    H263138   5.054   4.833  17.026 -1.1191  0.0093 -1.5244
13883TIP3   OH263139   4.621   6.816  15.774  0.0582 -0.1091  0.0879
13883TIP3    H163140   4.577   6.865  15.704  0.0039 -0.7581 -0.3355
13883TIP3    H263141   4.566   6.739  15.788 -1.0054  0.9490  2.2096
13884TIP3   OH263142   4.211   0.221  13.545  0.2471  0.1421  0.3919
13884TIP3    H163143   4.299   0.207  13.580 -0.5769 -1.7501  1.9188
13884TIP3    H263144   4.207   0.165  13.467 -0.0171 -0.8100  1.0830
13885TIP3   OH263145   2.951   3.782  15.493 -0.1437 -0.1101  0.4511
13885TIP3    H163146   2.949   3.786  15.397 -0.2550  0.5876  0.4805
13885TIP3    H263147   3.041   3.801  15.516 -0.5686  1.9314  0.5672
13886TIP3   OH263148   1.322   6.312  14.364  0.4152  0.0130 -0.6277
13886TIP3    H163149   1.257   6.367  14.320 -1.4380  0.3226  2.2205
13886TIP3    H263150   1.272   6.237  14.396  2.2362 -1.6508 -1.4748
13887TIP3   OH263151   1.051   5.973   0.821  0.7144  0.0083 -0.1409
13887TIP3    H163152   1.011   5.887   0.807 -1.0173  0.5732  0.9885
13887TIP3    H263153   1.067   6.006   0.733  1.8755 -1.6539 -0.6013
13888TIP3   OH263154   4.846   3.882   4.610 -0.2259 -0.5460 -0.0955
13888TIP3    H163155   4.851   3.910   4.701 -1.6272  0.2792 -0.2503
13888TIP3    H263156   4.829   3.962   4.560 -0.5103 -1.1304 -0.9720
13889TIP3   OH263157   3.956   5.741  14.153  0.2069 -0.1761 -0.5101
13889TIP3    H163158   3.968   5.803  14.081  1.0203 -0.2015 -0.4056
13889TIP3    H263159   3.916   5.793  14.222  0.3021  0.0871 -0.6484
13890TIP3   OH263160   5.111   0.092   3.890  0.2546 -0.0731  0.4160
13890TIP3    H163161   5.150   0.013   3.927 -0.6549 -0.7296  0.0276
13890TIP3    H263162   5.116   0.157   3.961  0.0531 -0.7997  1.1143
13891TIP3   OH263163   6.160   6.354   2.458 -0.5452  0.0324  0.3201
13891TIP3    H163164   6.218   6.385   2.527 -0.1859  3.2218 -1.2299
13891TIP3    H263165   6.131   6.268   2.487 -0.2834  1.1248  4.3279
13892TIP3   OH263166   3.863   2.154  13.158 -0.0076 -0.4569  0.0521
13892TIP3    H163167   3.839   2.245  13.176  0.7362  0.0469 -1.3072
13892TIP3    H263168   3.818   2.134  13.075  0.6842 -0.9637 -0.2051
13893TIP3   OH263169   3.680   6.447  16.473  0.2237  0.4550  0.0799
13893TIP3    H163170   3.756   6.501  16.450  0.6689  0.3018  1.1121
13893TIP3    H263171   3.676   6.380  16.405  0.7719  0.7115 -0.2105
13894TIP3   OH263172   4.092   4.972   0.173  0.3404 -0.0149 -0.9248
13894TIP3    H163173   4.047   4.989   0.090 -0.0582  0.8247 -0.5450
13894TIP3    H263174   4.022   4.957   0.236  0.4876  2.4600 -0.0714
13895TIP3   OH263175   3.422   2.407   2.187  0.0403  0.5835 -0.0767
13895TIP3    H163176   3.424   2.348   2.263  0.9683  1.4192  0.5753
13895TIP3    H263177   3.392   2.352   2.115  0.3626 -0.5568  0.6291
13896TIP3   OH263178   2.170   0.320   1.447 -0.2168  0.1308  0.2930
13896TIP3    H163179   2.198   0.229   1.456 -0.6260  0.0514  0.8188
13896TIP3    H263180   2.250   0.369   1.429  0.0203 -0.3146  0.1226
13897TIP3   OH263181   4.474   3.050   4.311 -0.0514 -0.8311  0.0441
13897TIP3    H163182   4.475   3.059   4.216 -1.0787  0.8409  0.1463
13897TIP3    H263183   4.557   3.089   4.339  0.1668 -1.1511 -0.1581
13898TIP3   OH263184   0.469   6.419  11.507  0.2645 -0.2706 -0.7829
13898TIP3    H163185   0.445   6.506  11.477 -1.8093 -0.8224 -0.9217
13898TIP3    H263186   0.559   6.427  11.537  0.9538  1.3477 -3.0056
13899TIP3   OH263187   1.825   5.886  12.334 -0.5584 -0.6130 -0.1743
13899TIP3    H163188   1.914   5.850  12.330 -0.1327  0.4857 -1.1300
13899TIP3    H263189   1.837   5.972  12.373 -1.5049 -1.2553  1.6630
13900TIP3   OH263190   0.301   1.645  10.629  0.6123  0.2968 -0.1255
13900TIP3    H163191   0.250   1.591  10.569  1.2702  0.5593 -0.9278
13900TIP3    H263192   0.261   1.732  10.623  0.0178  0.0880  0.6168
13901TIP3   OH263193   0.475   4.354   3.941  0.7306 -0.3236  0.2401
13901TIP3    H163194   0.551   4.303   3.916  0.5198 -0.6342  0.2308
13901TIP3    H263195   0.457   4.329   4.032  0.2758 -0.7090  0.0512
13902TIP3   OH263196   6.826   5.807  12.002 -0.1152  0.2773  0.5118
13902TIP3    H163197   6.730   5.811  12.005 -0.1644  0.1750 -0.7101
13902TIP3    H263198   6.852   5.884  11.951  0.4038 -0.1842  0.0701
13903TIP3   OH263199   4.917   6.054  11.603  0.9391 -0.2179 -0.7216
13903TIP3    H163200   4.971   6.063  11.682 -0.1336 -0.5311  0.0797
13903TIP3    H263201   4.829   6.079  11.631  0.1108 -2.2502 -1.2586
13904TIP3   OH263202   6.673   3.388   1.531 -0.6049 -0.9587 -0.5581
13904TIP3    H163203   6.716   3.470   1.508  1.0705 -1.9491 -1.1384
13904TIP3    H263204   6.587   3.414   1.566 -0.0807  1.0130 -0.6530
13905TIP3   OH263205   2.749   5.302  15.481 -0.4458  0.3736 -0.0389
13905TIP3    H163206   2.771   5.362  15.410  1.4584  0.3775  0.4919
13905TIP3    H263207   2.815   5.232  15.474 -2.4248 -1.5576 -0.4695
13906TIP3   OH263208   5.309   4.138  16.217 -0.1490  0.0259  0.8018
13906TIP3    H163209   5.285   4.102  16.131 -2.2986 -0.9630  1.7336
13906TIP3    H263210   5.398   4.105  16.233 -0.8807 -2.4676  0.2692
13907TIP3   OH263211   0.569   6.705   4.106 -0.2887  0.4475  0.4268
13907TIP3    H163212   0.572   6.611   4.125  0.1815  0.6851  1.6447
13907TIP3    H263213   0.597   6.746   4.187 -0.6287  1.6573 -0.0508
13908TIP3   OH263214   4.882   5.810  13.543 -0.3750 -0.0432 -0.3210
13908TIP3    H163215   4.919   5.723  13.555 -0.5095 -0.0256  0.3017
13908TIP3    H263216   4.876   5.845  13.632 -1.0088  0.3114 -0.4972
13909TIP3   OH263217   6.554   5.606  11.215 -0.7864  0.3886  0.4470
13909TIP3    H163218   6.505   5.526  11.195 -0.4642 -0.0285  1.2868
13909TIP3    H263219   6.635   5.575  11.253  1.1252  0.9664 -2.7610
13910TIP3   OH263220   1.294   3.015   0.743  0.7888  0.6220  0.0818
13910TIP3    H163221   1.285   3.033   0.650 -0.9452 -0.6167 -0.0370
13910TIP3    H263222   1.247   2.933   0.756  1.5477  0.4319  1.9440
13911TIP3   OH263223   1.460   5.404  11.284  0.5862 -0.1295 -0.2759
13911TIP3    H163224   1.485   5.493  11.308 -0.4064  0.0099  0.3095
13911TIP3    H263225   1.538   5.368  11.241  0.8097  1.1939 -1.0226
13912TIP3   OH263226   2.101   5.688   4.702  0.2329 -0.1537  0.0136
13912TIP3    H163227   2.028   5.628   4.689 -0.0470  0.4924 -1.5138
13912TIP3    H263228   2.106   5.739   4.621  0.9626  1.3446  0.9477
13913TIP3   OH263229   5.958   5.153  11.708 -0.2792 -0.2366  0.0279
13913TIP3    H163230   5.981   5.076  11.761 -2.4739 -0.4705  0.7294
13913TIP3    H263231   5.918   5.116  11.629  0.2061  0.1928 -0.4350
13914TIP3   OH263232   4.737   0.370  16.472 -0.2762 -0.6824 -0.6476
13914TIP3    H163233   4.808   0.353  16.410 -0.9127 -1.8600 -1.0769
13914TIP3    H263234   4.713   0.461  16.457  0.4448 -0.5847 -1.2266
13915TIP3   OH263235   6.518   3.989   1.696 -0.2528  0.0461 -0.3918
13915TIP3    H163236   6.540   4.080   1.675 -0.8963 -0.1183 -1.8810
13915TIP3    H263237   6.424   3.983   1.680 -0.6173 -0.3858  1.6787
13916TIP3   OH263238   4.596   0.323   1.402 -0.3694 -0.2823 -0.6456
13916TIP3    H163239   4.544   0.398   1.428 -0.7122 -0.1161 -1.7614
13916TIP3    H263240   4.547   0.283   1.330 -2.0062 -3.6319  2.0400
13917TIP3   OH263241   0.877   6.332  12.798  0.4907  0.8052  0.3587
13917TIP3    H163242   0.919   6.400  12.850 -1.5418  2.4090 -0.0103
13917TIP3    H263243   0.858   6.262  12.861  2.2169  0.6969  0.8136
13918TIP3   OH263244   5.909   0.835   5.606 -0.2110  0.2154 -0.6274
13918TIP3    H163245   5.837   0.849   5.544 -0.2977 -0.0355 -0.5830
13918TIP3    H263246   5.868   0.833   5.692 -0.1740 -0.1172 -0.6178
13919TIP3   OH263247   3.740   3.496  16.526  0.0463 -0.3688 -0.3076
13919TIP3    H163248   3.826   3.484  16.485  0.3569 -1.8295  0.7176
13919TIP3    H263249   3.721   3.412  16.569  0.0701  1.2642  3.1920
13920TIP3   OH263250   3.057   2.066  14.185 -0.2241 -0.4393 -0.4698
13920TIP3    H163251   3.094   2.015  14.112  0.3126  0.4716 -0.8491
13920TIP3    H263252   3.133   2.091  14.238 -0.1589  1.9433 -1.5610
13921TIP3   OH263253   5.485   5.557   5.709 -0.0407  0.2498 -0.6176
13921TIP3    H163254   5.515   5.642   5.743  0.6770  0.2807 -1.2914
13921TIP3    H263255   5.396   5.573   5.679 -0.4786  0.3704  0.6694
13922TIP3   OH263256   5.495   1.397   4.056  0.1319  0.3941  0.0483
13922TIP3    H163257   5.410   1.428   4.024  1.4466  3.1093 -1.0834
13922TIP3    H263258   5.482   1.387   4.150 -0.7118  3.7331  0.4099
13923TIP3   OH263259   4.869   4.981   6.097 -0.1785 -0.1043 -0.2994
13923TIP3    H163260   4.853   5.050   6.161 -1.1368  1.1152 -1.7567
13923TIP3    H263261   4.861   4.899   6.145 -1.4758  0.7517  0.9881
13924TIP3   OH263262   2.099   2.944   1.974 -0.2835 -0.7740 -0.3644
13924TIP3    H163263   2.097   3.024   2.027 -0.3925 -0.0619 -1.4078
13924TIP3    H263264   2.011   2.908   1.981 -0.9653  0.5167 -1.8007
13925TIP3   OH263265   5.755   0.866  16.532  0.0276  0.1206  0.0591
13925TIP3    H163266   5.801   0.822  16.461  2.1352 -0.2046  1.5201
13925TIP3    H263267   5.728   0.950  16.496  2.6080  0.7136 -0.6743
13926TIP3   OH263268   1.829   2.923   1.795  0.3543  0.1027 -0.7116
13926TIP3    H163269   1.812   2.862   1.723  1.0775  0.4077 -1.1466
13926TIP3    H263270   1.879   2.994   1.755 -0.2261  0.8439 -0.1473
13927TIP3   OH263271   3.650   5.009  12.967 -0.3891  0.7167  0.3322
13927TIP3    H163272   3.692   5.004  13.053 -0.8577 -1.6726  0.4852
13927TIP3    H263273   3.713   4.969  12.907  0.0080  2.5231 -0.5141
13928TIP3   OH263274   3.480   5.404  14.449 -0.3453  0.3736 -0.5540
13928TIP3    H163275   3.439   5.396  14.535  1.2854  1.1655  0.3419
13928TIP3    H263276   3.412   5.445  14.394 -1.7293 -1.0053  0.0604
13929TIP3   OH263277   2.607   2.704   1.031 -0.3858 -0.4783  0.0257
13929TIP3    H163278   2.683   2.702   0.972 -1.0951  1.6483 -1.0848
13929TIP3    H263279   2.643   2.727   1.116  0.4517 -1.7295  0.0258
13930TIP3   OH263280   0.095   4.639  15.080 -0.1510  0.2957  0.1997
13930TIP3    H163281   0.127   4.582  15.010  0.9498  0.4411  0.5657
13930TIP3    H263282   0.159   4.629  15.150  0.0524  1.9686  0.2790
13931TIP3   OH263283   4.128   5.053   1.862 -0.2992 -0.2141  0.0596
13931TIP3    H163284   4.183   5.005   1.925  0.6424 -2.3321 -2.2275
13931TIP3    H263285   4.190   5.095   1.803 -1.1438 -0.1813 -0.8267
13932TIP3   OH263286   0.740   4.570  17.136  0.2874  0.0463 -0.1400
13932TIP3    H163287   0.731   4.584  17.042 -0.9529 -1.6779 -0.3458
13932TIP3    H263288   0.715   4.653  17.175 -0.3827  0.4296 -1.3189
13933TIP3   OH263289   6.553   0.934   4.813 -0.2336  0.6918  0.3752
13933TIP3    H163290   6.487   0.961   4.876 -1.2112  1.2789 -0.8520
13933TIP3    H263291   6.542   0.994   4.739  1.7901  0.9111  0.1991
13934TIP3   OH263292   3.225   3.956  15.202 -0.2038 -0.3585  0.4358
13934TIP3    H163293   3.176   4.037  15.196  0.4357 -0.0003 -0.0159
13934TIP3    H263294   3.313   3.978  15.173  0.2579 -0.9688  1.2972
13935TIP3   OH263295   0.560   2.309  13.096 -0.5284 -0.0699 -0.1315
13935TIP3    H163296   0.507   2.383  13.126 -0.9093 -0.1203 -0.6680
13935TIP3    H263297   0.505   2.233  13.110 -0.0946 -0.2763  0.5207
13936TIP3   OH263298   5.426   3.402  12.554  0.2482 -0.6301  0.2863
13936TIP3    H163299   5.480   3.390  12.477  0.0839 -0.6648  0.1754
13936TIP3    H263300   5.336   3.402  12.521  0.2439  1.8396  0.1234
13937TIP3   OH263301   5.910   3.307  11.262  0.2361  0.5747 -0.2828
13937TIP3    H163302   5.996   3.285  11.225  0.8062 -0.5975  1.5958
13937TIP3    H263303   5.853   3.236  11.232  0.4384  0.2191  0.1555
13938TIP3   OH263304   3.817   2.729  16.515 -0.2246 -0.0843 -0.3347
13938TIP3    H163305   3.894   2.676  16.493  0.0957  0.3691 -0.3105
13938TIP3    H263306   3.793   2.773  16.434  1.5147  2.3143  0.3232
13939TIP3   OH263307   1.896   5.461   3.959 -0.1406  0.1873  0.1457
13939TIP3    H163308   1.817   5.440   3.908 -0.5318 -1.3217  1.3126
13939TIP3    H263309   1.864   5.472   4.049  0.7402  1.3882  0.3320
13940TIP3   OH263310   3.619   5.135   3.536 -0.0482  0.1641  0.0213
13940TIP3    H163311   3.616   5.051   3.490 -0.6101  0.7719 -1.0982
13940TIP3    H263312   3.578   5.196   3.475  0.1726  1.2120  0.9102
13941TIP3   OH263313   2.968   0.541   0.018 -0.0222 -0.4493 -0.1603
13941TIP3    H163314   2.965   0.513  -0.073  0.7896  0.7644 -0.5802
13941TIP3    H263315   2.899   0.606   0.026 -0.3129 -0.7937  0.1857
13942TIP3   OH263316   0.178   5.057   1.031 -0.1976 -0.3217 -0.1077
13942TIP3    H163317   0.247   5.015   0.979 -1.1363 -2.4110  0.2499
13942TIP3    H263318   0.196   5.029   1.121 -0.8038  0.1175  0.1517
13943TIP3   OH263319   0.725   2.224   4.642  0.5528  0.1457  0.0389
13943TIP3    H163320   0.687   2.168   4.710  0.1294  2.0815  1.4545
13943TIP3    H263321   0.819   2.208   4.648  0.4174 -0.6931  0.1284
13944TIP3   OH263322   5.568   4.652  13.462 -0.7295  0.0851  0.3373
13944TIP3    H163323   5.485   4.612  13.487  0.3110 -1.6544  1.1601
13944TIP3    H263324   5.586   4.617  13.375 -1.3327  1.3225 -0.3283
13945TIP3   OH263325   2.940   4.384  11.752 -0.2017  0.3913 -0.4102
13945TIP3    H163326   2.959   4.291  11.763 -2.3234 -0.5714 -3.4380
13945TIP3    H263327   2.859   4.397  11.801 -0.3586  0.4092 -0.6717
13946TIP3   OH263328   4.558   6.493   5.461 -0.0407  0.0921 -0.5347
13946TIP3    H163329   4.545   6.420   5.522  1.5965 -2.8224 -3.3538
13946TIP3    H263330   4.575   6.569   5.517 -0.1242 -2.0016  2.5780
13947TIP3   OH263331   4.564   3.119   3.440 -0.4856 -0.2167 -0.0500
13947TIP3    H163332   4.554   3.045   3.380  1.1341 -0.9478  0.5324
13947TIP3    H263333   4.543   3.083   3.526 -0.5167  0.2221  0.1277
13948TIP3   OH263334   0.060   2.490   5.868  0.1609 -0.4797  0.4465
13948TIP3    H163335   0.086   2.446   5.948  0.7685  0.1742  0.6195
13948TIP3    H263336   0.087   2.581   5.881  0.6241 -0.4435 -0.6523
13949TIP3   OH263337   1.163   4.969  10.673 -0.7126 -0.1193 -0.2111
13949TIP3    H163338   1.216   4.921  10.610 -0.0333 -0.6779  0.7461
13949TIP3    H263339   1.111   5.029  10.620 -0.3123 -0.7037 -1.3064
13950TIP3   OH263340   6.468   4.482  13.321 -0.1740 -0.4075  0.7736
13950TIP3    H163341   6.397   4.543  13.302 -1.5695 -1.0634  3.3970
13950TIP3    H263342   6.424   4.401  13.345  1.4924 -1.1244  1.5485
13951TIP3   OH263343   0.443   5.303  12.217 -0.1800 -0.5956 -0.3938
13951TIP3    H163344   0.445   5.305  12.312  0.0846 -0.0169 -0.4061
13951TIP3    H263345   0.357   5.340  12.194  0.2479  0.4435 -0.3937
13952TIP3   OH263346   5.584   6.216  13.732 -0.2927  0.3153 -0.2819
13952TIP3    H163347   5.614   6.290  13.679 -0.1089  0.4426 -0.0016
13952TIP3    H263348   5.525   6.167  13.674  1.1015 -0.4153 -1.1582
13953TIP3   OH263349   3.480   0.202  12.546 -0.0566  0.1310  0.2993
13953TIP3    H163350   3.484   0.295  12.569  0.4447  0.1746  0.0267
13953TIP3    H263351   3.564   0.166  12.575 -1.0978 -0.7307  2.5211
13954TIP3   OH263352   0.418   3.585   2.431 -0.1111 -0.0205  0.3036
13954TIP3    H163353   0.418   3.611   2.523 -1.7991 -0.2045  0.3837
13954TIP3    H263354   0.460   3.499   2.430 -1.1109 -0.5339  1.0832
13955TIP3   OH263355   2.585   6.114   2.556  0.6481  0.0428 -0.4127
13955TIP3    H163356   2.648   6.086   2.622  0.7735 -0.2501 -0.6512
13955TIP3    H263357   2.617   6.199   2.526  1.8701 -0.8272 -1.7103
13956TIP3   OH263358   6.698   0.313   0.841  1.0133 -0.2312 -0.2267
13956TIP3    H163359   6.753   0.297   0.918  1.4963  0.0188 -0.5171
13956TIP3    H263360   6.637   0.239   0.839 -0.3644  0.7835  1.5776
13957TIP3   OH263361   2.136   5.904   0.265 -0.2203 -0.2964 -0.0765
13957TIP3    H163362   2.205   5.971   0.271 -1.0491  0.4734  1.3002
13957TIP3    H263363   2.124   5.891   0.171  0.2486  1.2123 -0.3754
13958TIP3   OH263364   2.009   1.991  15.717 -0.1816 -0.2082 -0.5634
13958TIP3    H163365   2.081   1.954  15.667 -0.8819 -1.2971 -0.8012
13958TIP3    H263366   2.012   1.946  15.801 -0.0029  0.4497 -0.2070
13959TIP3   OH263367   4.190   3.575  14.314 -0.3199  0.4895  0.0325
13959TIP3    H163368   4.218   3.530  14.234 -0.8879  0.7637 -0.3255
13959TIP3    H263369   4.234   3.660  14.310 -2.0931  1.4142 -1.1472
13960TIP3   OH263370   5.860   1.601  13.388  0.4337  0.0803  0.5133
13960TIP3    H163371   5.931   1.606  13.452 -0.2852  0.6164  1.2763
13960TIP3    H263372   5.895   1.544  13.319  1.6370  0.3979  0.8276
13961TIP3   OH263373   2.089   0.418   4.332  0.4647  0.3598 -0.3784
13961TIP3    H163374   2.096   0.512   4.315 -2.0381  0.4658 -1.2845
13961TIP3    H263375   1.997   0.397   4.313  0.7064 -2.0879  0.7706
13962TIP3   OH263376   5.707   3.646  13.372  0.0425 -0.0719  0.2226
13962TIP3    H163377   5.677   3.688  13.453 -1.8883 -0.5518 -0.1925
13962TIP3    H263378   5.629   3.603  13.338  1.1582 -1.0389 -1.1898
13963TIP3   OH263379   5.014   6.706   5.204  0.3624  0.0684 -0.2707
13963TIP3    H163380   5.078   6.774   5.182  1.0960 -0.0749  1.3288
13963TIP3    H263381   4.932   6.737   5.164  1.3150  0.4349 -2.0339
13964TIP3   OH263382   5.836   6.816   4.655 -0.0699 -0.2791 -0.2602
13964TIP3    H163383   5.838   6.903   4.616  1.8146 -0.6386 -1.0723
13964TIP3    H263384   5.895   6.821   4.730  1.4311 -1.2629 -1.3210
13965TIP3   OH263385   6.732   4.053  11.463 -0.5369  0.6267  0.0896
13965TIP3    H163386   6.767   3.979  11.513 -0.5561 -0.7895 -1.8929
13965TIP3    H263387   6.638   4.052  11.482 -0.5627  0.0348 -0.0736
13966TIP3   OH263388   1.688   5.731   6.065 -0.2679  0.3986 -0.0484
13966TIP3    H163389   1.718   5.643   6.088 -1.1684  0.8259  3.2969
13966TIP3    H263390   1.763   5.771   6.021  1.4644 -0.9671  1.4947
13967TIP3   OH263391   2.909   6.815   2.680  0.0433  0.4018 -0.0591
13967TIP3    H163392   2.956   6.739   2.647 -0.3350  0.5721 -1.0311
13967TIP3    H263393   2.940   6.888   2.626 -1.3084  0.5161 -0.7222
13968TIP3   OH263394   0.892   2.135  11.300 -0.4350  0.3818  0.5329
13968TIP3    H163395   0.942   2.098  11.373  2.6579  0.8417 -1.1916
13968TIP3    H263396   0.873   2.061  11.244  0.6665  0.5582 -0.0905
13969TIP3   OH263397   4.190   0.850  15.524 -0.2886 -0.0986  0.0512
13969TIP3    H163398   4.104   0.848  15.481 -1.0415 -0.0341  1.5110
13969TIP3    H263399   4.218   0.759  15.527  0.5886  0.0377 -2.0859
13970TIP3   OH263400   0.875   5.514  15.679  0.4026  0.2383 -0.0067
13970TIP3    H163401   0.857   5.466  15.760 -3.0632 -0.3515 -0.9698
13970TIP3    H263402   0.924   5.452  15.625 -0.3069 -0.6630  0.3627
13971TIP3   OH263403   1.161   4.560  11.647  0.5674  0.1877 -0.2143
13971TIP3    H163404   1.076   4.542  11.606  0.8578 -0.2745 -0.6250
13971TIP3    H263405   1.154   4.651  11.677 -0.6539 -0.3406  1.1999
13972TIP3   OH263406   6.525   6.730   0.541 -0.2876 -0.2240 -0.0267
13972TIP3    H163407   6.599   6.705   0.486  0.2487  0.6952  0.2594
13972TIP3    H263408   6.474   6.649   0.551 -0.1770 -0.5059 -1.5163
13973TIP3   OH263409   1.939   6.387  12.738  0.5044  0.0591  0.1191
13973TIP3    H163410   1.991   6.431  12.672 -0.8748  1.0672 -0.3497
13973TIP3    H263411   1.970   6.297  12.738  0.6773  0.0972 -1.7402
13974TIP3   OH263412   2.622   2.318  13.132  0.2081  0.2290 -0.5049
13974TIP3    H163413   2.702   2.288  13.175 -0.5433  0.5293  1.1836
13974TIP3    H263414   2.551   2.283  13.185 -0.7570  1.3944 -0.9627
13975TIP3   OH263415   0.865   4.915  14.705 -0.0513  0.1040  0.5010
13975TIP3    H163416   0.811   4.980  14.660  0.3191 -0.6575 -1.1077
13975TIP3    H263417   0.949   4.919  14.660 -0.3088 -2.1282 -0.2787
13976TIP3   OH263418   6.023   2.703  15.240 -0.0310 -0.6673  0.3402
13976TIP3    H163419   6.090   2.640  15.267  0.2356 -0.1900  0.8005
13976TIP3    H263420   6.004   2.680  15.149  1.6047 -0.0662 -0.1828
13977TIP3   OH263421   1.379   0.803  13.704  0.0017 -0.1109 -0.0586
13977TIP3    H163422   1.336   0.723  13.675 -1.8751  0.8067  0.0237
13977TIP3    H263423   1.403   0.786  13.795 -2.7727  0.2420  0.8293
13978TIP3   OH263424   0.291   0.325   5.094  0.2035 -0.0319  0.3393
13978TIP3    H163425   0.381   0.327   5.127 -0.0102  1.4918  0.8971
13978TIP3    H263426   0.278   0.234   5.066  1.8413 -0.3311  0.4311
13979TIP3   OH263427   4.879   0.700  13.768 -0.4499  0.0063 -0.3286
13979TIP3    H163428   4.830   0.777  13.797 -1.6059 -0.0543 -1.9777
13979TIP3    H263429   4.822   0.627  13.788 -0.0993 -0.2779 -0.3554
13980TIP3   OH263430   0.315   1.154   4.379 -0.3231  0.5315  0.2482
13980TIP3    H163431   0.255   1.150   4.453  1.3319 -0.2861  1.6126
13980TIP3    H263432   0.258   1.167   4.303 -2.0449  2.0138  1.6870
13981TIP3   OH263433   3.377   0.178   5.612  0.9488 -0.0778  0.3705
13981TIP3    H163434   3.353   0.185   5.520  1.5760 -0.0157  0.2098
13981TIP3    H263435   3.365   0.266   5.647  0.5524 -0.1380  0.3874
13982TIP3   OH263436   1.265   3.265   5.545  0.0489 -0.2422  0.6053
13982TIP3    H163437   1.174   3.248   5.518 -0.6422  0.0891  2.5289
13982TIP3    H263438   1.261   3.352   5.585  1.2122 -0.2576  0.7677
13983TIP3   OH263439   4.752   4.299   2.675  0.0559 -0.2329  0.3404
13983TIP3    H163440   4.704   4.287   2.593 -0.0545 -0.7039  0.4724
13983TIP3    H263441   4.805   4.378   2.661  0.4939 -0.6479 -0.4041
13984TIP3   OH263442   5.658   1.466  15.149 -0.3574 -0.3138 -0.1200
13984TIP3    H163443   5.710   1.390  15.173  0.5307  0.3021 -0.0468
13984TIP3    H263444   5.676   1.530  15.218  2.5080  1.6086 -2.4222
13985TIP3   OH263445   0.924   1.002  13.356 -0.4300  0.2590 -0.5003
13985TIP3    H163446   0.846   1.026  13.406 -0.0809  0.5659 -0.0936
13985TIP3    H263447   0.976   1.082  13.354  0.8039 -0.4621  0.9583
13986TIP3   OH263448   3.421   4.877  16.477  1.0973  0.3810  0.0716
13986TIP3    H163449   3.415   4.964  16.516 -0.5724  0.3862 -0.1123
13986TIP3    H263450   3.455   4.821  16.547 -0.8982  0.5872  1.3032
13987TIP3   OH263451   4.452   3.340   2.649 -0.5295 -0.3687 -0.7144
13987TIP3    H163452   4.477   3.432   2.656 -1.6072  0.1274 -2.5542
13987TIP3    H263453   4.395   3.325   2.725 -0.9538  0.7109 -0.7947
13988TIP3   OH263454   3.831   5.136   2.512  0.0810  0.1891  0.0831
13988TIP3    H163455   3.829   5.157   2.606 -2.2706 -1.3079  0.4547
13988TIP3    H263456   3.789   5.212   2.470  0.4573  0.5262  0.3025
13989TIP3   OH263457   2.110   5.965   5.643  0.0984 -0.7443 -0.0023
13989TIP3    H163458   2.056   5.893   5.675  0.0705 -1.8672 -2.4178
13989TIP3    H263459   2.100   5.963   5.548 -1.3678  3.6061 -0.1924
13990TIP3   OH263460   1.287   1.676  16.120 -0.5590 -0.1430 -0.3128
13990TIP3    H163461   1.323   1.731  16.189 -1.5915 -0.2521  0.3372
13990TIP3    H263462   1.192   1.686  16.127 -0.6965 -0.2787 -1.6255
13991TIP3   OH263463   3.150   6.203   4.534  0.7568 -0.3421  0.3163
13991TIP3    H163464   3.126   6.249   4.614  0.7303  1.7354 -0.8161
13991TIP3    H263465   3.239   6.172   4.550  1.0968  0.8579  0.8342
13992TIP3   OH263466   0.597   4.664  14.222  0.1702  0.9298  0.2702
13992TIP3    H163467   0.564   4.746  14.186  0.0782  1.3629  1.3166
13992TIP3    H263468   0.647   4.690  14.299 -0.1376 -0.0199  0.8076
13993TIP3   OH263469   2.083   5.465  10.858  0.3480  0.4360 -0.0713
13993TIP3    H163470   1.991   5.471  10.831  0.2374  0.6929  0.3537
13993TIP3    H263471   2.115   5.385  10.817  1.1452  2.4131 -3.8773
13994TIP3   OH263472   4.992   1.375   3.854  0.0409  0.3112  0.1658
13994TIP3    H163473   4.964   1.304   3.797  2.4134 -0.1647 -0.5008
13994TIP3    H263474   4.984   1.454   3.799 -0.4135  0.2526  0.1456
13995TIP3   OH263475   2.113   6.700   6.047  0.5546  0.3982  0.5418
13995TIP3    H163476   2.066   6.755   5.984  0.0306 -0.4638  0.1572
13995TIP3    H263477   2.047   6.675   6.111  1.0568  1.1563  1.3663
13996TIP3   OH263478   2.194   0.665  12.364  0.0190 -0.4683 -0.4090
13996TIP3    H163479   2.206   0.574  12.390 -0.3921 -0.4967 -0.3118
13996TIP3    H263480   2.222   0.715  12.440 -1.6617 -0.5614  0.3160
13997TIP3   OH263481   4.398   5.393   3.499 -0.2885  0.4882  0.3105
13997TIP3    H163482   4.469   5.335   3.472 -1.1105  0.3977 -1.7875
13997TIP3    H263483   4.344   5.339   3.556 -0.0636 -0.2503 -0.1606
13998TIP3   OH263484   5.883   1.846  11.817  0.0036  0.1732  0.0040
13998TIP3    H163485   5.977   1.835  11.835 -0.1472 -0.1967  0.6049
13998TIP3    H263486   5.840   1.807  11.893 -0.6294  1.0237  0.0933
13999TIP3   OH263487   5.309   6.626  11.940  0.0274  0.7593 -0.1257
13999TIP3    H163488   5.394   6.667  11.921  0.5485 -0.1822  0.1269
13999TIP3    H263489   5.267   6.686  12.001  0.8184  0.8854  0.3101
14000TIP3   OH263490   3.032   3.344  16.709  0.3403  0.4437 -0.2496
14000TIP3    H163491   3.060   3.282  16.642  2.1482  0.8053  0.1154
14000TIP3    H263492   3.010   3.423  16.660 -1.1974 -0.1969 -0.6425
14001TIP3   OH263493   3.464   0.115   0.835 -0.1631  0.6861  0.0283
14001TIP3    H163494   3.403   0.066   0.779  1.0520  0.1794 -0.8845
14001TIP3    H263495   3.414   0.132   0.915 -1.2816 -0.2993 -0.4278
14002TIP3   OH263496   6.166   3.427  15.310  0.5673 -0.0770 -0.5290
14002TIP3    H163497   6.173   3.371  15.233  0.0912 -0.2342 -0.4618
14002TIP3    H263498   6.113   3.501  15.281  0.1832 -0.2558 -0.2884
14003TIP3   OH263499   5.664   1.615  14.485 -0.8162 -0.1594  0.2804
14003TIP3    H163500   5.678   1.707  14.510 -0.4713 -0.1672  0.1169
14003TIP3    H263501   5.669   1.615  14.390 -1.4025 -0.2536  0.2447
14004TIP3   OH263502   3.447   4.676   2.106  0.7269  0.8544  0.0054
14004TIP3    H163503   3.507   4.750   2.099  0.6847  0.7596 -1.9652
14004TIP3    H263504   3.370   4.704   2.057  0.6841 -0.4470 -0.7108
14005TIP3   OH263505   0.274   5.904  12.796  0.4154  0.0647  0.0232
14005TIP3    H163506   0.215   5.937  12.728  1.8649  0.0110 -1.3208
14005TIP3    H263507   0.262   5.964  12.870 -2.9276 -1.2210  0.7029
14006TIP3   OH263508   1.366   3.414  13.473  0.1220 -0.3116 -0.0321
14006TIP3    H163509   1.299   3.427  13.540  0.1311  1.1210 -0.2800
14006TIP3    H263510   1.446   3.396  13.522  0.2346  1.2128  0.3780
14007TIP3   OH263511   0.120   3.688  16.503  0.0477 -0.0904  0.0870
14007TIP3    H163512   0.168   3.744  16.564  1.9157 -1.6434  0.1474
14007TIP3    H263513   0.072   3.749  16.447  0.4251  1.4687  1.3894
14008TIP3   OH263514   4.659   1.218   2.384  0.4162 -0.2759 -0.0389
14008TIP3    H163515   4.603   1.156   2.337  1.6925  0.0858 -2.1974
14008TIP3    H263516   4.626   1.304   2.358  0.2341 -0.0319  0.9475
14009TIP3   OH263517   2.026   0.718   1.673  0.0707 -0.0719  0.0737
14009TIP3    H163518   2.045   0.635   1.629  3.1162  0.3245  0.4156
14009TIP3    H263519   1.940   0.705   1.713 -0.1937 -2.5011 -1.1103
14010TIP3   OH263520   5.358   4.363  15.139 -0.1926  0.0840 -0.0657
14010TIP3    H163521   5.284   4.403  15.185 -1.0256  0.5117 -1.6943
14010TIP3    H263522   5.327   4.275  15.118 -0.8925  0.7620 -2.0912
14011TIP3   OH263523   6.667   4.866  17.175 -0.1915  0.7380  0.7221
14011TIP3    H163524   6.761   4.856  17.193 -0.3610  1.6097  2.1793
14011TIP3    H263525   6.659   4.953  17.135 -0.2473  0.1353 -0.6599
14012TIP3   OH263526   2.152   5.058  11.505 -0.2372  0.7298  0.0544
14012TIP3    H163527   2.224   5.002  11.478 -1.2074 -2.0131  2.6142
14012TIP3    H263528   2.085   5.044  11.438 -0.8081 -2.0973  1.0630
14013TIP3   OH263529   2.869   1.430   0.841 -0.1339  0.2594  0.4948
14013TIP3    H163530   2.811   1.494   0.883 -1.1346  0.1860 -0.7311
14013TIP3    H263531   2.811   1.375   0.789  0.9436 -0.4008 -0.0381
14014TIP3   OH263532   4.134   0.819  11.275  0.3143  0.3056 -0.3490
14014TIP3    H163533   4.113   0.902  11.231 -0.3640  0.3683  0.0935
14014TIP3    H263534   4.190   0.844  11.348 -0.4192  0.4521  0.1719
14015TIP3   OH263535   3.833   0.536   0.848  0.0304  0.4368 -0.1286
14015TIP3    H163536   3.783   0.573   0.775  1.2711 -1.5333 -2.1344
14015TIP3    H263537   3.772   0.477   0.892 -0.1942  0.1006 -0.8730
14016TIP3   OH263538   1.235   0.257  13.805 -0.2108  0.1150 -0.6396
14016TIP3    H163539   1.158   0.299  13.766 -0.1765 -1.0425 -2.0094
14016TIP3    H263540   1.222   0.268  13.899 -1.1743  1.4425 -0.8895
14017TIP3   OH263541   3.267   1.040  16.381 -0.3191 -0.1528 -0.5072
14017TIP3    H163542   3.201   1.001  16.323 -2.1846 -0.5572  1.7284
14017TIP3    H263543   3.236   1.129  16.396 -0.0273 -0.1501  0.0914
14018TIP3   OH263544   0.654   5.288  12.983 -0.3032  0.6116  0.2302
14018TIP3    H163545   0.682   5.218  13.042 -0.5372  2.7809  3.1798
14018TIP3    H263546   0.571   5.258  12.947 -0.6044 -0.4971  1.7444
14019TIP3   OH263547   4.448   1.526   4.562  0.1563  0.4490 -0.1365
14019TIP3    H163548   4.457   1.532   4.657  1.6346 -0.1002 -0.2090
14019TIP3    H263549   4.440   1.617   4.534  0.1992  0.6494  0.4736
14020TIP3   OH263550   5.997   1.366   3.120  0.2061 -0.0025 -0.5720
14020TIP3    H163551   6.007   1.272   3.101 -1.7218  0.0677 -2.1866
14020TIP3    H263552   6.049   1.410   3.053  0.0322  0.1155 -0.6288
14021TIP3   OH263553   3.365   4.604  11.373  0.2939  0.1541 -0.4475
14021TIP3    H163554   3.385   4.661  11.447  0.7984  0.7528 -1.0446
14021TIP3    H263555   3.283   4.639  11.337 -0.4265 -0.6578  0.3307
14022TIP3   OH263556   1.885   2.249  15.967 -0.4346  0.1304  0.4949
14022TIP3    H163557   1.949   2.315  15.941 -0.9637  0.3986 -0.1864
14022TIP3    H263558   1.832   2.236  15.888 -1.7834  0.5873  1.2988
14023TIP3   OH263559   3.278   5.402   3.844 -0.1117  0.0970 -0.0697
14023TIP3    H163560   3.254   5.434   3.931 -1.3494  0.9641 -0.6935
14023TIP3    H263561   3.253   5.474   3.785  0.2515 -0.6677 -1.1813
14024TIP3   OH263562   0.799   3.963   3.585 -0.2575 -0.0865 -0.5734
14024TIP3    H163563   0.876   3.997   3.632 -0.1025  2.5418 -2.5091
14024TIP3    H263564   0.783   3.878   3.625  2.0077  0.4279  1.7463
14025TIP3   OH263565   5.030   3.671  14.828  0.1558  0.3915 -0.3931
14025TIP3    H163566   5.101   3.678  14.892 -0.8037  0.4077  0.6995
14025TIP3    H263567   5.072   3.636  14.750  1.4276  0.7013  0.1197
14026TIP3   OH263568   6.101   4.488   3.583 -0.1644  0.0648 -0.1917
14026TIP3    H163569   6.081   4.528   3.668  0.5287  1.4370 -0.6496
14026TIP3    H263570   6.038   4.526   3.522  0.4488  0.3972 -0.6228
14027TIP3   OH263571   6.644   2.016   0.369 -0.2926 -0.1130 -0.9620
14027TIP3    H163572   6.646   1.924   0.395 -1.0863  0.6004  1.9403
14027TIP3    H263573   6.555   2.030   0.336 -0.4228 -0.1890 -0.6377
14028TIP3   OH263574   6.514   0.751   0.147 -0.1058 -0.3190  0.8098
14028TIP3    H163575   6.428   0.726   0.179  1.1260 -3.1471  2.2209
14028TIP3    H263576   6.549   0.809   0.215 -0.6553  0.3907  0.4981
14029TIP3   OH263577   6.826   6.496   5.754 -0.0142  0.4860 -0.1116
14029TIP3    H163578   6.908   6.540   5.733 -0.2471  1.0052  0.0494
14029TIP3    H263579   6.853   6.410   5.788  0.4155  0.2075 -1.1078
14030TIP3   OH263580   3.098   3.863   4.207 -0.1759 -0.1343 -0.2163
14030TIP3    H163581   3.079   3.770   4.219  1.1435 -0.3631  0.1942
14030TIP3    H263582   3.117   3.896   4.295 -0.9320  0.6091 -0.3133
14031TIP3   OH263583   2.822   1.518   0.058  0.6962 -0.1181  0.2727
14031TIP3    H163584   2.887   1.567   0.008  0.2276  0.8294  0.5678
14031TIP3    H263585   2.828   1.429   0.024  0.8876  0.3517 -0.9685
14032TIP3   OH263586   5.837   5.590  16.958 -0.5901 -0.4859  0.1472
14032TIP3    H163587   5.852   5.684  16.960 -0.1070 -0.5500 -0.1953
14032TIP3    H263588   5.750   5.580  16.920 -0.5663 -0.1818  0.0158
14033TIP3   OH263589   3.049   0.757  12.936 -0.2600  0.1271 -0.9387
14033TIP3    H163590   3.037   0.772  13.030 -0.6637 -0.0310 -0.9651
14033TIP3    H263591   3.051   0.662  12.927  1.7023  0.1080 -0.8494
14034TIP3   OH263592   0.379   2.369  16.526 -0.0464  0.0609  0.3238
14034TIP3    H163593   0.426   2.425  16.465  0.0197 -1.7647 -1.4129
14034TIP3    H263594   0.392   2.280  16.493 -0.3330 -1.0113  2.8117
14035TIP3   OH263595   0.300   6.453   2.802  0.4872 -0.4500  0.7217
14035TIP3    H163596   0.341   6.519   2.858  0.0256  1.0571 -0.6238
14035TIP3    H263597   0.372   6.420   2.747  0.2703  0.9995 -0.5056
14036TIP3   OH263598   2.933   4.814  14.990 -0.0579 -0.7183  0.2393
14036TIP3    H163599   2.937   4.746  14.923 -0.3992 -0.9542  0.4568
14036TIP3    H263600   3.011   4.868  14.973 -0.6479 -0.1993 -0.9614
14037TIP3   OH263601   6.122   3.142   5.735  0.0106 -0.0005  0.3706
14037TIP3    H163602   6.134   3.171   5.825 -0.5813  3.2480 -0.4925
14037TIP3    H263603   6.210   3.117   5.707  0.1569 -1.3426  1.8772
14038TIP3   OH263604   6.338   1.071   4.927 -0.6968 -0.5724 -0.0569
14038TIP3    H163605   6.310   1.097   5.014  3.1810 -0.8411  1.4742
14038TIP3    H263606   6.360   1.153   4.883  0.3397 -0.5838  0.4191
14039TIP3   OH263607   1.761   4.230  11.149 -0.2970  0.1889  0.0033
14039TIP3    H163608   1.726   4.271  11.070  0.1572  0.7888  0.1061
14039TIP3    H263609   1.849   4.202  11.125 -0.2127  0.2364  0.2532
14040TIP3   OH263610   5.424   3.495   5.224 -0.6049 -0.1737  0.4152
14040TIP3    H163611   5.497   3.469   5.281 -1.3468 -0.5081  1.2488
14040TIP3    H263612   5.416   3.422   5.163 -1.6931 -1.2613  1.7842
14041TIP3   OH263613   1.912   6.054  11.661 -0.5230  0.1551  0.0661
14041TIP3    H163614   1.918   6.118  11.732  0.4525 -1.9338  1.9912
14041TIP3    H263615   1.845   5.993  11.690  0.9938 -1.6232  0.0162
14042TIP3   OH263616   1.437   4.725  14.458 -0.2916 -0.2447  0.3065
14042TIP3    H163617   1.470   4.706  14.546 -0.1348  0.5025  0.4148
14042TIP3    H263618   1.455   4.818  14.445 -1.0857 -0.1512 -0.1891
14043TIP3   OH263619   1.920   1.689  15.660 -0.0041  0.3769 -0.0864
14043TIP3    H163620   1.960   1.728  15.583  0.4876 -0.2022 -0.1362
14043TIP3    H263621   1.841   1.740  15.675 -0.5892 -0.0730 -1.5214
14044TIP3   OH263622   6.809   0.185  12.013 -0.2395 -0.0404 -0.4825
14044TIP3    H163623   6.890   0.155  12.053 -0.3154 -0.3642 -0.5678
14044TIP3    H263624   6.818   0.161  11.921 -0.4537 -0.1244 -0.4820
14045TIP3   OH263625   1.111   0.208  16.805 -0.0859  0.4595  0.5076
14045TIP3    H163626   1.124   0.229  16.712 -1.8534  0.5969  0.2616
14045TIP3    H263627   1.196   0.226  16.845  0.8303  0.0226 -1.1392
14046TIP3   OH263628   6.631   2.978   3.469 -0.1946  0.1993  0.8242
14046TIP3    H163629   6.598   3.040   3.535  1.0928  0.4184  1.2861
14046TIP3    H263630   6.701   3.026   3.424  0.2297 -0.6195  0.5905
14047TIP3   OH263631   0.715   6.751  13.288 -0.4214 -0.3211 -0.2577
14047TIP3    H163632   0.652   6.813  13.250  1.2401  2.1331  0.7264
14047TIP3    H263633   0.735   6.690  13.217 -3.0671 -0.5686 -0.8979
14048TIP3   OH263634   3.229   6.364   3.347 -0.3626 -0.1265 -0.4023
14048TIP3    H163635   3.153   6.329   3.301 -0.7139 -1.1380  0.9028
14048TIP3    H263636   3.258   6.293   3.403  0.4618  0.8546  0.4481
14049TIP3   OH263637   5.611   5.976  13.948 -0.2203  0.1005  1.0730
14049TIP3    H163638   5.578   6.048  14.001 -1.6976  1.2194 -1.1808
14049TIP3    H263639   5.691   6.009  13.909 -1.3673  0.9719 -0.6775
14050TIP3   OH263640   6.717   1.971   4.628  0.0454 -0.4555  0.2442
14050TIP3    H163641   6.794   2.007   4.671 -0.6868  1.1195  0.3271
14050TIP3    H263642   6.739   1.880   4.610  2.0915  0.0731 -0.1465
14051TIP3   OH263643   1.359   2.668  11.680 -0.4280 -0.3949  0.1906
14051TIP3    H163644   1.397   2.592  11.723  2.0182  1.1099  0.8951
14051TIP3    H263645   1.373   2.740  11.741  0.1548  1.1938 -1.7101
14052TIP3   OH263646   3.842   4.447  13.959  0.0985  0.2871 -0.1851
14052TIP3    H163647   3.848   4.533  13.918  2.1988  1.3128  1.9744
14052TIP3    H263648   3.933   4.415  13.958 -0.3078 -0.9656  0.8719
14053TIP3   OH263649   2.418   2.880  10.877  0.0782  0.2499 -0.3972
14053TIP3    H163650   2.378   2.857  10.793 -0.6898 -0.3672  0.1202
14053TIP3    H263651   2.349   2.929  10.923  0.5606  0.7451 -0.1932
14054TIP3   OH263652   1.998   2.367   2.007  0.1046  0.0359 -0.6080
14054TIP3    H163653   2.007   2.431   2.078  0.3392  0.5523 -1.0983
14054TIP3    H263654   1.961   2.290   2.050  0.8704  0.1047  0.2089
14055TIP3   OH263655   6.245   0.588  17.006 -0.3504  0.1009 -0.1596
14055TIP3    H163656   6.188   0.590  16.929 -0.1813  1.4742 -0.2623
14055TIP3    H263657   6.247   0.678  17.038  1.5970  0.0527 -0.0293
14056TIP3   OH263658   5.620   6.641  13.878  0.1666  0.1380 -0.3547
14056TIP3    H163659   5.685   6.577  13.907 -0.0106 -0.1224 -0.5168
14056TIP3    H263660   5.669   6.721  13.862  0.1613  0.5739  1.5293
14057TIP3   OH263661   3.544   2.556  12.400  0.1582  0.2286 -0.2940
14057TIP3    H163662   3.464   2.522  12.439 -0.7916  1.4410 -1.1250
14057TIP3    H263663   3.590   2.478  12.368 -0.3302 -0.5373  0.8218
14058TIP3   OH263664   4.514   6.802  13.562 -0.3571  0.0227 -0.0208
14058TIP3    H163665   4.478   6.861  13.629 -1.4801  2.6452 -2.6898
14058TIP3    H263666   4.551   6.729  13.611 -3.2680  0.5339  3.3250
14059TIP3   OH263667   5.681   6.137   5.164  0.0175  0.6657 -0.1962
14059TIP3    H163668   5.641   6.050   5.169 -0.5320  0.9301 -0.0137
14059TIP3    H263669   5.617   6.191   5.118  0.4633  0.9189 -0.5280
14060TIP3   OH263670   0.672   6.426  14.923  0.1386 -0.3383 -0.2480
14060TIP3    H163671   0.597   6.375  14.953 -0.5741  1.2397  0.7942
14060TIP3    H263672   0.744   6.399  14.980  0.0532 -0.9587 -0.4275
14061TIP3   OH263673   0.529   3.971   5.627  0.5144  0.3413  0.1943
14061TIP3    H163674   0.610   3.985   5.577 -0.5004  1.0799 -1.3018
14061TIP3    H263675   0.560   3.944   5.714  2.3474 -0.4989 -0.6500
14062TIP3   OH263676   2.962   4.051   4.585  0.1846  0.2655 -0.0759
14062TIP3    H163677   2.881   4.082   4.546 -0.0152  0.7310  0.7049
14062TIP3    H263678   2.936   3.980   4.643  0.3297  0.4640  0.2332
14063TIP3   OH263679   0.522   5.005  13.713  0.4663 -0.2227 -0.3111
14063TIP3    H163680   0.547   5.096  13.731 -2.5821  0.5966  0.4536
14063TIP3    H263681   0.580   4.952  13.768  2.2279  1.2236 -0.6821
14064TIP3   OH263682   1.206   3.160  13.625 -0.1667 -0.3943 -0.4565
14064TIP3    H163683   1.185   3.114  13.706  2.7413 -0.1489  0.5538
14064TIP3    H263684   1.234   3.247  13.652  0.9023 -0.3144 -1.6651
14065TIP3   OH263685   6.156   0.667   3.120  0.6804 -0.5487  0.4428
14065TIP3    H163686   6.183   0.647   3.210  1.0593  0.1899  0.5058
14065TIP3    H263687   6.143   0.762   3.120  0.5777 -0.5578 -0.2548
14066TIP3   OH263688   5.060   0.772  14.475  0.6253 -0.6648 -0.0626
14066TIP3    H163689   5.139   0.717  14.471 -0.4582 -2.4528  1.5355
14066TIP3    H263690   4.992   0.714  14.509 -1.4317  0.8139 -1.3948
14067TIP3   OH263691   3.848   3.323   1.394  0.5346  1.0284 -0.1206
14067TIP3    H163692   3.766   3.323   1.344 -0.4254  2.1669  1.3468
14067TIP3    H263693   3.855   3.234   1.428 -0.9543  1.2905  0.9951
14068TIP3   OH263694   5.803   1.243  16.550 -0.8637  0.1495  0.0087
14068TIP3    H163695   5.798   1.180  16.621  0.8664 -2.0436 -1.6765
14068TIP3    H263696   5.792   1.191  16.470  3.1032  1.3755 -1.6242
14069TIP3   OH263697   3.130   4.431   4.969  0.3910  0.2225  0.2922
14069TIP3    H163698   3.036   4.447   4.966  0.2948 -0.3982 -0.3692
14069TIP3    H263699   3.156   4.420   4.877  0.8394 -1.0060  0.5406
14070TIP3   OH263700   6.511   2.210  11.325  0.1744 -0.3804  0.1095
14070TIP3    H163701   6.437   2.269  11.340  0.6987  0.0031  1.2843
14070TIP3    H263702   6.508   2.191  11.231 -1.4533 -0.4409  0.1445
14071TIP3   OH263703   1.502   4.020   1.032  0.1525 -0.1531  0.0798
14071TIP3    H163704   1.566   4.053   1.096  1.4552 -0.2567 -1.1248
14071TIP3    H263705   1.464   4.099   0.993 -1.2197 -0.0758  1.4759
14072TIP3   OH263706   0.743   5.970   2.367 -0.0391 -0.8745 -0.5372
14072TIP3    H163707   0.738   5.875   2.379 -3.8535 -0.6972  0.7870
14072TIP3    H263708   0.746   6.005   2.455 -3.6189  0.1611 -0.6644
14073TIP3   OH263709   6.464   0.222  14.826 -0.2683  0.0411  0.9010
14073TIP3    H163710   6.507   0.181  14.900 -0.3448 -0.0859  0.8741
14073TIP3    H263711   6.371   0.207  14.839 -0.2380 -0.7080  0.3531
14074TIP3   OH263712   1.440   3.868  14.847 -0.3857  0.4935 -0.5120
14074TIP3    H163713   1.512   3.831  14.897 -0.6911 -0.8912 -1.0449
14074TIP3    H263714   1.365   3.864  14.906 -0.9610 -1.9881 -1.2845
14075TIP3   OH263715   1.156   4.468   1.084  0.2597 -0.5406  0.2659
14075TIP3    H163716   1.132   4.557   1.111  1.1383 -0.3028  0.3009
14075TIP3    H263717   1.084   4.413   1.114  0.5533 -0.1009  1.8837
14076TIP3   OH263718   1.416   5.346  11.958 -0.1149  0.5290  0.2856
14076TIP3    H163719   1.388   5.350  11.867  1.0657 -0.7132 -0.1747
14076TIP3    H263720   1.501   5.390  11.959  1.1690 -1.7690  0.1703
14077TIP3   OH263721   0.612   3.395  16.049  0.0725 -0.0566  0.1692
14077TIP3    H163722   0.669   3.472  16.048  2.1349 -1.5170 -0.4251
14077TIP3    H263723   0.604   3.369  15.957 -0.5791 -0.5957  0.3621
14078TIP3   OH263724   6.344   1.731   4.138 -0.1942 -0.1306  0.0329
14078TIP3    H163725   6.377   1.644   4.116  0.0110 -0.4455  1.5002
14078TIP3    H263726   6.423   1.782   4.159 -0.2257  0.7008 -1.6404
14079TIP3   OH263727   3.666   6.738  15.915 -0.1783 -0.0122  0.0947
14079TIP3    H163728   3.620   6.681  15.854 -0.1903 -0.7425  0.7811
14079TIP3    H263729   3.660   6.825  15.875 -0.0009 -0.5103 -1.0488
14080TIP3   OH263730   4.420   1.517  15.551  0.2387  0.1727  0.1202
14080TIP3    H163731   4.499   1.546  15.504  0.1815  0.3005  0.1053
14080TIP3    H263732   4.362   1.485  15.481  0.1480  0.3757  0.1033
14081TIP3   OH263733   1.337   6.389  15.977  0.0909  0.6831  0.6502
14081TIP3    H163734   1.348   6.352  15.889 -1.2519  0.1367  0.6863
14081TIP3    H263735   1.408   6.453  15.985 -1.5393  3.0826 -2.0742
14082TIP3   OH263736   1.064   5.662  15.436  0.0666 -0.4071 -0.0154
14082TIP3    H163737   1.019   5.705  15.363  0.2312  2.4591  1.4418
14082TIP3    H263738   1.030   5.572  15.435  0.0712 -0.4967 -3.5497
14083TIP3   OH263739   4.534   6.233  13.346  0.0512  0.7324 -0.2958
14083TIP3    H163740   4.628   6.225  13.366  0.1402  0.1996 -0.8851
14083TIP3    H263741   4.506   6.143  13.329 -0.7577  0.7834  0.6664
14084TIP3   OH263742   1.950   1.274   5.574  0.2729 -0.1182  0.0516
14084TIP3    H163743   2.022   1.213   5.592 -0.4179 -0.8243  0.4599
14084TIP3    H263744   1.874   1.218   5.560  0.0383  0.5539 -1.6429
14085TIP3   OH263745   2.911   2.093   2.147  0.2409  0.6181 -0.0289
14085TIP3    H163746   2.886   2.136   2.229  0.9114  1.2877 -0.1643
14085TIP3    H263747   2.969   2.156   2.104 -0.0599  0.2521 -0.9961
14086TIP3   OH263748   2.579   0.292   2.631 -0.0254 -0.5649 -0.1679
14086TIP3    H163749   2.589   0.209   2.678 -0.5356 -1.0666 -0.9202
14086TIP3    H263750   2.574   0.267   2.539  1.9695  0.4908 -0.6045
14087TIP3   OH263751   4.485   2.277  17.101  0.4570 -0.6023  0.3528
14087TIP3    H163752   4.440   2.294  17.184 -0.9831 -0.0309 -0.5011
14087TIP3    H263753   4.443   2.335  17.038  1.7694 -0.7593 -0.7165
14088TIP3   OH263754   4.520   6.551   2.252 -0.9882 -0.1475 -0.5277
14088TIP3    H163755   4.488   6.479   2.198  0.2523 -3.0176  2.3127
14088TIP3    H263756   4.614   6.539   2.255 -0.7925  1.3635  0.3494
14089TIP3   OH263757   4.842   0.900  14.289  0.2366  0.2894 -0.2219
14089TIP3    H163758   4.876   0.845  14.359 -1.9673  0.6673  1.2526
14089TIP3    H263759   4.772   0.849  14.250 -1.1356  1.5624  0.4613
14090TIP3   OH263760   5.749   3.324  15.735  0.4717 -0.4599  0.2958
14090TIP3    H163761   5.821   3.348  15.677 -0.7890  0.5422 -0.9251
14090TIP3    H263762   5.672   3.364  15.695 -0.4783  0.2119  2.6152
14091TIP3   OH263763   1.956   5.811   0.041  0.7559 -0.1240 -0.2839
14091TIP3    H163764   2.042   5.775   0.023  0.8197  0.9663 -2.5927
14091TIP3    H263765   1.933   5.859  -0.039 -1.5668  0.4379  0.6293
14092TIP3   OH263766   1.121   6.441   1.998  0.2907 -0.6072 -0.5896
14092TIP3    H163767   1.073   6.365   2.030 -1.0075  0.0885 -0.7871
14092TIP3    H263768   1.212   6.412   1.993  0.7426 -0.6905  4.0261
14093TIP3   OH263769   5.775   0.389   3.083  0.4932 -0.4195 -0.0016
14093TIP3    H163770   5.869   0.400   3.098  0.4050 -1.0497  1.0694
14093TIP3    H263771   5.737   0.473   3.108  0.6762 -0.4792  0.4962
14094TIP3   OH263772   0.377   5.886  11.281 -0.2272  0.1296  0.2464
14094TIP3    H163773   0.343   5.959  11.230  0.0129  0.2045  0.1944
14094TIP3    H263774   0.453   5.921  11.327 -1.0551  0.3690  1.5073
14095TIP3   OH263775   2.769   3.908   6.260 -0.3071 -0.1903 -0.5686
14095TIP3    H163776   2.731   3.957   6.333  1.8061  0.4733  0.1788
14095TIP3    H263777   2.739   3.955   6.182 -1.7757 -0.2993 -0.0960
14096TIP3   OH263778   1.505   6.121   6.392 -0.2484  0.1903  0.0484
14096TIP3    H163779   1.482   6.032   6.365  0.8085  0.0095 -0.3410
14096TIP3    H263780   1.592   6.112   6.431 -0.0665  1.0696 -0.1322
14097TIP3   OH263781   0.541   6.073  11.408  0.3720 -0.9207 -0.4514
14097TIP3    H163782   0.623   6.043  11.449  1.2549 -0.3578 -1.7334
14097TIP3    H263783   0.570   6.128  11.335 -1.1384 -1.4501 -1.4970
14098TIP3   OH263784   4.015   6.319  11.979  0.4350  0.4493 -0.4831
14098TIP3    H163785   4.087   6.261  12.005  2.3228  2.0992 -1.7459
14098TIP3    H263786   4.012   6.311  11.884  0.4108  2.0284 -0.6283
14099TIP3   OH263787   1.969   2.106  13.607  0.0417  0.1637  0.2168
14099TIP3    H163788   1.876   2.087  13.610  0.2002 -0.4894  1.4280
14099TIP3    H263789   2.003   2.045  13.541 -0.0752 -1.1447  1.3080
14100TIP3   OH263790   0.711   1.426   5.473  0.9754 -0.7078  0.5836
14100TIP3    H163791   0.757   1.345   5.495  1.8121 -0.7088 -1.0121
14100TIP3    H263792   0.668   1.407   5.390 -0.8497 -0.2626  1.3827
14101TIP3   OH263793   1.264   5.390  15.713 -0.6433  0.0319  0.6832
14101TIP3    H163794   1.272   5.318  15.777 -2.0934  0.3427  1.2562
14101TIP3    H263795   1.267   5.469  15.767  0.5886  0.4197  0.0859
14102TIP3   OH263796   3.394   1.131  15.008 -0.1735 -0.0260  0.3483
14102TIP3    H163797   3.354   1.187  15.075  1.3548 -0.1802  1.4430
14102TIP3    H263798   3.397   1.044  15.047  0.2775 -0.2289 -0.1240
14103TIP3   OH263799   0.345   0.844   2.783 -0.2904 -0.1914 -0.2206
14103TIP3    H163800   0.329   0.920   2.838  1.9968  0.3203 -0.1418
14103TIP3    H263801   0.375   0.880   2.700 -1.9353 -0.9948 -1.2217
14104TIP3   OH263802   3.914   5.811  11.990 -0.5857 -0.5655  0.0675
14104TIP3    H163803   3.859   5.810  11.911  0.0741  0.3938 -0.4308
14104TIP3    H263804   3.891   5.731  12.036 -0.6464 -1.3881 -1.3400
14105TIP3   OH263805   5.859   0.422  15.767  0.6183 -0.3377  0.7200
14105TIP3    H163806   5.887   0.367  15.693  0.8496 -0.5131  0.9365
14105TIP3    H263807   5.940   0.454  15.805  0.4952 -0.1548  0.8311
14106TIP3   OH263808   0.754   2.730  10.606 -0.0562 -0.0979  0.0049
14106TIP3    H163809   0.768   2.642  10.572  1.6804 -0.4294  1.4153
14106TIP3    H263810   0.821   2.740  10.674 -1.3051  1.6962  1.0392
14107TIP3   OH263811   0.789   1.181  17.200 -0.0634 -0.4508  0.5255
14107TIP3    H163812   0.709   1.218  17.239 -0.9759 -1.0887 -0.6938
14107TIP3    H263813   0.849   1.172  17.274 -1.1771 -0.1031  1.5053
14108TIP3   OH263814   2.469   4.357   3.210 -0.0049  0.4622  0.1305
14108TIP3    H163815   2.390   4.304   3.202  0.4023  0.1457 -2.6175
14108TIP3    H263816   2.465   4.392   3.299 -3.2547  0.5065  0.0807
14109TIP3   OH263817   1.964   2.144  17.292 -0.4290 -0.0181 -0.2572
14109TIP3    H163818   2.029   2.076  17.312 -0.5831 -0.0105  0.3006
14109TIP3    H263819   1.884   2.114  17.336 -0.5786  0.3744 -0.2548
14110TIP3   OH263820   3.398   2.071  14.854  0.1976 -0.4913  0.4654
14110TIP3    H163821   3.339   2.127  14.904  0.3981 -0.1812  0.3599
14110TIP3    H263822   3.454   2.030  14.920  0.6504  0.1378  0.4799
14111TIP3   OH263823   4.554   4.103   5.048 -0.0537  0.0811  0.4170
14111TIP3    H163824   4.536   4.076   5.138 -1.0255  0.6205  0.3997
14111TIP3    H263825   4.627   4.048   5.020 -0.3633 -0.7532  1.2141
14112TIP3   OH263826   0.707   0.367  13.367 -0.1633  0.5898 -0.4965
14112TIP3    H163827   0.618   0.392  13.341 -0.9718  0.9677  2.3509
14112TIP3    H263828   0.763   0.433  13.326 -1.2897  0.9918 -1.4477
14113TIP3   OH263829   0.429   1.529  11.815  0.5791  0.2261  0.1255
14113TIP3    H163830   0.443   1.615  11.777  1.4194  0.1091  0.1396
14113TIP3    H263831   0.352   1.538  11.870  1.4330  1.3218  1.1835
14114TIP3   OH263832   0.307   0.829  13.410 -0.2975  0.4741 -0.3586
14114TIP3    H163833   0.313   0.840  13.505 -0.3089 -0.0697 -0.2964
14114TIP3    H263834   0.385   0.874  13.377 -1.7076  3.1555 -0.3028
14115TIP3   OH263835   5.989   0.445  13.173 -0.3009  0.6801 -0.3857
14115TIP3    H163836   6.045   0.508  13.128  0.5383  0.1608 -0.0985
14115TIP3    H263837   6.050   0.380  13.209 -1.1612 -0.4300 -0.8703
14116TIP3   OH263838   5.651   5.157  11.293  0.3867  0.2018  0.0974
14116TIP3    H163839   5.719   5.094  11.319 -0.0259  0.0141  0.7404
14116TIP3    H263840   5.663   5.168  11.199  1.4612  0.3442  0.2401
14117TIP3   OH263841   5.927   0.229   6.390  0.0687  0.3437  0.1334
14117TIP3    H163842   5.921   0.285   6.313  2.9372 -1.0094 -1.2253
14117TIP3    H263843   5.871   0.154   6.371  0.7055  0.0502 -0.6389
14118TIP3   OH263844   4.847   5.072  12.926 -0.2248 -0.3099  0.1952
14118TIP3    H163845   4.922   5.088  12.985 -0.2440 -0.5248  0.2766
14118TIP3    H263846   4.883   5.017  12.857 -0.5637 -1.3392  0.8128
14119TIP3   OH263847   4.359   0.264  16.163 -0.3010 -0.0823 -0.0750
14119TIP3    H163848   4.388   0.261  16.254 -0.0598  0.8229 -0.1105
14119TIP3    H263849   4.302   0.188  16.153 -0.2544 -0.2413  0.8040
14120TIP3   OH263850   4.795   3.028   0.384 -0.5461  0.1665 -0.7016
14120TIP3    H163851   4.780   3.093   0.452  0.6774 -1.1264  0.8960
14120TIP3    H263852   4.796   2.944   0.431  2.5323 -0.6082 -1.8962
14121TIP3   OH263853   5.814   4.010   2.624  0.1390  0.0277 -0.4865
14121TIP3    H163854   5.755   4.048   2.689  0.8833  0.2124  0.0906
14121TIP3    H263855   5.902   4.024   2.659  0.4757 -1.6364 -0.5642
14122TIP3   OH263856   1.816   0.890   6.189  0.2465 -0.0892 -0.2771
14122TIP3    H163857   1.724   0.899   6.166 -0.0177 -0.0855  0.7443
14122TIP3    H263858   1.852   0.978   6.176 -0.2649  0.3032  0.8609
14123TIP3   OH263859   0.880   6.541  13.862  0.6382 -0.1064 -0.1815
14123TIP3    H163860   0.892   6.635  13.877  2.6021 -0.3749  0.2419
14123TIP3    H263861   0.895   6.501  13.948  1.7250 -0.9383 -0.7346
14124TIP3   OH263862   2.925   1.576  11.824 -0.0789  0.1790 -0.3045
14124TIP3    H163863   2.894   1.493  11.786  1.9173 -0.4910 -0.5871
14124TIP3    H263864   2.874   1.643  11.779 -3.9491 -0.9073  2.0488
14125TIP3   OH263865   1.488   4.776  15.395 -0.4945 -0.2335  0.2688
14125TIP3    H163866   1.459   4.698  15.443 -0.2527 -0.6663 -0.2843
14125TIP3    H263867   1.406   4.816  15.364 -0.5179 -1.6859 -1.6487
14126TIP3   OH263868   0.728   0.546  12.286 -0.2876 -0.1597  0.5892
14126TIP3    H163869   0.819   0.571  12.267 -0.6763  0.6329 -0.3110
14126TIP3    H263870   0.709   0.589  12.369 -0.3571  1.0686 -0.0440
14127TIP3   OH263871   3.298   1.514  11.976 -0.1331  0.2923 -0.3142
14127TIP3    H163872   3.370   1.451  11.965 -1.1226 -1.0677  0.6193
14127TIP3    H263873   3.312   1.551  12.063 -0.8046 -0.3143  0.0574
14128TIP3   OH263874   0.881   5.406   5.627  0.2656 -0.1360  0.4993
14128TIP3    H163875   0.972   5.383   5.646 -0.2699 -1.0325  2.1401
14128TIP3    H263876   0.879   5.420   5.532  2.4460  1.5641  0.6372
14129TIP3   OH263877   0.978   0.911   4.544 -0.3160 -0.0532 -0.2823
14129TIP3    H163878   1.048   0.967   4.512  0.1350 -1.3812 -1.7206
14129TIP3    H263879   1.003   0.823   4.516 -1.8506 -0.7507  0.4260
14130TIP3   OH263880   5.234   5.850   1.131  0.5949  0.1455 -0.5211
14130TIP3    H163881   5.183   5.771   1.149  0.8632 -0.1173 -0.9003
14130TIP3    H263882   5.307   5.846   1.193  0.2984  0.3906 -0.1527
14131TIP3   OH263883   5.584   2.148   2.526  0.0085  0.5593  0.1690
14131TIP3    H163884   5.576   2.214   2.458 -2.8640  0.2083  0.0136
14131TIP3    H263885   5.580   2.198   2.608 -2.0343  0.7043  0.0522
14132TIP3   OH263886   2.325   0.327   5.553 -0.1613  0.3249  0.9353
14132TIP3    H163887   2.388   0.376   5.500 -1.3995  2.6413  1.4624
14132TIP3    H263888   2.294   0.390   5.618 -2.0728 -1.0869  1.4885
14133TIP3   OH263889   3.114   3.141   0.330 -0.2491  0.1828 -0.3005
14133TIP3    H163890   3.155   3.228   0.330 -1.1597  0.6321 -0.9748
14133TIP3    H263891   3.187   3.080   0.317  0.5749  0.7297  1.4767
14134TIP3   OH263892   3.682   5.291   1.169 -0.3250  0.0160  0.1931
14134TIP3    H163893   3.603   5.324   1.124  0.2874  1.2731 -0.0154
14134TIP3    H263894   3.752   5.299   1.104  0.3604  0.8283  1.0044
14135TIP3   OH263895   4.867   4.918   2.369  0.1578 -0.2738 -0.2143
14135TIP3    H163896   4.907   4.888   2.451  1.4529  1.5830 -0.1016
14135TIP3    H263897   4.882   4.846   2.307  1.7953 -0.5102  0.4154
14136TIP3   OH263898   2.116   3.788  14.511 -0.2974 -0.1610 -0.0135
14136TIP3    H163899   2.119   3.779  14.607 -1.7035  0.5391  0.1276
14136TIP3    H263900   2.060   3.717  14.482 -0.8375  0.3367 -0.1943
14137TIP3   OH263901   4.643   5.281   2.859  0.3125  0.1065  0.2674
14137TIP3    H163902   4.567   5.268   2.801  0.8476 -1.4623 -0.1165
14137TIP3    H263903   4.635   5.372   2.888 -1.8931 -0.1017  0.4917
14138TIP3   OH263904   2.255   3.155   1.420  0.2952  0.0362 -0.1066
14138TIP3    H163905   2.178   3.103   1.396  1.6148 -2.1540  0.0415
14138TIP3    H263906   2.257   3.225   1.355 -0.7108 -1.0338 -1.3715
14139TIP3   OH263907   0.080   4.650  14.741 -0.4620  0.5905 -0.1141
14139TIP3    H163908   0.133   4.713  14.790 -1.9040  1.8558 -0.0807
14139TIP3    H263909   0.010   4.703  14.703 -0.7326 -0.7441 -1.5767
14140TIP3   OH263910   5.466   4.409  13.593  0.5660  0.3521  0.5659
14140TIP3    H163911   5.519   4.333  13.617 -1.3033 -0.7192  1.4833
14140TIP3    H263912   5.407   4.377  13.525 -2.1001  0.1037  2.8122
14141TIP3   OH263913   4.736   1.342   5.701  0.1019  0.4648  0.1644
14141TIP3    H163914   4.788   1.398   5.759  0.7243  0.6546 -0.5672
14141TIP3    H263915   4.701   1.274   5.758 -0.2197  1.2776  0.9754
14142TIP3   OH263916   5.697   5.027   5.252  0.9859 -0.4129  0.1020
14142TIP3    H163917   5.775   4.973   5.253  0.8177 -0.6568 -0.0114
14142TIP3    H263918   5.697   5.072   5.337  0.8869 -0.9258  0.3729
14143TIP3   OH263919   2.600   6.781  12.997  0.1351  0.5634 -0.2809
14143TIP3    H163920   2.628   6.723  13.067 -2.1629  0.1856  0.4058
14143TIP3    H263921   2.682   6.812  12.957  1.6365 -5.0244 -2.3960
14144TIP3   OH263922   6.048   3.632   4.776 -0.2147 -0.0983 -0.3775
14144TIP3    H163923   5.997   3.580   4.714  0.5470 -0.3778 -0.7755
14144TIP3    H263924   5.995   3.711   4.789 -0.4053 -0.0463 -1.3586
14145TIP3   OH263925   5.349   5.544  12.047  0.0184  0.4194  0.4737
14145TIP3    H163926   5.262   5.504  12.045 -0.2045  0.8683 -1.2155
14145TIP3    H263927   5.335   5.631  12.010  1.1801  0.4899  0.1716
14146TIP3   OH263928   0.946   4.266  14.704 -0.4797 -0.0290 -0.0245
14146TIP3    H163929   0.882   4.294  14.768 -0.7850  0.9543 -0.7379
14146TIP3    H263930   1.031   4.286  14.744 -0.6519  3.4198 -1.0499
14147TIP3   OH263931   3.709   0.627   4.501 -0.0251 -0.0683  0.2588
14147TIP3    H163932   3.616   0.624   4.475 -0.4226  1.3694  1.4107
14147TIP3    H263933   3.754   0.581   4.430 -1.6735 -1.4411  0.0033
14148TIP3   OH263934   3.576   0.897  11.496 -0.2279  0.0143  0.1961
14148TIP3    H163935   3.585   0.843  11.417 -0.6319  2.2080 -1.4558
14148TIP3    H263936   3.557   0.985  11.462  0.3255  1.1933  2.7337
14149TIP3   OH263937   3.389   2.545   0.548  0.3279 -0.0726  0.3813
14149TIP3    H163938   3.320   2.572   0.488 -0.5908  0.4493  1.6172
14149TIP3    H263939   3.463   2.522   0.492 -0.4987  0.3687 -0.9267
14150TIP3   OH263940   3.783   1.454   1.686 -0.0252 -0.1819  1.0629
14150TIP3    H163941   3.858   1.511   1.670 -0.2912 -0.4514 -1.6190
14150TIP3    H263942   3.716   1.485   1.625 -0.2980 -3.0987 -0.2749
14151TIP3   OH263943   5.610   3.788  15.497 -0.1109  0.2087  0.8042
14151TIP3    H163944   5.615   3.882  15.509  0.2381  0.3438 -0.2927
14151TIP3    H263945   5.525   3.774  15.455 -0.3930 -0.0211  1.4481
14152TIP3   OH263946   5.028   1.589   4.788  0.0485  0.0286 -0.1112
14152TIP3    H163947   5.074   1.587   4.871 -0.1843 -1.4314  0.0114
14152TIP3    H263948   5.056   1.509   4.743  0.3568  0.8995 -1.5540
14153TIP3   OH263949   4.205   0.538  11.262  0.1859 -0.2411  0.2559
14153TIP3    H163950   4.189   0.632  11.271 -0.8108 -0.4705  1.0715
14153TIP3    H263951   4.298   0.528  11.278  0.3790  0.6504 -0.2307
14154TIP3   OH263952   6.301   2.401   3.025  0.1953  0.1157 -0.3223
14154TIP3    H163953   6.347   2.463   3.081 -1.1798  0.5139  0.4408
14154TIP3    H263954   6.251   2.347   3.087 -1.1911  0.4217 -1.1286
14155TIP3   OH263955   3.795   2.055  17.207  0.6168  0.4750 -0.0390
14155TIP3    H163956   3.822   2.028  17.120 -1.4020 -0.9992 -0.2949
14155TIP3    H263957   3.864   2.022  17.265  1.3668  0.4012 -0.9472
14156TIP3   OH263958   3.238   0.891  14.710 -0.5447  0.6843 -0.0213
14156TIP3    H163959   3.181   0.819  14.684  0.3686  0.0683 -0.3548
14156TIP3    H263960   3.320   0.850  14.734  0.0544  1.6260 -0.3814
14157TIP3   OH263961   1.723   2.415  14.378 -0.5125 -0.1042  0.1007
14157TIP3    H163962   1.705   2.455  14.293 -0.2820 -0.7588 -0.2595
14157TIP3    H263963   1.768   2.333  14.357  0.2424  0.1017  0.8864
14158TIP3   OH263964   0.816   1.385  17.031  0.0183 -0.1552  0.2403
14158TIP3    H163965   0.796   1.324  17.102 -2.0819  0.4383  0.2293
14158TIP3    H263966   0.849   1.463  17.075 -0.9250  0.0713  0.5830
14159TIP3   OH263967   3.809   3.109  13.803  0.5964 -0.0301 -0.7846
14159TIP3    H163968   3.761   3.046  13.855 -2.1495  0.4641 -2.5134
14159TIP3    H263969   3.899   3.104  13.835 -0.4560 -1.4276  2.2558
14160TIP3   OH263970   1.404   3.607  12.134  0.3446 -0.1938 -0.0998
14160TIP3    H163971   1.494   3.599  12.165  1.1732  0.9022 -2.0114
14160TIP3    H263972   1.375   3.517  12.119  0.3445 -0.6858  2.3963
14161TIP3   OH263973   4.066   4.663  11.591  0.2301 -0.1380 -0.4653
14161TIP3    H163974   4.018   4.671  11.509  0.1524  1.1621 -0.3059
14161TIP3    H263975   4.063   4.569  11.611 -1.0430 -0.2688 -1.1640
14162TIP3   OH263976   2.872   6.078   4.734 -0.2223 -0.1504 -0.1805
14162TIP3    H163977   2.932   6.101   4.805 -2.5784 -0.4755  2.0633
14162TIP3    H263978   2.813   6.152   4.726 -1.9355 -1.3708  0.4638
14163TIP3   OH263979   3.000   1.686  17.251  0.2279  0.4596  0.5476
14163TIP3    H163980   3.055   1.759  17.280 -0.0970  1.3181 -0.9332
14163TIP3    H263981   3.031   1.666  17.163 -1.1492  0.2740  0.0889
14164TIP3   OH263982   4.283   3.160   6.474  0.4165  0.3701 -0.1392
14164TIP3    H163983   4.290   3.068   6.450  1.5041  0.5185 -0.3985
14164TIP3    H263984   4.324   3.208   6.403 -1.5344  1.1866 -0.7928
14165TIP3   OH263985   0.433   4.939   0.863  0.3463 -0.3706  0.2151
14165TIP3    H163986   0.453   4.850   0.892  0.5978 -0.7696 -1.1193
14165TIP3    H263987   0.371   4.928   0.792 -1.7287  0.6899  1.7587
14166TIP3   OH263988   2.923   3.883   5.408  0.1938 -0.1062  1.1474
14166TIP3    H163989   2.952   3.818   5.473  0.3725 -0.9068  0.2854
14166TIP3    H263990   2.964   3.854   5.326 -1.7057 -0.3317  0.2395
14167TIP3   OH263991   5.160   0.183   5.429  0.7729 -0.2420  0.2643
14167TIP3    H163992   5.145   0.136   5.347  2.9261  0.9657 -0.9173
14167TIP3    H263993   5.134   0.273   5.410 -1.1267 -0.4015  1.7732
14168TIP3   OH263994   3.081   6.091   6.010  0.6262  0.2092  0.0696
14168TIP3    H163995   3.133   6.041   5.946 -1.2897 -2.4479  0.4188
14168TIP3    H263996   3.120   6.069   6.094  1.0773  1.0366  0.0842
14169TIP3   OH263997   2.179   4.789   5.796 -0.1301 -0.0454 -0.2295
14169TIP3    H163998   2.121   4.820   5.865  0.2393 -0.6496  0.3570
14169TIP3    H263999   2.123   4.731   5.743 -0.7443  1.3548 -1.1696
14170TIP3   OH264000   4.509   3.428   0.955  0.3076 -0.1701 -1.0847
14170TIP3    H164001   4.537   3.447   0.865  0.4295 -0.1802 -1.0499
14170TIP3    H264002   4.421   3.392   0.946 -0.1350  0.8847 -1.1163
14171TIP3   OH264003   0.434   6.372   4.567  0.0487 -0.3625 -0.0187
14171TIP3    H164004   0.338   6.368   4.562  0.0978 -0.4462 -1.7844
14171TIP3    H264005   0.463   6.317   4.494  1.4524 -0.4503  0.5827
14172TIP3   OH264006   2.681   1.178   3.330  0.2970  0.6184 -0.2875
14172TIP3    H164007   2.660   1.125   3.253 -1.0898  1.1392 -0.2996
14172TIP3    H264008   2.773   1.203   3.318  0.6984 -0.9919 -0.7319
14173TIP3   OH264009   2.913   3.123   2.591  0.1435  0.0498  0.2452
14173TIP3    H164010   2.938   3.093   2.679  0.3247  1.3002  0.6356
14173TIP3    H264011   2.995   3.123   2.542 -0.1888 -2.1784 -0.4391
14174TIP3   OH264012   3.614   2.981   5.980  0.2187  0.2045  0.0644
14174TIP3    H164013   3.672   2.963   6.054  0.1412 -2.9058 -0.4825
14174TIP3    H264014   3.527   2.988   6.018  0.3643  0.0923  0.4203
14175TIP3   OH264015   0.049   1.625  15.649  0.1451  0.1696 -0.1476
14175TIP3    H164016   0.095   1.544  15.669  1.3233  0.8112 -0.1639
14175TIP3    H264017  -0.034   1.597  15.611  0.4794 -1.0194 -0.0413
14176TIP3   OH264018   5.289   6.780   5.969  0.6346 -1.0677  0.1274
14176TIP3    H164019   5.298   6.688   5.945  3.4242 -1.3986  1.9359
14176TIP3    H264020   5.351   6.825   5.912 -0.7254 -0.2699 -0.7540
14177TIP3   OH264021   3.391   1.119   0.690 -0.7777 -0.0548  0.2971
14177TIP3    H164022   3.441   1.080   0.619 -1.2657 -0.1643  0.0088
14177TIP3    H264023   3.339   1.187   0.648  0.7970  1.6118  0.9424
14178TIP3   OH264024   5.673   0.398   3.644 -0.3043 -0.4658 -0.2994
14178TIP3    H164025   5.615   0.464   3.682 -2.2406 -1.6941 -1.0046
14178TIP3    H264026   5.654   0.318   3.692 -0.7938 -1.3851 -1.9231
14179TIP3   OH264027   0.271   4.607   2.686 -1.3196  0.0782 -0.5901
14179TIP3    H164028   0.213   4.531   2.686 -1.4403  0.1677  0.3225
14179TIP3    H264029   0.349   4.577   2.639 -0.8503 -1.0136  0.8290
14180TIP3   OH264030   3.420   4.093   1.878  0.1084 -0.0153 -0.4836
14180TIP3    H164031   3.503   4.139   1.894 -0.6398  1.4305 -0.5880
14180TIP3    H264032   3.391   4.066   1.966 -1.2097  2.9763  0.1456
14181TIP3   OH264033   3.033   6.020  10.269 -0.6092 -0.4854 -0.0788
14181TIP3    H164034   2.962   6.033  10.331  1.6972  2.8843  2.1780
14181TIP3    H264035   3.102   5.978  10.320 -0.0659 -1.5317 -1.5947
14182TIP3   OH264036   3.984   2.017  11.727 -0.1093  0.2960  0.0906
14182TIP3    H164037   3.893   2.023  11.757 -0.3686 -0.4386 -0.5225
14182TIP3    H264038   4.034   2.060  11.796 -0.4223 -3.3797  2.9737
14183TIP3   OH264039   5.053   5.872   3.296 -0.3485  0.1784 -0.2186
14183TIP3    H164040   5.106   5.860   3.217 -1.3498  1.3420 -1.1205
14183TIP3    H264041   5.060   5.789   3.343  2.3446  0.3204 -0.2066
14184TIP3   OH264042   3.128   5.027  11.433 -0.2973 -0.4446 -0.0456
14184TIP3    H164043   3.217   5.030  11.398 -0.3682 -1.1861 -0.3224
14184TIP3    H264044   3.138   5.039  11.527 -0.0007  0.4403 -0.1816
14185TIP3   OH264045   5.279   6.515  16.563  0.7043 -0.0317 -0.3706
14185TIP3    H164046   5.287   6.520  16.468 -1.9261 -1.0843 -0.7538
14185TIP3    H264047   5.207   6.575  16.584  0.1255 -1.0550  0.7167
14186TIP3   OH264048   2.969   1.244  14.644 -0.3874 -0.5990 -0.1211
14186TIP3    H164049   3.053   1.214  14.681  0.2358  0.5201 -0.5666
14186TIP3    H264050   2.928   1.293  14.715  0.8750  1.6734 -0.8209
14187TIP3   OH264051   2.089   3.190  11.366 -0.1128 -0.3245 -0.1310
14187TIP3    H164052   2.147   3.267  11.371 -0.7082  0.1570 -0.4976
14187TIP3    H264053   2.043   3.200  11.283 -0.9120 -0.5673  0.2716
14188TIP3   OH264054   6.436   0.726  14.648  0.3252 -0.1487  1.0171
14188TIP3    H164055   6.490   0.805  14.650 -1.0887  1.3248 -4.0257
14188TIP3    H264056   6.348   0.757  14.666 -0.1067 -0.7321 -0.0178
14189TIP3   OH264057   1.780   1.734   4.037  0.4209  0.6959 -0.1961
14189TIP3    H164058   1.757   1.767   3.950 -1.0924 -0.6567 -0.3563
14189TIP3    H264059   1.868   1.698   4.025  0.0256  0.0451 -1.3279
14190TIP3   OH264060   4.874   3.126   2.844  0.0311 -0.0325  0.2339
14190TIP3    H164061   4.804   3.087   2.793  0.4639 -1.8957  0.9985
14190TIP3    H264062   4.953   3.080   2.815  0.3518 -0.7853  2.1886
14191TIP3   OH264063   5.600   5.189  13.719  0.5007  0.8331 -0.3337
14191TIP3    H164064   5.640   5.274  13.738  1.2585  0.5805 -0.7577
14191TIP3    H264065   5.668   5.140  13.672 -0.1387  0.2130 -0.6389
14192TIP3   OH264066   4.972   1.758  11.720  0.1455  0.9092 -0.1249
14192TIP3    H164067   4.887   1.800  11.735 -0.2239  0.3263 -0.5325
14192TIP3    H264068   4.980   1.694  11.791  0.1179  0.7774 -0.2394
14193TIP3   OH264069   1.467   2.434  15.304 -0.5647  0.1302 -0.2657
14193TIP3    H164070   1.386   2.384  15.311 -0.6230 -0.0627 -1.9885
14193TIP3    H264071   1.443   2.523  15.329 -1.0438 -0.1607  0.3241
14194TIP3   OH264072   1.249   3.468   0.781 -0.4246  0.3315  0.2447
14194TIP3    H164073   1.316   3.535   0.768  0.7574 -1.2309 -2.7427
14194TIP3    H264074   1.291   3.403   0.837 -0.6858  0.8808  1.0987
14195TIP3   OH264075   1.711   0.297   2.941 -0.2166 -0.2399  0.1384
14195TIP3    H164076   1.631   0.247   2.954  1.6144 -3.2601  0.7412
14195TIP3    H264077   1.733   0.285   2.848  1.1424 -2.1680  0.6602
14196TIP3   OH264078   2.160   6.150   4.075 -0.0425  0.1754  0.2513
14196TIP3    H164079   2.197   6.231   4.110 -0.0512 -0.0165  0.6992
14196TIP3    H264080   2.228   6.117   4.016  0.5559 -0.2246  1.1420
14197TIP3   OH264081   3.760   2.580  14.682  0.2482  0.3934 -0.4936
14197TIP3    H164082   3.764   2.508  14.746 -0.1957 -0.0298 -0.9305
14197TIP3    H264083   3.718   2.652  14.730 -0.0801  0.0794 -0.3028
14198TIP3   OH264084   0.098   4.263  13.877 -0.1286  0.3713 -0.4179
14198TIP3    H164085   0.095   4.211  13.797 -0.5811  2.1882 -1.6217
14198TIP3    H264086   0.073   4.351  13.850 -0.8775  0.9091  1.8359
14199TIP3   OH264087   4.630   3.265  13.690  0.3065 -0.7370  0.5848
14199TIP3    H164088   4.692   3.300  13.754  1.5462 -1.7415 -0.0207
14199TIP3    H264089   4.676   3.273  13.606 -0.3513 -1.5642  0.1319
14200TIP3   OH264090   3.295   1.473  14.114 -0.2187 -0.3562  0.4120
14200TIP3    H164091   3.289   1.382  14.085  2.2630 -1.0585  1.8327
14200TIP3    H264092   3.340   1.518  14.043 -3.3420  0.3885 -1.2880
14201TIP3   OH264093   6.305   6.383   3.358  0.1617 -0.2649  0.5295
14201TIP3    H164094   6.338   6.461   3.313  0.0389 -0.4373  0.1358
14201TIP3    H264095   6.210   6.388   3.348  0.1491 -0.4286  0.5680
14202TIP3   OH264096   5.686   4.428  12.066 -0.2591 -0.1066  0.3406
14202TIP3    H164097   5.696   4.339  12.099  0.7547 -1.1400 -2.4290
14202TIP3    H264098   5.767   4.472  12.092  0.1840 -0.6688 -0.0503
14203TIP3   OH264099   5.331   3.853  13.979  0.7951 -0.1064 -0.2727
14203TIP3    H164100   5.268   3.815  13.918  1.0447  1.3853 -1.4962
14203TIP3    H264101   5.277   3.889  14.049  0.1035  2.3460 -1.9529
14204TIP3   OH264102   0.098   3.334   4.946  0.2939 -0.0252  0.4779
14204TIP3    H164103   0.027   3.274   4.968  0.5721 -0.9346 -0.9162
14204TIP3    H264104   0.105   3.329   4.850  4.0493 -2.2224  0.6364
14205TIP3   OH264105   5.830   3.755   6.091 -0.3740 -0.5821  0.0510
14205TIP3    H164106   5.775   3.815   6.140 -2.7758 -1.8539 -0.9005
14205TIP3    H264107   5.831   3.790   6.002 -0.4571 -1.0719 -0.1473
14206TIP3   OH264108   4.625   6.435   4.937 -0.1951 -0.3059  0.0909
14206TIP3    H164109   4.585   6.350   4.954  0.4081 -0.7759 -0.7594
14206TIP3    H264110   4.660   6.463   5.021 -2.9558  0.5086  1.0746
14207TIP3   OH264111   1.377   3.206  12.822  0.2048 -0.0465 -0.6399
14207TIP3    H164112   1.333   3.230  12.740  0.0452 -0.2516 -0.6165
14207TIP3    H264113   1.361   3.112  12.830 -1.3891  0.2914  0.5811
14208TIP3   OH264114   3.305   5.380   1.316  0.1951 -0.0846  0.0161
14208TIP3    H164115   3.211   5.372   1.333 -0.0946  0.3062 -1.2328
14208TIP3    H264116   3.334   5.452   1.373  0.0817 -1.2181  1.5458
14209TIP3   OH264117   1.383   0.658  12.202 -0.1523  0.3117  0.3294
14209TIP3    H164118   1.351   0.588  12.145 -0.3734  0.4520  0.2768
14209TIP3    H264119   1.357   0.739  12.157 -0.5856  0.4219  0.7640
14210TIP3   OH264120   2.576   1.699  15.027  0.3236  0.3580  0.5280
14210TIP3    H164121   2.584   1.681  14.933  1.3289 -3.5288  1.2170
14210TIP3    H264122   2.614   1.623  15.070 -2.4470  0.7563  4.1690
14211TIP3   OH264123   2.437   4.392  12.171 -0.0264 -0.2232  0.2691
14211TIP3    H164124   2.424   4.463  12.108 -1.3689  1.6327  2.4750
14211TIP3    H264125   2.477   4.435  12.247 -0.0294 -2.0160  1.3462
14212TIP3   OH264126   1.056   3.917   0.234 -0.2207  0.1885 -0.0086
14212TIP3    H164127   1.147   3.912   0.206 -0.0298 -0.1586  0.6579
14212TIP3    H264128   1.035   4.010   0.229  1.2826  0.8713  3.1657
14213TIP3   OH264129   0.813   1.155   4.379  0.0316 -0.2615 -0.6143
14213TIP3    H164130   0.730   1.114   4.356  0.2074 -1.1209  0.2110
14213TIP3    H264131   0.794   1.202   4.461  0.4752 -0.9112 -0.1275
14214TIP3   OH264132   4.935   6.477  13.704  0.1576 -0.4924  0.7296
14214TIP3    H164133   4.971   6.495  13.791  1.6802 -0.3641  0.1022
14214TIP3    H264134   4.990   6.527  13.644 -1.9554  0.8618 -0.2131
14215TIP3   OH264135   1.605   6.060  14.790 -0.2184 -0.6429  0.2268
14215TIP3    H164136   1.577   6.151  14.799 -1.4345 -0.9398 -0.4240
14215TIP3    H264137   1.685   6.055  14.843 -0.8933  0.4518  1.4232
14216TIP3   OH264138   5.117   4.811   3.923 -0.4182  0.1754 -0.4147
14216TIP3    H164139   5.043   4.782   3.870 -0.5181 -0.0387 -0.1611
14216TIP3    H264140   5.190   4.814   3.861 -0.5198 -0.1276 -0.5551
14217TIP3   OH264141   6.612   0.357  12.293  0.3166  0.1328 -0.1540
14217TIP3    H164142   6.606   0.293  12.223 -1.4953 -1.4476  1.3542
14217TIP3    H264143   6.522   0.370  12.322  0.8485  1.9504  0.8603
14218TIP3   OH264144   4.306   0.869   1.108  0.0142 -0.8526 -0.2861
14218TIP3    H164145   4.264   0.785   1.085 -1.3562 -0.2272 -0.1483
14218TIP3    H264146   4.294   0.923   1.031 -1.3486  0.0430  0.5252
14219TIP3   OH264147   6.066   3.027  15.367 -0.1139  0.0238  0.1526
14219TIP3    H164148   6.036   2.956  15.310  0.8621  1.1247 -1.8555
14219TIP3    H264149   6.052   2.995  15.456 -2.3507 -1.5091 -0.6867
14220TIP3   OH264150   5.989   0.034   5.475 -0.8336  0.1082 -0.8782
14220TIP3    H164151   6.039  -0.036   5.434 -1.2055  0.9274 -2.8149
14220TIP3    H264152   5.979   0.006   5.566  1.4786 -0.9696 -0.8972
14221TIP3   OH264153   4.875   6.766   1.669  0.2176 -0.0711  0.4370
14221TIP3    H164154   4.968   6.774   1.689  0.1837  0.8423  0.3006
14221TIP3    H264155   4.832   6.826   1.730 -0.1845  0.2613 -0.1639
14222TIP3   OH264156   2.730   4.640  11.088  0.7641 -0.0388 -0.0433
14222TIP3    H164157   2.650   4.644  11.036  0.8345  1.6644 -0.0853
14222TIP3    H264158   2.794   4.599  11.030 -0.1038 -1.6499  0.0738
14223TIP3   OH264159   2.042   2.869  17.003 -0.2141 -0.3302  0.5095
14223TIP3    H164160   1.988   2.872  16.925  0.6815 -1.5576 -0.2034
14223TIP3    H264161   1.983   2.893  17.075 -1.2918 -0.1439 -0.4163
14224TIP3   OH264162   4.247   0.546  12.363  0.3963  0.0389  0.8714
14224TIP3    H164163   4.217   0.633  12.389 -0.4425 -0.2602  0.9371
14224TIP3    H264164   4.338   0.542  12.393  2.3776  2.8508 -3.7194
14225TIP3   OH264165   6.090   5.401  11.680  0.2999 -0.0311  0.6178
14225TIP3    H164166   6.047   5.431  11.760 -1.6267 -0.7160 -0.1131
14225TIP3    H264167   6.044   5.321  11.656  1.0957 -0.0520 -0.9660
14226TIP3   OH264168   3.544   1.836   4.165  0.1679  0.0776  0.9008
14226TIP3    H164169   3.580   1.914   4.206  0.7749  0.3598 -0.1489
14226TIP3    H264170   3.454   1.832   4.197  0.0958  1.2589  0.8802
14227TIP3   OH264171   2.949   5.866   3.639 -0.4474  0.3760 -0.0121
14227TIP3    H164172   2.861   5.876   3.675 -0.4678 -0.5121  0.2224
14227TIP3    H264173   3.006   5.857   3.716 -0.0487  1.6603 -0.1460
14228TIP3   OH264174   5.957   0.435   0.183 -0.5096 -0.0477 -0.0553
14228TIP3    H164175   5.871   0.397   0.169  1.1047 -4.0713 -0.3824
14228TIP3    H264176   5.960   0.454   0.277 -2.2392  1.8037 -0.3132
14229TIP3   OH264177   4.907   6.214  11.393  0.0619  0.5712  0.2452
14229TIP3    H164178   4.926   6.160  11.470  0.0556  0.0948 -0.0841
14229TIP3    H264179   4.993   6.246  11.366  0.0752  0.6652  0.3946
14230TIP3   OH264180   0.930   1.541  13.334  0.3659  0.4573  0.4077
14230TIP3    H164181   1.020   1.572  13.322 -0.5141  3.0577 -0.0273
14230TIP3    H264182   0.900   1.584  13.414 -0.5981 -0.1394  0.3738
14231TIP3   OH264183   0.237   6.024  13.057 -0.3859 -0.4110  0.2016
14231TIP3    H164184   0.161   6.039  13.114  0.0412 -0.1319  0.7122
14231TIP3    H264185   0.289   5.958  13.104  1.5266  2.0104  1.7137
14232TIP3   OH264186   6.780   4.511  13.661 -0.2746 -0.0233  0.0346
14232TIP3    H164187   6.733   4.459  13.596 -0.2839  0.5561 -0.4293
14232TIP3    H264188   6.762   4.602  13.637  0.5099  0.2031  0.2720
14233TIP3   OH264189   1.553   5.842  15.957 -0.2810  0.3406 -0.3138
14233TIP3    H164190   1.591   5.762  15.991  2.1288  1.3994 -0.3282
14233TIP3    H264191   1.547   5.828  15.863  0.3683  0.2634 -0.3449
14234TIP3   OH264192   6.054   1.050   4.448  0.2881 -0.0872 -0.2152
14234TIP3    H164193   5.969   1.007   4.432  0.0009 -0.3291  1.7110
14234TIP3    H264194   6.067   1.043   4.543  1.9424  0.9557 -0.3232
14235TIP3   OH264195   2.735   3.750  14.995 -0.3637  0.2844  0.3013
14235TIP3    H164196   2.787   3.732  14.917 -0.2978 -0.1210  0.4324
14235TIP3    H264197   2.773   3.829  15.033 -0.8396  0.8954 -0.4551
14236TIP3   OH264198   3.808   4.961  14.124  0.0410 -0.2690 -0.1506
14236TIP3    H164199   3.820   4.866  14.128 -0.7534 -0.3337  1.2399
14236TIP3    H264200   3.895   4.997  14.144 -0.2517 -0.7361  2.3220
14237TIP3   OH264201   6.501   5.098   0.257 -0.5496 -0.0224  0.7390
14237TIP3    H164202   6.409   5.094   0.232 -0.3008  2.6287 -1.0279
14237TIP3    H264203   6.543   5.029   0.207 -1.5053 -1.0712  1.3484
14238TIP3   OH264204   4.865   2.535  16.448  0.5253  0.4031 -0.2578
14238TIP3    H164205   4.879   2.440  16.448  0.2322  0.3549  0.4015
14238TIP3    H264206   4.822   2.553  16.364  0.2719 -0.0967 -0.2384
14239TIP3   OH264207   1.475   1.743  12.832  0.2956  0.0329  0.2939
14239TIP3    H164208   1.443   1.748  12.742  0.3524  0.7345  0.3105
14239TIP3    H264209   1.566   1.713  12.823  0.9463  1.9735 -0.0316
14240TIP3   OH264210   2.033   2.473   2.876  0.2726  0.0122 -0.0761
14240TIP3    H164211   1.965   2.440   2.817  0.7832 -0.5633 -0.3548
14240TIP3    H264212   2.104   2.409   2.869  0.7862  0.5270  0.3219
14241TIP3   OH264213   1.512   1.748   1.082  0.2169 -0.3034  0.4965
14241TIP3    H164214   1.430   1.725   1.125 -0.3756 -2.0727 -1.4387
14241TIP3    H264215   1.486   1.783   0.997  1.4373 -0.8315 -0.1203
14242TIP3   OH264216   2.550   0.741   0.485 -0.4176  0.2265 -0.4160
14242TIP3    H164217   2.576   0.788   0.564 -0.9360 -0.0531 -0.0747
14242TIP3    H264218   2.469   0.784   0.456  1.5138  2.6336 -2.7930
14243TIP3   OH264219   0.921   6.744   2.410 -0.4172  0.1889  0.6264
14243TIP3    H164220   0.847   6.707   2.459  0.2384 -1.8214  0.1954
14243TIP3    H264221   0.969   6.668   2.379  0.3779  1.4229 -1.3601
14244TIP3   OH264222   5.545   4.950  15.184  0.0248 -0.3042 -0.3018
14244TIP3    H164223   5.632   4.988  15.171 -0.4659  1.8348  1.9812
14244TIP3    H264224   5.562   4.871  15.235  0.6497 -0.1562 -0.2654
14245TIP3   OH264225   6.624   3.854   2.742  0.4063 -0.2185  0.5175
14245TIP3    H164226   6.584   3.940   2.727  0.4212 -0.4123 -0.7370
14245TIP3    H264227   6.559   3.791   2.712  1.3535 -0.5535 -0.9693
14246TIP3   OH264228   3.023   1.614   4.074 -0.5804 -0.1035  0.1659
14246TIP3    H164229   3.106   1.601   4.028  0.1803 -0.3250  1.5504
14246TIP3    H264230   3.002   1.529   4.111  0.5006  0.7309  2.8935
14247TIP3   OH264231   5.588   5.951  11.995  0.2024  0.1658  0.1350
14247TIP3    H164232   5.637   5.981  11.918  2.7397 -1.4978  0.9845
14247TIP3    H264233   5.568   6.032  12.043  1.8820  0.9555 -0.4158
14248TIP3   OH264234   5.074   1.810  16.866  0.6570 -0.1024 -0.8949
14248TIP3    H164235   5.169   1.810  16.881  0.5611  1.3795 -0.0570
14248TIP3    H264236   5.036   1.804  16.953 -0.0296 -0.6354 -1.2221
14249TIP3   OH264237   5.282   2.868   2.772 -0.0063 -0.2449 -0.5578
14249TIP3    H164238   5.252   2.812   2.844  0.2351  1.2859  0.7854
14249TIP3    H264239   5.376   2.877   2.786  0.1246 -0.3105 -1.3612
14250TIP3   OH264240   6.596   3.554  13.166 -0.2069  0.1719  0.3276
14250TIP3    H164241   6.642   3.638  13.159 -1.4403  1.0780  1.9867
14250TIP3    H264242   6.530   3.557  13.096  0.5793  0.0078 -0.4291
14251TIP3   OH264243   3.066   6.083  15.183 -0.1408 -0.0801  0.3525
14251TIP3    H164244   3.056   6.052  15.093 -0.4246  0.8224  0.0582
14251TIP3    H264245   3.157   6.112  15.189  0.0446 -0.6818  0.5429
14252TIP3   OH264246   0.236   4.143  14.976 -0.3836  0.2955 -0.2160
14252TIP3    H164247   0.295   4.091  14.922  0.1602  2.2594 -1.6054
14252TIP3    H264248   0.154   4.093  14.977  0.3503 -0.9727 -0.7890
14253TIP3   OH264249   5.671   0.273  17.102 -0.2594  0.3629  0.0970
14253TIP3    H164250   5.728   0.203  17.135 -0.7350 -0.1807 -0.2135
14253TIP3    H264251   5.608   0.228  17.046  0.6252  1.2632 -1.7328
14254TIP3   OH264252   5.952   4.837  13.169 -0.0598  0.2310  0.2504
14254TIP3    H164253   5.913   4.827  13.082  0.5347 -5.9381  0.2182
14254TIP3    H264254   6.045   4.849  13.152 -0.1513  0.7455  0.0977
14255TIP3   OH264255   1.663   2.885   1.565  0.3460  0.7295 -0.0302
14255TIP3    H164256   1.594   2.949   1.580  1.1225  1.7042 -0.4854
14255TIP3    H264257   1.640   2.811   1.621 -0.0685  1.7834  1.2541
14256TIP3   OH264258   0.833   4.174  16.748  0.1336  0.3873 -0.0886
14256TIP3    H164259   0.862   4.095  16.704  1.3163 -0.1117  1.4909
14256TIP3    H264260   0.746   4.191  16.712  0.9767 -0.0004 -2.5034
14257TIP3   OH264261   1.505   4.386  12.559 -0.7908 -0.6094 -0.5572
14257TIP3    H164262   1.438   4.452  12.574 -0.1956  0.5580 -2.6000
14257TIP3    H264263   1.578   4.412  12.615 -0.5797  0.4950 -1.3078
14258TIP3   OH264264   2.154   0.906   6.276  0.2170  0.8716 -0.7610
14258TIP3    H164265   2.146   0.992   6.318  0.5099  0.3533  0.3968
14258TIP3    H264266   2.066   0.887   6.244 -0.3924  0.6227  0.9785
14259TIP3   OH264267   5.956   4.694  13.419 -0.0072 -0.3351 -0.0683
14259TIP3    H164268   6.022   4.762  13.430  0.2146 -0.4352 -0.7560
14259TIP3    H264269   5.921   4.707  13.332 -0.0628 -1.0107 -0.1571
14260TIP3   OH264270   5.337   2.043  16.648  0.5254  0.1675 -0.4614
14260TIP3    H164271   5.384   1.974  16.695 -0.3695  0.1493  0.4222
14260TIP3    H264272   5.380   2.124  16.675 -1.1539  0.3571  1.9499
14261TIP3   OH264273   3.964   3.202   4.714 -0.2325  0.7127  0.2179
14261TIP3    H164274   4.043   3.159   4.748  0.9901  0.1641 -2.9509
14261TIP3    H264275   3.899   3.133   4.710  0.9459 -0.3799 -2.4362
14262TIP3   OH264276   4.344   2.124  13.342 -0.8685 -0.1679  0.7909
14262TIP3    H164277   4.430   2.160  13.367 -0.9321  0.9223 -0.4303
14262TIP3    H264278   4.357   2.091  13.253 -0.7977 -3.4245  1.8922
14263TIP3   OH264279   2.183   1.433   2.939 -0.5780  0.2605 -0.3953
14263TIP3    H164280   2.239   1.361   2.910  0.8337  1.1060  0.1355
14263TIP3    H264281   2.095   1.407   2.911 -0.0168 -1.3374 -0.8233
14264TIP3   OH264282   2.246   4.016   4.177 -0.4761  0.0091  0.0100
14264TIP3    H164283   2.188   4.089   4.202  0.5338  1.0467 -0.5810
14264TIP3    H264284   2.190   3.938   4.183 -1.5505  0.8030  0.7973
14265TIP3   OH264285   3.704   2.148  15.976  0.0039 -0.4418 -0.2214
14265TIP3    H164286   3.657   2.231  15.968  0.1809 -0.3543 -0.3410
14265TIP3    H264287   3.728   2.142  16.068  1.2369  0.3127 -0.4720
14266TIP3   OH264288   2.958   2.372   6.025  0.8737  0.5025 -0.0817
14266TIP3    H164289   2.936   2.341   5.937  0.3100  0.1346  0.1825
14266TIP3    H264290   2.890   2.438   6.044 -0.1826 -0.7955  0.8288
14267TIP3   OH264291   3.974   4.418   1.198  0.2798 -0.1693  0.1816
14267TIP3    H164292   4.032   4.456   1.132 -0.7566 -0.4852 -0.9552
14267TIP3    H264293   4.030   4.359   1.249  1.4235  1.2105  0.5724
14268TIP3   OH264294   4.492   1.046  17.096 -0.3200  0.0707 -0.1975
14268TIP3    H164295   4.518   1.023  17.186 -0.0005 -0.9803 -0.5426
14268TIP3    H264296   4.408   1.003  17.084  0.5868 -1.5747 -1.0753
14269TIP3   OH264297   6.588   0.217   5.327  0.2979 -0.1321 -0.1550
14269TIP3    H164298   6.609   0.225   5.420  0.6834  1.8724 -0.3723
14269TIP3    H264299   6.542   0.133   5.320 -1.8083  0.6916  2.2236
14270TIP3   OH264300   0.152   5.427  13.396 -0.4165 -0.0712 -0.3660
14270TIP3    H164301   0.165   5.377  13.476  0.4803  0.7294  0.0113
14270TIP3    H264302   0.140   5.517  13.426 -0.1969  0.2180 -1.1186
14271TIP3   OH264303   3.491   2.939  11.791 -0.1294  0.4772  0.1062
14271TIP3    H164304   3.582   2.918  11.770 -0.8527 -2.1117 -0.9193
14271TIP3    H264305   3.462   2.996  11.720  0.4524  0.6277 -0.0167
14272TIP3   OH264306   6.281   3.677   5.060 -0.4037  0.3021  0.3041
14272TIP3    H164307   6.334   3.689   4.982 -0.6677 -0.0242  0.0728
14272TIP3    H264308   6.194   3.708   5.036 -0.6063 -0.2449  0.3141
14273TIP3   OH264309   6.292   3.300   5.344 -0.3891  0.0813  0.3367
14273TIP3    H164310   6.352   3.364   5.382  0.0188  0.2999 -0.6458
14273TIP3    H264311   6.325   3.215   5.372  1.7075  0.0479 -1.9117
14274TIP3   OH264312   3.131   3.673  13.503 -0.4248 -0.2695 -0.5753
14274TIP3    H164313   3.149   3.695  13.412  0.0255 -1.5592 -0.8257
14274TIP3    H264314   3.196   3.606  13.524 -1.8603 -1.5380  0.0177
14275TIP3   OH264315   4.726   1.700   4.471 -0.8025 -0.6041 -0.5216
14275TIP3    H164316   4.720   1.755   4.393  0.3560  2.1315  1.1892
14275TIP3    H264317   4.649   1.722   4.522 -0.6629 -1.0724 -0.0988
14276TIP3   OH264318   3.707   3.979   1.823 -0.6228 -0.0393  0.2630
14276TIP3    H164319   3.787   3.926   1.812  0.3467  1.4792 -0.3642
14276TIP3    H264320   3.646   3.944   1.758 -0.4294 -1.0972  0.6199
14277TIP3   OH264321   0.675   5.967   0.062  0.0351 -0.2446  0.2553
14277TIP3    H164322   0.715   6.054   0.053  1.2953 -0.9604 -1.7828
14277TIP3    H264323   0.684   5.945   0.154  0.7464  1.2895  0.5817
14278TIP3   OH264324   5.444   0.492   3.951  0.2217 -0.1966  0.2120
14278TIP3    H164325   5.533   0.525   3.955  0.4353 -0.8963  1.7478
14278TIP3    H264326   5.398   0.554   3.894  1.4674  0.6662  0.1182
14279TIP3   OH264327   1.513   5.364   3.618  0.4905 -0.0091 -0.4922
14279TIP3    H164328   1.478   5.435   3.564 -1.1373  0.1128  0.6418
14279TIP3    H264329   1.438   5.305   3.630  1.3677 -1.0469 -0.0284
14280TIP3   OH264330   6.450   0.393  13.637 -0.6578 -0.0755  0.2093
14280TIP3    H164331   6.366   0.355  13.663 -2.1533  2.8267  0.0736
14280TIP3    H264332   6.512   0.362  13.703 -1.5136 -3.1287 -0.2572
14281TIP3   OH264333   0.155   6.793  15.727  0.6362 -0.3039 -0.1626
14281TIP3    H164334   0.158   6.739  15.806  0.4372  2.0459  1.5650
14281TIP3    H264335   0.084   6.855  15.744  0.9300  0.5838 -1.9841
14282TIP3   OH264336   3.898   3.520  15.047  0.0215 -0.0988  0.2929
14282TIP3    H164337   3.846   3.468  15.109 -0.6514 -0.5488 -0.6202
14282TIP3    H264338   3.862   3.498  14.962  1.6210 -0.2756 -0.3635
14283TIP3   OH264339   2.072   5.338  16.181  0.0679  0.1197  0.5026
14283TIP3    H164340   2.035   5.396  16.247  0.0754  0.4897  0.1867
14283TIP3    H264341   2.130   5.394  16.129 -1.1833  0.2150 -0.8369
14284TIP3   OH264342   2.924   4.701  15.489  0.2467  0.1787 -0.1057
14284TIP3    H164343   2.953   4.744  15.408 -2.0575  1.7230 -0.1981
14284TIP3    H264344   2.841   4.659  15.465  0.0944 -0.2941  1.1959
14285TIP3   OH264345   0.083   4.848  10.918 -0.4398 -0.8132  0.6224
14285TIP3    H164346   0.109   4.759  10.944 -2.1390 -1.2400  0.9626
14285TIP3    H264347  -0.012   4.849  10.927 -0.4480  1.0835  0.7057
14286TIP3   OH264348   2.041   5.752   6.001  0.7779  0.2485 -0.4442
14286TIP3    H164349   2.084   5.708   5.927  2.8815  1.6262 -0.1082
14286TIP3    H264350   2.029   5.842   5.971 -1.9050 -0.0538 -0.4890
14287TIP3   OH264351   4.899   0.958  15.707  0.0782 -0.0230  0.6382
14287TIP3    H164352   4.876   1.051  15.714  0.4240  0.1552 -0.3627
14287TIP3    H264353   4.862   0.918  15.785  0.5763  1.0864  1.4598
14288TIP3   OH264354   6.604   6.054   0.506  0.3259 -0.0312 -0.9800
14288TIP3    H164355   6.559   6.031   0.425  0.9482 -1.9873 -0.8382
14288TIP3    H264356   6.694   6.070   0.480  0.2030  0.8743 -0.8658
14289TIP3   OH264357   6.669   6.130  10.404 -0.3700  0.0669  0.0166
14289TIP3    H164358   6.612   6.116  10.329  1.0485 -0.4405 -1.0045
14289TIP3    H264359   6.695   6.042  10.431  0.1775  0.3067  0.2755
14290TIP3   OH264360   5.148   2.849  12.412 -0.3456  0.7060 -0.4520
14290TIP3    H164361   5.101   2.880  12.489  0.1774  1.2696 -0.3500
14290TIP3    H264362   5.234   2.824  12.445  0.0064  1.2886 -0.9027
14291TIP3   OH264363   2.956   2.848   3.067  0.2280 -0.3998 -0.3866
14291TIP3    H164364   2.861   2.858   3.079 -0.0795  0.4265 -2.9227
14291TIP3    H264365   2.992   2.933   3.090  0.4646 -0.8806  1.1237
14292TIP3   OH264366   4.188   6.317  14.431  0.2378  0.4861 -0.2165
14292TIP3    H164367   4.255   6.383  14.452 -1.2133  1.7991  0.4937
14292TIP3    H264368   4.162   6.280  14.515 -1.3502  1.4760 -0.2241
14293TIP3   OH264369   0.189   0.582  13.760 -0.2916 -0.1895 -0.0200
14293TIP3    H164370   0.267   0.577  13.705 -0.4788 -1.4778 -0.1865
14293TIP3    H264371   0.217   0.631  13.837  0.6913 -0.6935 -0.0528
14294TIP3   OH264372   3.001   5.145  12.158  0.6476  0.6445  0.1906
14294TIP3    H164373   2.941   5.180  12.092 -0.4374 -0.9650  0.2862
14294TIP3    H264374   3.007   5.052  12.138  1.3844  0.3831  1.5436
14295TIP3   OH264375   4.834   0.470   5.287 -0.3119  0.0065  0.4475
14295TIP3    H164376   4.782   0.403   5.329 -2.4239  0.6883 -0.9060
14295TIP3    H264377   4.906   0.488   5.348 -0.3502 -2.5773  1.3507
14296TIP3   OH264378   3.177   3.774  11.836  0.0885 -0.8530  0.5723
14296TIP3    H164379   3.193   3.735  11.922  1.7524  1.5654  1.4853
14296TIP3    H264380   3.260   3.814  11.812 -0.7587 -0.1947 -1.5165
14297TIP3   OH264381   1.964   3.403  12.101 -0.1909 -0.3156 -0.3785
14297TIP3    H164382   2.026   3.424  12.171 -0.5830 -0.8270  0.1378
14297TIP3    H264383   1.882   3.384  12.147 -0.3820 -0.9400 -0.9565
14298TIP3   OH264384   1.175   4.879   1.903 -0.7542 -0.6199 -0.4754
14298TIP3    H164385   1.173   4.974   1.920  0.2165 -0.8530  1.2221
14298TIP3    H264386   1.120   4.867   1.826 -0.4665  1.3900 -1.0508
14299TIP3   OH264387   0.555   2.299  12.014 -0.5025  0.3097 -0.0415
14299TIP3    H164388   0.634   2.353  12.015 -0.8592  0.8539  1.3171
14299TIP3    H264389   0.493   2.347  12.069 -1.9644  0.1409 -1.4619
14300TIP3   OH264390   2.507   5.905  13.425  0.4374 -0.1417 -0.3853
14300TIP3    H164391   2.533   5.937  13.511 -2.0113 -2.0793  1.2025
14300TIP3    H264392   2.583   5.857  13.392  0.8746 -0.7765  1.4585
14301TIP3   OH264393   3.962   6.015  15.609  0.7293  0.4223  0.1027
14301TIP3    H164394   4.032   6.070  15.573  0.2685 -0.2505 -1.9620
14301TIP3    H264395   3.979   5.928  15.572 -0.7310  0.0542  0.2330
14302TIP3   OH264396   6.663   4.009  12.691  0.0892 -0.0227  0.0227
14302TIP3    H164397   6.652   3.930  12.744 -4.1543 -0.6359 -1.4127
14302TIP3    H264398   6.629   4.079  12.746 -0.7901 -0.0430 -0.4836
14303TIP3   OH264399   3.527   5.432  13.399  0.3796 -0.1939  0.1056
14303TIP3    H164400   3.433   5.417  13.404  0.4615 -0.9572 -0.4257
14303TIP3    H264401   3.565   5.345  13.386  1.1154  0.1546 -0.1656
14304TIP3   OH264402   3.659   6.359  14.197  0.0434  0.3514 -0.9533
14304TIP3    H164403   3.724   6.299  14.234  2.0605  2.0037 -1.6218
14304TIP3    H264404   3.593   6.368  14.267  1.2146 -0.3484  0.2990
14305TIP3   OH264405   6.449   3.793  15.767 -0.2250 -0.4722  0.3157
14305TIP3    H164406   6.443   3.857  15.839 -0.1400 -2.0159  1.7583
14305TIP3    H264407   6.537   3.807  15.730  0.7136 -1.2504  2.1268
14306TIP3   OH264408   4.659   1.540  16.368  0.0796  0.5472  0.2259
14306TIP3    H164409   4.659   1.545  16.272  0.8867 -0.2477  0.1752
14306TIP3    H264410   4.610   1.617  16.396  0.9896  1.5230 -0.7960
14307TIP3   OH264411   4.666   4.196   1.939 -0.8013  0.3391  0.0219
14307TIP3    H164412   4.727   4.249   1.887 -0.6970 -0.8194 -1.1024
14307TIP3    H264413   4.693   4.210   2.029 -0.6484  2.0188 -0.2565
14308TIP3   OH264414   0.673   1.313  16.682  0.3028  0.1228 -0.8483
14308TIP3    H164415   0.619   1.361  16.619  0.0280  0.7294 -0.1668
14308TIP3    H264416   0.760   1.350  16.673 -0.0837  1.4002  0.2776
14309TIP3   OH264417   3.186   6.694  11.995 -0.1262 -0.5562 -0.2480
14309TIP3    H164418   3.265   6.680  12.047 -2.2718 -1.0123  3.2314
14309TIP3    H264419   3.207   6.770  11.940  2.3316  0.0358  1.3299
14310TIP3   OH264420   1.428   1.266   3.613 -0.0475 -0.0201  0.9092
14310TIP3    H164421   1.337   1.291   3.596 -0.0123 -0.9576 -0.9115
14310TIP3    H264422   1.471   1.348   3.637 -0.8187  0.9505 -0.8349
14311TIP3   OH264423   4.089   1.869  12.012  0.2007 -0.1573 -0.1831
14311TIP3    H164424   4.173   1.822  12.008  0.3821  0.0959  0.5704
14311TIP3    H264425   4.037   1.830  11.942  0.3862 -1.4238  0.3611
14312TIP3   OH264426   6.447   1.480   1.429 -0.3565 -0.2652  0.0642
14312TIP3    H164427   6.423   1.394   1.462  1.2430 -0.7289  0.1081
14312TIP3    H264428   6.415   1.482   1.339 -1.3793 -0.4550  0.4110
14313TIP3   OH264429   0.241   4.207   3.078 -0.0080 -0.7185 -0.5784
14313TIP3    H164430   0.334   4.190   3.095 -0.1127 -0.4645  0.2568
14313TIP3    H264431   0.240   4.245   2.990  0.7969  0.3528 -0.1444
14314TIP3   OH264432   5.993   3.214   4.038 -0.2157 -0.1116 -0.4531
14314TIP3    H164433   6.065   3.277   4.044 -1.0541  0.8969 -0.6573
14314TIP3    H264434   6.032   3.136   3.999  0.9224  0.1582  0.1139
14315TIP3   OH264435   1.933   4.463   5.359  0.0136 -0.5386 -0.4389
14315TIP3    H164436   1.870   4.458   5.431 -0.5134 -0.7006 -0.9008
14315TIP3    H264437   1.888   4.515   5.292  0.8956  0.4842 -0.2577
14316TIP3   OH264438   5.420   4.759  14.500  0.7925 -0.0663  0.1867
14316TIP3    H164439   5.376   4.820  14.560 -0.8588  0.0048 -1.0082
14316TIP3    H264440   5.392   4.673  14.530 -0.2981 -0.0179 -0.6209
14317TIP3   OH264441   2.738   5.731   2.733  0.0197  0.1504 -0.2542
14317TIP3    H164442   2.746   5.798   2.802  1.4404 -0.4865  0.2431
14317TIP3    H264443   2.826   5.695   2.725 -0.4714 -0.8623 -1.3471
14318TIP3   OH264444   5.042   2.639   3.021  0.2324  0.1335 -0.0760
14318TIP3    H164445   4.967   2.688   2.986  0.9956  0.9220 -0.6612
14318TIP3    H264446   5.046   2.560   2.967 -0.3783 -0.0783  0.1829
14319TIP3   OH264447   6.782   4.060   4.043 -0.2809  0.0945  0.4191
14319TIP3    H164448   6.719   4.021   3.983 -0.4116  3.5235 -1.9529
14319TIP3    H264449   6.785   4.153   4.018  2.1091  1.0756  3.6594
14320TIP3   OH264450   1.727   2.930   6.422  0.7532 -0.5282  0.2190
14320TIP3    H164451   1.690   3.018   6.430  2.9959  0.5494 -0.5660
14320TIP3    H264452   1.650   2.872   6.420 -0.8862  1.5515 -1.2268
14321TIP3   OH264453   1.050   0.536   2.165  0.4578  0.3147 -0.3784
14321TIP3    H164454   1.001   0.567   2.241 -1.2760 -1.0368 -0.8844
14321TIP3    H264455   1.142   0.550   2.188 -0.1150  2.6699  0.7228
14322TIP3   OH264456   2.205   3.930   0.872  0.3805  0.7554  0.1480
14322TIP3    H164457   2.196   3.992   0.799 -2.3301 -0.7990 -1.0333
14322TIP3    H264458   2.122   3.937   0.919  0.0843 -1.6982  0.1168
14323TIP3   OH264459   1.614   4.103  12.201 -0.1763  0.4796  0.4447
14323TIP3    H164460   1.629   4.104  12.295  0.4133 -0.4394  0.3765
14323TIP3    H264461   1.519   4.095  12.192 -0.2470  0.7311  0.9573
14324TIP3   OH264462   3.289   3.154   4.626 -0.2233 -0.4086  0.4391
14324TIP3    H164463   3.226   3.151   4.555 -1.1315  0.9972  1.1395
14324TIP3    H264464   3.374   3.153   4.583 -0.7525  0.9299 -0.7073
14325TIP3   OH264465   3.199   5.876  12.893  0.1572 -0.2060 -0.2829
14325TIP3    H164466   3.271   5.894  12.832  0.3286 -0.7134 -0.2376
14325TIP3    H264467   3.241   5.831  12.966  0.1949  1.6112  0.8773
14326TIP3   OH264468   0.037   2.837  11.414 -0.2940  0.4839 -0.5282
14326TIP3    H164469   0.004   2.826  11.503 -1.8673 -1.5865 -1.3046
14326TIP3    H264470   0.104   2.769  11.404  0.5612  1.3171 -0.6614
14327TIP3   OH264471   2.715   4.919   6.112  0.0851 -0.0583 -0.5298
14327TIP3    H164472   2.699   4.840   6.164  0.0639 -0.3522 -0.9786
14327TIP3    H264473   2.629   4.961   6.106  0.2236  0.3749  0.3005
14328TIP3   OH264474   2.162   2.928  11.967  0.7496  0.0746 -0.4797
14328TIP3    H164475   2.084   2.935  11.912  0.5404  1.0970 -0.0730
14328TIP3    H264476   2.146   2.989  12.039  1.7106 -0.0754 -0.1299
14329TIP3   OH264477   6.644   5.170  11.049  0.1823  0.2003  0.2854
14329TIP3    H164478   6.666   5.158  11.142  0.3580 -0.4658  0.1588
14329TIP3    H264479   6.572   5.109  11.033  0.4677 -0.0252 -0.1349
14330TIP3   OH264480   6.627   1.735   0.412  0.5460  0.0228  0.4029
14330TIP3    H164481   6.686   1.702   0.479  1.6595  0.6516 -0.2382
14330TIP3    H264482   6.600   1.657   0.363  0.1827 -0.3660  1.2029
14331TIP3   OH264483   5.233   1.096   5.942 -0.2383  0.2561 -0.7184
14331TIP3    H164484   5.190   1.017   5.976  1.8246 -1.3609 -1.6210
14331TIP3    H264485   5.183   1.117   5.863 -0.6924 -0.3001 -0.5894
14332TIP3   OH264486   4.478   3.611  12.873 -0.1925  0.0406  0.3607
14332TIP3    H164487   4.433   3.630  12.790 -0.2973  1.0819  0.6456
14332TIP3    H264488   4.408   3.606  12.937 -0.0381  0.0907  0.5330
14333TIP3   OH264489   3.677   3.238   3.378 -0.3350  0.4737  0.4269
14333TIP3    H164490   3.668   3.299   3.304 -0.1183 -0.0416 -0.0297
14333TIP3    H264491   3.771   3.219   3.382 -0.6201 -1.3873 -0.7254
14334TIP3   OH264492   4.712   2.903  16.996  0.2782  0.5594  0.1716
14334TIP3    H164493   4.790   2.919  16.943 -1.0169  2.5119 -1.2801
14334TIP3    H264494   4.709   2.808  17.007  2.2527  0.3604 -0.6392
14335TIP3   OH264495   0.596   0.838  13.355 -0.5353 -0.0954 -0.0262
14335TIP3    H164496   0.598   0.771  13.423 -2.7576  0.0173  0.2282
14335TIP3    H264497   0.639   0.797  13.280 -0.1599 -1.0935  0.7072
14336TIP3   OH264498   2.947   2.232   4.986  0.3173  0.7767  0.2372
14336TIP3    H164499   2.861   2.231   4.944  1.0560 -1.1694 -1.4016
14336TIP3    H264500   2.936   2.288   5.062 -2.0445  1.6382 -0.6533
14337TIP3   OH264501   6.437   2.124   3.903  0.2237 -0.2290  0.0963
14337TIP3    H164502   6.381   2.103   3.978  0.0750  0.5819  0.2234
14337TIP3    H264503   6.409   2.211   3.876  1.8721  0.4990  0.5862
14338TIP3   OH264504   0.748   4.452   3.741  0.0635 -0.2075  0.3897
14338TIP3    H164505   0.764   4.368   3.785 -1.1615  0.6543  2.6892
14338TIP3    H264506   0.737   4.429   3.649  1.0714 -2.3797  0.7295
14339TIP3   OH264507   3.267   0.286   0.647  0.6366  0.4602 -0.7100
14339TIP3    H164508   3.363   0.288   0.643  0.7694  3.2251  1.0261
14339TIP3    H264509   3.239   0.352   0.583 -0.0933  0.1773 -0.6930
14340TIP3   OH264510   5.433   4.877   0.853  0.5393 -0.5872 -0.1813
14340TIP3    H164511   5.414   4.931   0.930 -0.2493 -1.3961  0.2140
14340TIP3    H264512   5.521   4.902   0.828  0.2617  0.7569  0.0902
14341TIP3   OH264513   1.140   1.782  10.893  0.9039  0.1588  0.1539
14341TIP3    H164514   1.075   1.767  10.825  1.1807  0.4938 -0.1883
14341TIP3    H264515   1.139   1.702  10.946 -0.0885  0.3271  0.4146
14342TIP3   OH264516   6.507   6.614  17.280 -0.6805  0.1418 -0.3980
14342TIP3    H164517   6.504   6.630  17.185 -0.2428  1.3395 -0.2355
14342TIP3    H264518   6.485   6.699  17.318 -2.4094 -0.7057  0.5940
14343TIP3   OH264519   5.139   1.224   5.387 -0.3578 -0.3737 -0.5015
14343TIP3    H164520   5.094   1.304   5.412 -0.4434  0.2788 -2.5269
14343TIP3    H264521   5.174   1.189   5.469  1.3171  2.7274  0.2582
14344TIP3   OH264522   2.945   0.500  13.125 -1.0345  0.3395 -0.2555
14344TIP3    H164523   3.005   0.452  13.068 -1.4077 -0.4705  0.0043
14344TIP3    H264524   2.956   0.459  13.211 -0.6739  1.3690  0.1937
14345TIP3   OH264525   0.616   2.837  13.605  0.8334  0.5469  0.1774
14345TIP3    H164526   0.579   2.919  13.639 -2.8440 -0.4806 -0.8379
14345TIP3    H264527   0.592   2.838  13.512  0.3061 -1.8111  0.2332
14346TIP3   OH264528   5.938   5.670   0.127  0.2045 -0.6290  0.3145
14346TIP3    H164529   5.855   5.636   0.093  0.1215 -0.4969  0.3838
14346TIP3    H264530   5.916   5.703   0.214 -0.1891  1.4923 -0.5362
14347TIP3   OH264531   0.590   2.706  14.651  0.8863 -0.0472 -0.2928
14347TIP3    H164532   0.637   2.658  14.719 -0.0429 -1.7647 -0.7778
14347TIP3    H264533   0.507   2.659  14.642  0.3502  1.0568 -1.5534
14348TIP3   OH264534   0.861   5.699  17.252 -0.0642 -0.2989 -0.0612
14348TIP3    H164535   0.910   5.669  17.175 -0.3481  1.9681 -1.2119
14348TIP3    H264536   0.907   5.778  17.280 -0.5339 -0.5621  1.5343
14349TIP3   OH264537   2.638   1.370   1.999 -0.4617 -0.3992 -0.1063
14349TIP3    H164538   2.664   1.301   1.938 -2.1340 -1.2594  0.1073
14349TIP3    H264539   2.721   1.408   2.028  0.5124 -2.1797 -0.3779
14350TIP3   OH264540   0.516   4.132   0.499  0.1327 -0.1500  0.0279
14350TIP3    H164541   0.470   4.051   0.518 -1.2380  0.3862 -0.8636
14350TIP3    H264542   0.608   4.112   0.518 -0.4586 -1.1519  2.1499
14351TIP3   OH264543   2.502   5.337   5.838 -0.0305  0.5028  0.2088
14351TIP3    H164544   2.453   5.255   5.827 -1.5188  1.3305  0.3588
14351TIP3    H264545   2.562   5.339   5.763 -1.0329 -0.0117 -0.6373
14352TIP3   OH264546   0.608   3.815  16.377 -0.4053 -0.2164 -0.2660
14352TIP3    H164547   0.562   3.888  16.419  0.5412  1.0177 -1.2755
14352TIP3    H264548   0.606   3.745  16.441  0.5959  1.4436  1.7145
14353TIP3   OH264549   4.138   0.335  16.851 -0.4561  0.2264 -0.4802
14353TIP3    H164550   4.123   0.297  16.937  1.1350 -1.6298 -0.9341
14353TIP3    H264551   4.209   0.398  16.864  0.1494 -0.4386 -0.4904
14354TIP3   OH264552   6.809   5.410   4.003 -0.1937 -0.5746 -0.3307
14354TIP3    H164553   6.840   5.328   4.042 -1.3693 -0.4416  0.9353
14354TIP3    H264554   6.883   5.441   3.951  0.3228 -2.3631 -0.7282
14355TIP3   OH264555   5.276   5.945  14.547 -0.3868  0.1084  0.6064
14355TIP3    H164556   5.192   5.955  14.501 -0.1759 -1.3334 -0.1679
14355TIP3    H264557   5.253   5.900  14.628 -0.2725 -1.3780 -0.1411
14356TIP3   OH264558   3.349   4.144  16.816  0.2292  0.7568 -0.2552
14356TIP3    H164559   3.395   4.228  16.820  0.4786  0.5786  1.1428
14356TIP3    H264560   3.403   4.085  16.869  1.5786 -1.0877 -3.4099
14357TIP3   OH264561   6.618   6.263  11.442 -0.1756 -0.2477  0.3910
14357TIP3    H164562   6.549   6.203  11.473 -1.4902  1.4259  0.8433
14357TIP3    H264563   6.592   6.284  11.353 -0.2450  0.3806  0.5570
14358TIP3   OH264564   1.418   2.900   4.118  0.2095 -0.5430  0.3171
14358TIP3    H164565   1.384   2.825   4.068  0.3071 -0.7071  0.4957
14358TIP3    H264566   1.500   2.922   4.074 -0.6592  0.5660 -0.8058
14359TIP3   OH264567   1.535   3.030   5.294 -0.5049  0.4358 -0.1749
14359TIP3    H164568   1.532   3.062   5.204  2.1459 -1.3425 -1.0100
14359TIP3    H264569   1.597   3.088   5.338  1.5436 -1.2085 -0.7400
14360TIP3   OH264570   1.014   5.353   5.260  0.2503  0.2877 -0.0644
14360TIP3    H164571   1.094   5.308   5.235  1.2386  0.6912  2.1692
14360TIP3    H264572   0.971   5.373   5.177  2.0790 -0.5830 -1.2847
14361TIP3   OH264573   4.690   2.385   1.913  0.2013 -0.4033 -0.4373
14361TIP3    H164574   4.618   2.448   1.910  0.3480 -0.1885  0.1987
14361TIP3    H264575   4.679   2.342   1.998  1.1918  0.0963 -0.0399
14362TIP3   OH264576   4.290   5.650  15.350  0.5682  0.0903  0.8477
14362TIP3    H164577   4.234   5.631  15.425 -0.0345 -1.1760  0.1192
14362TIP3    H264578   4.376   5.616  15.375 -0.1863 -2.7128  0.0892
14363TIP3   OH264579   4.481   2.682   2.767  0.4599 -0.0934 -0.2803
14363TIP3    H164580   4.538   2.660   2.841  0.3853 -0.3942 -0.3109
14363TIP3    H264581   4.480   2.778   2.765  1.4658 -0.0791 -0.6594
14364TIP3   OH264582   5.141   0.258   1.031  0.2925 -0.5011  0.3109
14364TIP3    H164583   5.210   0.200   0.999  0.6088  0.3268 -0.5708
14364TIP3    H264584   5.082   0.202   1.081  1.9869 -1.1022  1.7097
14365TIP3   OH264585   3.393   2.737   3.562 -0.1508 -0.5402 -0.3364
14365TIP3    H164586   3.425   2.660   3.515 -3.6723 -1.3417 -1.7370
14365TIP3    H264587   3.303   2.748   3.532 -0.7133  2.4947  1.9412
14366TIP3   OH264588   2.772   1.257   2.308  0.3941 -0.5464 -0.2040
14366TIP3    H164589   2.719   1.178   2.314  0.1847 -0.3691  0.3638
14366TIP3    H264590   2.806   1.269   2.397  2.9555 -1.7330 -0.9308
14367TIP3   OH264591   4.836   1.232  14.809  0.3519  0.1592 -0.2971
14367TIP3    H164592   4.750   1.189  14.814 -0.4387  1.7587  0.9624
14367TIP3    H264593   4.856   1.236  14.716 -1.4716  0.6849 -0.7094
14368TIP3   OH264594   6.054   3.538   1.403 -0.2493  0.4582 -0.4029
14368TIP3    H164595   5.974   3.498   1.368  0.5806 -0.8090 -0.9160
14368TIP3    H264596   6.115   3.537   1.329  1.1981 -1.2724  0.7231
14369TIP3   OH264597   1.193   2.258   2.342  0.0723  0.1595 -0.1926
14369TIP3    H164598   1.257   2.187   2.334 -2.3800 -2.0189 -1.8176
14369TIP3    H264599   1.220   2.321   2.274  1.7272  0.3958  0.6332
14370TIP3   OH264600   4.745   1.276  17.130 -0.2675 -0.1081  0.0587
14370TIP3    H164601   4.788   1.361  17.129  0.3750 -0.4126 -1.7171
14370TIP3    H264602   4.742   1.252  17.223  2.6422  0.3244  0.3584
14371TIP3   OH264603   4.499   2.437  15.028 -0.0501  0.4706 -0.1194
14371TIP3    H164604   4.450   2.465  14.951  0.7484  0.8575 -0.4982
14371TIP3    H264605   4.586   2.413  14.995  0.6355  1.5894  0.7616
14372TIP3   OH264606   2.566   1.793   1.328  0.6166 -0.2284  0.6365
14372TIP3    H164607   2.538   1.884   1.333 -2.1123 -0.9044 -0.5821
14372TIP3    H264608   2.535   1.763   1.243 -1.3088 -3.0941  2.2042
14373TIP3   OH264609   1.464   0.139   5.401 -0.0997  0.2302 -0.2128
14373TIP3    H164610   1.553   0.115   5.375 -0.3332 -0.0852 -0.7387
14373TIP3    H264611   1.458   0.113   5.493 -0.2791 -1.6297 -0.7007
14374TIP3   OH264612   4.443   5.186   4.185 -0.3551  0.1723 -0.0404
14374TIP3    H164613   4.356   5.218   4.161  0.7387  1.3148 -2.9514
14374TIP3    H264614   4.481   5.257   4.237 -0.9737 -0.1288  0.8368
14375TIP3   OH264615   2.306   1.643  14.311 -0.3502  0.0192 -0.3353
14375TIP3    H164616   2.276   1.553  14.294 -0.7350  0.6013 -3.2449
14375TIP3    H264617   2.226   1.693  14.325 -0.3646  0.3890 -1.6041
14376TIP3   OH264618   4.887   1.046   2.414  0.1267 -0.0117  0.1277
14376TIP3    H164619   4.838   1.121   2.379 -0.6887 -0.6256 -0.0807
14376TIP3    H264620   4.823   0.996   2.464  0.2911 -1.3097 -0.8845
14377TIP3   OH264621   4.412   4.680  16.783 -0.5448 -0.2876 -0.7479
14377TIP3    H164622   4.321   4.678  16.812 -0.6513  1.5062 -0.8764
14377TIP3    H264623   4.427   4.770  16.756  1.4047 -0.4312 -0.3034
14378TIP3   OH264624   2.783   5.835  13.431 -0.3498 -0.1023 -0.1682
14378TIP3    H164625   2.854   5.865  13.488 -1.6059  0.3352  1.2151
14378TIP3    H264626   2.819   5.845  13.342  1.0469  0.8074  0.4576
14379TIP3   OH264627   6.020   3.638  13.015 -0.0198 -0.0208  0.2646
14379TIP3    H164628   5.977   3.560  13.050 -2.3120  1.1051  0.1218
14379TIP3    H264629   6.097   3.650  13.071 -1.2719 -0.6807  2.2340
14380TIP3   OH264630   1.677   0.107  12.820  0.2341 -0.3284 -0.3130
14380TIP3    H164631   1.665   0.102  12.915 -1.3845 -1.4706 -0.5361
14380TIP3    H264632   1.768   0.133  12.809  0.2294  0.7136  1.5586
14381TIP3   OH264633   5.198   4.278  10.409  0.1083  0.0403  0.1752
14381TIP3    H164634   5.245   4.198  10.384 -1.6184 -0.1070 -3.0567
14381TIP3    H264635   5.116   4.246  10.449  0.5691  0.2738  1.3595
14382TIP3   OH264636   2.185   3.867   0.480  0.1880  0.2189 -0.1167
14382TIP3    H164637   2.177   3.790   0.537 -1.0803  0.0132 -0.5199
14382TIP3    H264638   2.165   3.941   0.537  0.0617  0.1197 -0.0311
14383TIP3   OH264639   4.861   4.612  15.278 -0.3526 -0.1985 -0.2546
14383TIP3    H164640   4.911   4.693  15.265  1.1076 -0.7617  1.4671
14383TIP3    H264641   4.790   4.617  15.213  0.2910  1.9597 -0.8768
14384TIP3   OH264642   3.760   4.170  14.168  0.2722 -0.1403 -0.0775
14384TIP3    H164643   3.797   4.187  14.254 -0.2292 -0.8686  0.2936
14384TIP3    H264644   3.798   4.237  14.112  0.0389  0.8103  0.8644
14385TIP3   OH264645   3.901   2.535  15.141 -0.4637 -0.3495  0.1719
14385TIP3    H164646   3.885   2.529  15.235  1.1167 -1.2176  0.4313
14385TIP3    H264647   3.861   2.617  15.114  0.7889  0.9252  2.0054
14386TIP3   OH264648   0.299   1.315  13.873 -0.2824  0.3310  0.9674
14386TIP3    H164649   0.219   1.339  13.920  0.3338  3.9726  0.4698
14386TIP3    H264650   0.370   1.336  13.935  0.3867 -0.0203  0.3364
14387TIP3   OH264651   1.117   2.266  13.902 -0.0101  0.0611  0.2806
14387TIP3    H164652   1.186   2.321  13.939 -0.1174 -0.1418  0.7943
14387TIP3    H264653   1.155   2.178  13.900 -0.1675 -0.0083  0.3358
14388TIP3   OH264654   1.847   0.114   0.896 -0.2241 -0.3073 -0.0390
14388TIP3    H164655   1.892   0.144   0.975 -3.5500 -0.2945  2.0318
14388TIP3    H264656   1.785   0.184   0.876  0.2381 -0.5015 -2.5143
14389TIP3   OH264657   2.456   0.435  16.282 -0.1804  0.2654  0.1798
14389TIP3    H164658   2.512   0.376  16.332  2.0521  1.3954 -0.8884
14389TIP3    H264659   2.508   0.461  16.207 -2.6789  0.2694 -1.6940
14390TIP3   OH264660   5.570   1.681   4.151 -0.1302 -0.0570 -0.3780
14390TIP3    H164661   5.574   1.616   4.081  0.2039  0.5792 -0.9614
14390TIP3    H264662   5.595   1.763   4.108  0.2609  0.3032  0.5352
14391TIP3   OH264663   2.618   3.911   6.004  0.2043 -0.0281  0.0083
14391TIP3    H164664   2.659   3.996   5.992 -1.6260  1.2731  2.2568
14391TIP3    H264665   2.654   3.857   5.933  1.9886  2.3503 -1.0346
14392TIP3   OH264666   3.412   0.374   5.799 -0.1674 -0.2729 -0.6703
14392TIP3    H164667   3.482   0.328   5.845 -0.5802 -1.2071 -0.9506
14392TIP3    H264668   3.452   0.456   5.770  0.3839 -0.1443  0.4353
14393TIP3   OH264669   4.781   5.673   1.749 -0.8828 -0.0312  0.3503
14393TIP3    H164670   4.832   5.635   1.677  0.0222  1.7054  0.0278
14393TIP3    H264671   4.839   5.666   1.825 -1.6298 -1.3692  0.8331
14394TIP3   OH264672   3.281   5.243   1.959  0.2472  0.5489 -0.5642
14394TIP3    H164673   3.340   5.223   2.031 -1.5607  0.8687  1.0948
14394TIP3    H264674   3.339   5.262   1.885  2.1456 -1.9667  0.1431
14395TIP3   OH264675   0.902   3.906  11.350  0.3383  0.1587  0.3330
14395TIP3    H164676   0.983   3.936  11.309 -0.5490  0.9927 -0.8583
14395TIP3    H264677   0.876   3.830  11.298  0.1326  0.1497  0.4479
14396TIP3   OH264678   3.612   4.512   1.767  0.2771 -0.2692  0.2825
14396TIP3    H164679   3.645   4.582   1.824 -0.1894 -0.1305  0.3850
14396TIP3    H264680   3.631   4.431   1.815  0.4166 -0.1881  0.3654
14397TIP3   OH264681   0.973   1.143   4.825  0.3501  0.0914  0.0344
14397TIP3    H164682   0.949   1.219   4.877  1.2799  0.8986 -0.6825
14397TIP3    H264683   1.054   1.111   4.866  0.5414  0.1361 -0.3020
14398TIP3   OH264684   1.973   6.283   2.154 -0.0809 -0.2198 -0.3913
14398TIP3    H164685   1.930   6.360   2.190 -0.3812  0.3470 -1.8955
14398TIP3    H264686   2.046   6.266   2.214  1.3072  2.5231 -1.1384
14399TIP3   OH264687   6.689   3.918   5.811 -0.0707  0.2723 -0.8922
14399TIP3    H164688   6.752   3.863   5.859 -0.2884  0.5838 -0.2379
14399TIP3    H264689   6.688   4.000   5.859  0.5482  1.0138 -2.0992
14400TIP3   OH264690   0.044   5.956  15.762  0.1252 -0.5777  0.0422
14400TIP3    H164691  -0.017   5.899  15.717  0.0968  0.0041 -0.6730
14400TIP3    H264692   0.035   5.933  15.855 -1.9926  0.2513  0.0923
14401TIP3   OH264693   2.095   3.397  14.845  0.0462 -0.0004  0.3340
14401TIP3    H164694   2.079   3.326  14.907 -0.6290  0.2247  0.4308
14401TIP3    H264695   2.070   3.476  14.893  0.4931  0.2695  0.1208
14402TIP3   OH264696   5.620   0.893  11.437 -0.1559  0.7547  0.3228
14402TIP3    H164697   5.629   0.965  11.499 -0.3648  1.4206 -0.4036
14402TIP3    H264698   5.579   0.933  11.360 -0.5056 -0.1914  0.0038
14403TIP3   OH264699   3.393   6.788  16.920  0.0471  0.1417  0.1052
14403TIP3    H164700   3.408   6.845  16.996  1.6948 -0.4654  0.2828
14403TIP3    H264701   3.436   6.833  16.848  0.4645 -0.3755  0.0257
14404TIP3   OH264702   0.646   2.461  14.843  0.2931  0.1403 -0.9624
14404TIP3    H164703   0.604   2.379  14.869 -0.2205  0.1272 -1.7929
14404TIP3    H264704   0.654   2.511  14.925  2.1053 -1.3620 -0.1387
14405TIP3   OH264705   6.241   4.408   1.495 -0.0033 -0.3267  0.0911
14405TIP3    H164706   6.317   4.396   1.552 -1.0712 -0.7266  1.4778
14405TIP3    H264707   6.220   4.320   1.464  1.1254 -0.0188 -1.7564
14406TIP3   OH264708   3.308   3.792   1.056  0.3724 -0.4222 -0.3909
14406TIP3    H164709   3.279   3.702   1.070 -1.3279  0.1267 -0.2467
14406TIP3    H264710   3.279   3.840   1.133  2.2605  0.0709  0.0751
14407TIP3   OH264711   3.946   1.470   1.337  0.2539 -0.2575 -0.2860
14407TIP3    H164712   3.971   1.554   1.376  2.9911 -0.3590 -1.5809
14407TIP3    H264713   3.867   1.489   1.286  0.7712  1.5046 -0.4736
14408TIP3   OH264714   0.035   4.427   5.387 -0.0940  0.0323 -0.6784
14408TIP3    H164715   0.049   4.361   5.455  1.3932  1.0777  0.0997
14408TIP3    H264716   0.058   4.383   5.305  1.1443 -0.3736 -0.1447
14409TIP3   OH264717   0.754   4.228  11.213  0.2668  0.0455 -0.0823
14409TIP3    H164718   0.705   4.303  11.179 -0.7776  0.4313  2.0812
14409TIP3    H264719   0.698   4.192  11.282  1.7080 -1.3890  0.3962
14410TIP3   OH264720   2.595   0.171  13.597 -0.0489 -0.1212  0.1981
14410TIP3    H164721   2.623   0.230  13.527 -0.8187 -1.1754 -1.0402
14410TIP3    H264722   2.542   0.226  13.655  0.7951  0.8174  0.1194
14411TIP3   OH264723   0.097   6.627   0.953  0.2026 -0.6012  0.5425
14411TIP3    H164724   0.186   6.635   0.986 -0.0147 -0.8371  1.2070
14411TIP3    H264725   0.089   6.535   0.928 -0.2674 -0.9067  1.7455
14412TIP3   OH264726   4.302   0.534  13.778 -0.0567 -0.0679 -0.0953
14412TIP3    H164727   4.335   0.608  13.727 -1.3296  0.6090  0.0090
14412TIP3    H264728   4.260   0.574  13.854 -0.7599 -0.8794 -0.0355
14413TIP3   OH264729   6.044   4.505  11.260  0.3516 -0.2279  0.1545
14413TIP3    H164730   5.957   4.532  11.228 -1.0866 -3.1178  1.2226
14413TIP3    H264731   6.088   4.471  11.182 -0.0632 -0.1109 -0.1361
14414TIP3   OH264732   2.650   0.562   2.579  0.0533  0.2632 -0.5509
14414TIP3    H164733   2.638   0.468   2.565  1.4304  0.0368 -0.3432
14414TIP3    H264734   2.659   0.571   2.674 -0.0282  0.5968 -0.5737
14415TIP3   OH264735   1.346   2.189  13.272  0.3688  0.8110  0.2654
14415TIP3    H164736   1.332   2.270  13.223 -2.5123 -0.5360 -1.4036
14415TIP3    H264737   1.273   2.185  13.334 -0.4278 -1.1640 -0.7268
14416TIP3   OH264738   5.481   2.307  17.258 -0.1202 -0.1734 -0.0602
14416TIP3    H164739   5.492   2.239  17.191 -0.9234 -2.1430  1.6988
14416TIP3    H264740   5.397   2.347  17.237  0.2287  0.1299 -0.9527
14417TIP3   OH264741   4.870   1.766   5.142 -0.1464  0.1191 -0.3289
14417TIP3    H164742   4.855   1.860   5.148 -1.5746 -0.0347 -1.0941
14417TIP3    H264743   4.792   1.732   5.098  0.3268 -1.4275 -0.0324
14418TIP3   OH264744   4.252   4.417  16.662  0.0025 -0.0386 -0.3607
14418TIP3    H164745   4.229   4.422  16.755 -1.8148 -3.1920 -0.5169
14418TIP3    H264746   4.348   4.416  16.661  0.2243  3.3632  1.0989
14419TIP3   OH264747   6.704   6.438   1.914  0.2635  0.2077  0.1209
14419TIP3    H164748   6.739   6.356   1.950 -0.9433 -0.6919 -0.6739
14419TIP3    H264749   6.737   6.441   1.824 -2.4442 -1.2398 -1.0396
14420TIP3   OH264750   4.381   0.138  16.821 -0.1775 -0.2442  0.0735
14420TIP3    H164751   4.456   0.147  16.761 -0.9560 -1.0427 -1.0848
14420TIP3    H264752   4.378   0.220  16.869  0.6309  0.3419 -0.8323
14421TIP3   OH264753   0.373   6.269  13.368  0.2755  0.1766 -0.3753
14421TIP3    H164754   0.301   6.288  13.309  1.1610  1.1323 -1.1797
14421TIP3    H264755   0.347   6.308  13.452  0.2411  1.3150 -0.8979
14422TIP3   OH264756   3.377   4.315   1.690 -0.7035 -0.3263 -0.3135
14422TIP3    H164757   3.452   4.300   1.748  0.8545 -3.3199 -2.7953
14422TIP3    H264758   3.412   4.372   1.621 -0.5470 -1.8382 -1.5482
14423TIP3   OH264759   0.062   3.933  13.999  0.1099  0.0624 -0.4888
14423TIP3    H164760   0.028   4.010  14.045 -0.4531 -0.6502  0.3135
14423TIP3    H264761  -0.007   3.908  13.938  1.0769  1.3389 -2.1867
14424TIP3   OH264762   0.177   2.528  14.866  0.0455  0.1708  0.3348
14424TIP3    H164763   0.220   2.578  14.797 -0.0832 -0.4160 -0.1757
14424TIP3    H264764   0.119   2.468  14.820  0.3540 -0.5952  0.9255
14425TIP3   OH264765   1.831   4.461   0.454 -0.3474  0.3274 -0.2968
14425TIP3    H164766   1.851   4.443   0.546 -1.8013  1.9427  0.3882
14425TIP3    H264767   1.909   4.505   0.421  0.5568 -1.0836 -0.1284
14426TIP3   OH264768   6.619   5.468  12.806  0.0673 -0.0744 -0.5409
14426TIP3    H164769   6.642   5.448  12.896  0.5345 -1.4983 -0.9553
14426TIP3    H264770   6.545   5.529  12.813 -2.2285 -2.7554  0.8816
14427TIP3   OH264771   1.848   2.110   3.837 -0.4636  0.8208 -0.7624
14427TIP3    H164772   1.911   2.163   3.787  0.9623  0.4928  0.6152
14427TIP3    H264773   1.810   2.171   3.900 -0.3917  0.6677 -0.5718
14428TIP3   OH264774   3.577   0.748   2.353 -0.3876  0.3268 -0.0345
14428TIP3    H164775   3.618   0.802   2.420  0.8399  1.2595 -1.4781
14428TIP3    H264776   3.488   0.783   2.346  0.3132  2.0875 -0.7870
14429TIP3   OH264777   6.090   4.932  17.040 -0.2504 -0.1888 -0.3502
14429TIP3    H164778   6.064   5.017  17.076  1.0736  1.0031 -2.0431
14429TIP3    H264779   6.099   4.876  17.117 -0.3140  1.4425  0.9071
14430TIP3   OH264780   4.904   6.566   1.914 -0.6281 -0.1127 -0.9720
14430TIP3    H164781   4.840   6.623   1.957  0.4628  0.0335  0.5237
14430TIP3    H264782   4.850   6.505   1.862 -2.0128 -0.2178  0.4983
14431TIP3   OH264783   5.001   0.144  12.617 -0.6306  0.1690 -0.0709
14431TIP3    H164784   5.035   0.186  12.695  2.4866  1.2703 -1.8574
14431TIP3    H264785   4.968   0.216  12.563  0.0316 -0.1949 -0.9959
14432TIP3   OH264786   2.321   6.010   3.896  0.3382 -0.0206 -0.0349
14432TIP3    H164787   2.403   6.037   3.854 -0.7966  2.0402 -1.0498
14432TIP3    H264788   2.326   5.914   3.898  1.7184 -0.0772 -2.2920
14433TIP3   OH264789   2.791   5.786  14.354  0.2872 -0.2665  0.1195
14433TIP3    H164790   2.741   5.705  14.361  1.2407 -0.9921 -1.0333
14433TIP3    H264791   2.727   5.852  14.326 -0.2505 -0.9283 -0.2482
14434TIP3   OH264792   4.335   2.317   5.684 -0.3814 -0.3049 -0.1058
14434TIP3    H164793   4.380   2.388   5.730  0.7411 -0.5678 -0.7668
14434TIP3    H264794   4.342   2.242   5.743 -0.4879 -0.1959  0.0490
14435TIP3   OH264795   3.073   0.792  15.293  0.6056 -0.2496 -0.3522
14435TIP3    H164796   3.051   0.753  15.208  1.0817  0.7202 -0.9364
14435TIP3    H264797   3.051   0.884  15.284  0.2463 -0.2147  0.7428
14436TIP3   OH264798   4.074   5.402  12.350 -0.1637 -0.6242 -0.4088
14436TIP3    H164799   3.986   5.383  12.317 -0.4523  0.0514 -0.0470
14436TIP3    H264800   4.127   5.416  12.271 -0.7105  0.3810 -0.6133
14437TIP3   OH264801   0.877   6.531   4.188  0.0338  0.4371  0.3489
14437TIP3    H164802   0.968   6.553   4.208  0.2499 -0.4166  0.3424
14437TIP3    H264803   0.849   6.477   4.263  0.5054 -1.8697 -1.0288
14438TIP3   OH264804   0.763   5.508   4.751  0.0827  0.5426  0.1110
14438TIP3    H164805   0.695   5.457   4.795  2.0497  0.0417  2.8358
14438TIP3    H264806   0.799   5.449   4.685 -2.2096  0.9301 -1.6191
14439TIP3   OH264807   6.472   3.084   5.933  0.2920 -0.3228  0.2390
14439TIP3    H164808   6.471   2.991   5.909  0.6759  0.0225 -1.2170
14439TIP3    H264809   6.564   3.103   5.951  0.1885 -0.2573  0.7108
14440TIP3   OH264810   1.703   2.833  16.482  0.1199 -0.4043 -0.0077
14440TIP3    H164811   1.735   2.923  16.485 -0.7481 -0.1085  0.7066
14440TIP3    H264812   1.618   2.839  16.439  0.6997 -1.0983 -1.3022
14441TIP3   OH264813   3.709   4.450   0.820  0.0997 -0.2630  0.2679
14441TIP3    H164814   3.702   4.374   0.762 -0.2230 -0.6167  0.7579
14441TIP3    H264815   3.618   4.477   0.835  0.1630 -0.3435  0.8158
14442TIP3   OH264816   3.125   2.460   4.525  0.2458 -0.6034 -0.1616
14442TIP3    H164817   3.111   2.479   4.618  0.7919 -0.8699 -0.0209
14442TIP3    H264818   3.143   2.546   4.486  2.5057 -0.7254  0.4381
14443TIP3   OH264819   5.960   1.839   3.890  0.0175 -0.3989 -0.2844
14443TIP3    H164820   5.923   1.751   3.896 -0.4936 -0.1534  0.1825
14443TIP3    H264821   6.055   1.825   3.900 -0.1795 -0.7525  1.3648
14444TIP3   OH264822   3.652   6.643   0.140 -0.2273 -0.1388 -0.5213
14444TIP3    H164823   3.662   6.651   0.235  1.3369  1.2192 -0.7467
14444TIP3    H264824   3.719   6.579   0.115 -0.5694 -0.4177 -0.7276
14445TIP3   OH264825   4.320   1.534   4.219  0.2404  0.3841  0.8274
14445TIP3    H164826   4.330   1.610   4.276  2.6451  1.4163 -0.8008
14445TIP3    H264827   4.407   1.493   4.220  0.0751 -0.1058 -1.2784
14446TIP3   OH264828   1.179   3.782  14.965  0.3875  0.1711 -0.2558
14446TIP3    H164829   1.134   3.858  14.927 -0.3620  0.3372  0.9167
14446TIP3    H264830   1.138   3.771  15.051  1.2140 -0.9277  0.0093
14447TIP3   OH264831   3.638   0.643  11.964 -0.0021  0.2379  0.6257
14447TIP3    H164832   3.715   0.639  11.907 -0.1837 -0.3305  0.4094
14447TIP3    H264833   3.606   0.733  11.955 -0.2708  0.0414 -0.5023
14448TIP3   OH264834   2.503   5.495   3.421  0.1705 -0.0957  0.2179
14448TIP3    H164835   2.554   5.500   3.502  1.4895 -0.2395 -0.5693
14448TIP3    H264836   2.555   5.543   3.357 -1.1982  0.6309 -0.3975
14449TIP3   OH264837   2.546   1.010   3.125 -0.0068  0.4184 -0.0289
14449TIP3    H164838   2.470   0.979   3.173 -0.4362  2.2744  0.5793
14449TIP3    H264839   2.527   0.990   3.034 -0.9168  0.2699  0.1867
14450TIP3   OH264840   4.930   0.586  16.646  0.5258  0.1129  0.0623
14450TIP3    H164841   5.003   0.532  16.616  0.7251  0.4976 -0.1539
14450TIP3    H264842   4.856   0.526  16.653  1.2282 -0.6344  1.8049
14451TIP3   OH264843   4.478   5.722  14.511  0.0963 -0.3403  0.0404
14451TIP3    H164844   4.451   5.671  14.587 -1.4127  0.9327  0.4239
14451TIP3    H264845   4.523   5.798  14.548  0.8029 -0.5120 -0.4406
14452TIP3   OH264846   5.725   1.554  14.204  0.8196 -0.0534  0.2595
14452TIP3    H164847   5.629   1.560  14.206  0.6674 -1.1257 -1.6424
14452TIP3    H264848   5.751   1.602  14.126  1.5703 -1.9893 -0.7567
14453TIP3   OH264849   1.273   3.620  14.746  0.1786 -0.1848 -0.4491
14453TIP3    H164850   1.263   3.687  14.814  1.9707 -0.5582  0.2491
14453TIP3    H264851   1.357   3.578  14.767 -0.6575 -2.3207 -1.1360
14454TIP3   OH264852   0.187   4.084  14.505  0.0099 -0.5992  0.1946
14454TIP3    H164853   0.116   4.086  14.570  0.7627  1.2082  1.0296
14454TIP3    H264854   0.256   4.033  14.546  0.9628  1.5619  1.4178
14455TIP3   OH264855   3.894   1.553  15.132  0.1309 -0.3009 -0.2042
14455TIP3    H164856   3.869   1.485  15.195  0.4962 -0.5716 -0.3504
14455TIP3    H264857   3.956   1.510  15.074  0.1746  0.0920 -0.4490
14456TIP3   OH264858   6.241   4.297   3.227 -0.0107 -0.5666  0.2699
14456TIP3    H164859   6.309   4.255   3.280 -1.0116 -0.5736  1.6109
14456TIP3    H264860   6.278   4.382   3.204  1.1918 -1.3159 -0.6773
14457TIP3   OH264861   2.715   3.629   2.496  0.2735  0.4618  0.1139
14457TIP3    H164862   2.693   3.569   2.425 -1.3503  1.6255 -0.4411
14457TIP3    H264863   2.686   3.585   2.576 -0.9298  0.4857 -0.2905
14458TIP3   OH264864   0.441   0.375  16.744  0.2809 -0.1316 -0.5975
14458TIP3    H164865   0.426   0.397  16.652 -0.5868  1.4224 -0.1236
14458TIP3    H264866   0.419   0.282  16.751 -3.7565  0.6127 -1.1847
14459TIP3   OH264867   5.039   0.824   2.770  0.0257 -0.2458 -0.2160
14459TIP3    H164868   5.098   0.798   2.841 -0.4884 -0.8119  0.0094
14459TIP3    H264869   4.953   0.829   2.810  0.2944  3.6441  0.2043
14460TIP3   OH264870   4.225   5.179   0.269  0.7499  0.0278 -0.5011
14460TIP3    H164871   4.189   5.253   0.220  0.1093 -0.1712 -0.3344
14460TIP3    H264872   4.185   5.102   0.230  0.5130 -0.1569  0.0913
14461TIP3   OH264873   0.377   4.018   4.314  0.3646  0.0029 -0.2734
14461TIP3    H164874   0.322   3.976   4.247  1.4886 -2.0960  0.0369
14461TIP3    H264875   0.365   4.112   4.299 -1.3160 -0.3956 -1.8234
14462TIP3   OH264876   5.710   0.616  11.512 -0.2999 -0.5475 -0.1537
14462TIP3    H164877   5.673   0.703  11.494 -0.9673 -0.8956 -0.5004
14462TIP3    H264878   5.728   0.580  11.425 -1.5901 -1.4193 -0.0722
14463TIP3   OH264879   6.715   5.580  16.340 -0.0347  0.1743  0.1899
14463TIP3    H164880   6.802   5.557  16.307 -0.0494  1.3343 -0.7250
14463TIP3    H264881   6.715   5.676  16.342 -1.1490  0.1747  0.6011
14464TIP3   OH264882   2.686   4.592  15.394  0.1174  0.1893  0.4759
14464TIP3    H164883   2.610   4.649  15.407 -1.3784 -1.8062  1.0133
14464TIP3    H264884   2.650   4.504  15.401  2.0750 -0.8680 -1.6675
14465TIP3   OH264885   4.576   6.101  16.122  0.2070  0.9483 -0.2451
14465TIP3    H164886   4.585   6.088  16.027  1.0748  3.8157 -0.6599
14465TIP3    H264887   4.495   6.150  16.132  1.2162  2.6272  0.1858
14466TIP3   OH264888   3.776   5.166   2.207  0.2775 -0.3320 -0.4800
14466TIP3    H164889   3.689   5.133   2.232  1.6602 -1.6630  3.1665
14466TIP3    H264890   3.831   5.087   2.204  2.2322  0.8534  1.5871
14467TIP3   OH264891   2.284   2.444  11.777  0.7229 -0.1695 -0.4419
14467TIP3    H164892   2.301   2.536  11.796  0.1918 -0.2147  0.3086
14467TIP3    H264893   2.290   2.401  11.862 -2.2376 -0.3163 -0.1945
14468TIP3   OH264894   2.132   1.614  12.318  0.1870  0.1888 -0.4507
14468TIP3    H164895   2.134   1.541  12.379 -0.3665 -0.0476 -0.7049
14468TIP3    H264896   2.043   1.650  12.326  0.2819  0.4875 -0.7223
14469TIP3   OH264897   0.170   5.260  12.286 -0.3934 -0.3778 -0.0509
14469TIP3    H164898   0.127   5.343  12.309  1.1908  0.1053  1.3858
14469TIP3    H264899   0.171   5.210  12.368  1.9357 -0.2497  0.0777
14470TIP3   OH264900   5.411   4.282  16.965  0.0853  0.2150 -0.4679
14470TIP3    H164901   5.340   4.341  16.990 -0.7250 -0.8956 -0.1154
14470TIP3    H264902   5.483   4.341  16.940 -0.8500  1.3479 -0.5604
14471TIP3   OH264903   0.374   6.537  15.389  0.0621  0.4852 -0.2325
14471TIP3    H164904   0.358   6.550  15.295  1.3254  2.6988 -0.2116
14471TIP3    H264905   0.351   6.621  15.429  0.9162  0.0465  1.2480
14472TIP3   OH264906   6.069   4.781   0.250 -0.0199  0.0445  0.5259
14472TIP3    H164907   6.087   4.688   0.243 -2.6926 -0.4511 -1.2722
14472TIP3    H264908   6.123   4.811   0.324  1.7948 -2.6226  0.4053
14473TIP3   OH264909   1.046   5.916  16.099 -0.8700  0.1692 -0.5592
14473TIP3    H164910   1.122   5.859  16.111 -2.2501 -1.7423 -0.3956
14473TIP3    H264911   1.023   5.943  16.188 -1.2002 -0.4185 -0.4587
14474TIP3   OH264912   1.117   3.607   6.264  0.4564 -0.3256 -0.3474
14474TIP3    H164913   1.023   3.625   6.261  0.2402 -1.3979 -0.1885
14474TIP3    H264914   1.130   3.562   6.347  1.2263  0.4029 -0.0592
14475TIP3   OH264915   6.641   3.914  14.756  0.4173  0.4722  0.0728
14475TIP3    H164916   6.562   3.968  14.750  0.5200  0.5598 -0.5791
14475TIP3    H264917   6.627   3.845  14.691  1.4763  1.2851 -1.0920
14476TIP3   OH264918   4.367   6.606  11.267 -0.5358  1.1438  0.2342
14476TIP3    H164919   4.435   6.540  11.276  1.7137  3.2522  0.0015
14476TIP3    H264920   4.287   6.557  11.249  0.9528 -1.4693  0.2948
14477TIP3   OH264921   5.197   1.657  12.971 -0.1213  0.1179  0.0836
14477TIP3    H164922   5.134   1.670  12.900 -0.8679  0.4962  0.7902
14477TIP3    H264923   5.202   1.562  12.980 -1.5042  0.0768  0.7717
14478TIP3   OH264924   0.697   4.390   3.481 -0.2476  0.0490  0.1317
14478TIP3    H164925   0.702   4.486   3.477  0.4998  0.2185  2.7990
14478TIP3    H264926   0.743   4.360   3.403 -0.3735  1.8593 -0.6887
14479TIP3   OH264927   5.870   4.269   0.703  0.0202  0.2521 -0.4438
14479TIP3    H164928   5.934   4.257   0.634 -1.0540 -1.3039 -1.2290
14479TIP3    H264929   5.891   4.202   0.768 -0.3644  0.2027 -0.3672
14480TIP3   OH264930   1.139   6.162  13.963  0.1817 -0.2669 -0.3215
14480TIP3    H164931   1.141   6.089  14.026 -0.7196 -0.2327 -0.2424
14480TIP3    H264932   1.182   6.127  13.885  0.0403 -0.7816 -0.1758
14481TIP3   OH264933   6.024   4.262   3.415  0.3422 -0.8347  0.2436
14481TIP3    H164934   6.045   4.308   3.496  1.3418 -2.5311  1.0133
14481TIP3    H264935   6.074   4.307   3.347  1.5797 -0.9746  1.0340
14482TIP3   OH264936   3.413   6.410   0.315 -0.1407 -0.6424 -0.2549
14482TIP3    H164937   3.489   6.416   0.257  0.9291  0.8669  1.2174
14482TIP3    H264938   3.348   6.467   0.275 -0.0365 -0.9431 -0.8593
14483TIP3   OH264939   4.276   1.775  14.282 -0.3150 -0.3443  0.2825
14483TIP3    H164940   4.212   1.733  14.339 -0.9471  0.7220  0.3821
14483TIP3    H264941   4.361   1.754  14.322 -0.4425 -2.9444 -0.6215
14484TIP3   OH264942   5.966   6.250   3.412 -0.0563  0.6625  0.0860
14484TIP3    H164943   5.999   6.170   3.371 -0.8215  0.6395 -0.5070
14484TIP3    H264944   6.004   6.249   3.500  2.4525  1.2265 -0.9064
14485TIP3   OH264945   2.361   1.268  15.354 -0.1380  0.8157  0.1695
14485TIP3    H164946   2.331   1.316  15.432  0.3948  0.6741  0.4616
14485TIP3    H264947   2.452   1.248  15.372 -1.1489 -3.3571  1.5896
14486TIP3   OH264948   5.198   2.034   0.627  1.2325 -1.0478 -0.1313
14486TIP3    H164949   5.159   2.032   0.714  0.7962  0.8684 -0.2370
14486TIP3    H264950   5.283   1.992   0.637  0.6827 -1.9421  0.9379
14487TIP3   OH264951   0.731   2.889   3.967  0.0526  0.1171 -0.3657
14487TIP3    H164952   0.788   2.962   3.944  0.3844 -0.5078 -1.5774
14487TIP3    H264953   0.791   2.818   3.991 -0.2491 -0.0394 -0.0698
14488TIP3   OH264954   2.520   4.017  12.011  0.4381 -0.0961  0.4152
14488TIP3    H164955   2.534   3.929  11.974  0.5942 -1.0869  2.6654
14488TIP3    H264956   2.602   4.063  11.993  0.2817 -0.3074 -0.9807
14489TIP3   OH264957   1.774   3.076   3.765  0.3107  0.1020 -0.0014
14489TIP3    H164958   1.748   3.024   3.842 -0.2820 -1.2672 -1.0831
14489TIP3    H264959   1.869   3.073   3.766  0.3237 -2.4509 -0.9121
14490TIP3   OH264960   1.521   6.076   3.733 -0.3682  0.1907  0.2637
14490TIP3    H164961   1.529   6.075   3.828  0.8562 -0.4003  0.1779
14490TIP3    H264962   1.427   6.076   3.716 -0.5975 -0.3106  1.4724
14491TIP3   OH264963   5.392   3.488  15.132  0.2868  0.2625 -0.1953
14491TIP3    H164964   5.343   3.471  15.212 -0.9946 -0.7056 -1.1386
14491TIP3    H264965   5.436   3.572  15.148  1.0776 -0.4833  1.9572
14492TIP3   OH264966   1.234   4.501  14.059  0.4020 -0.4751 -0.0056
14492TIP3    H164967   1.191   4.575  14.102  1.7890  2.6174 -3.4633
14492TIP3    H264968   1.314   4.486  14.109 -0.6732 -0.8365  1.6774
14493TIP3   OH264969   4.902   5.298  11.355 -0.1104 -0.5198  0.2074
14493TIP3    H164970   4.977   5.355  11.339 -0.2445 -0.1471  0.8563
14493TIP3    H264971   4.879   5.262  11.269  0.0286  0.3362 -0.1898
14494TIP3   OH264972   4.968   6.556   3.364 -0.1296  0.2640 -0.6637
14494TIP3    H164973   4.880   6.576   3.331 -0.5079 -0.2861 -0.0041
14494TIP3    H264974   5.010   6.642   3.372 -0.2026  0.4574 -2.0563
14495TIP3   OH264975   1.998   0.861  15.003  0.2063  0.1846  0.5754
14495TIP3    H164976   2.056   0.808  15.058  1.6605  2.2085  1.1179
14495TIP3    H264977   2.006   0.822  14.916 -0.0767 -1.4536  1.2404
14496TIP3   OH264978   0.788   5.537  13.006  0.5408 -0.4068 -0.0117
14496TIP3    H164979   0.744   5.453  12.991 -1.9456  0.9206 -0.7043
14496TIP3    H264980   0.762   5.563  13.094  2.3167 -0.8497  0.7053
14497TIP3   OH264981   0.805   5.219  14.228  0.4880 -0.6993  0.7765
14497TIP3    H164982   0.780   5.141  14.178 -1.9517 -0.0338  0.8396
14497TIP3    H264983   0.751   5.289  14.191  2.4217  0.9673  0.8899
14498TIP3   OH264984   0.068   6.186  15.509  0.7076  0.3342 -0.5007
14498TIP3    H164985   0.002   6.199  15.577 -2.5549  0.6407 -3.4787
14498TIP3    H264986   0.147   6.228  15.544 -0.6226  0.1505  3.1668
14499TIP3   OH264987   2.982   5.919  16.650 -0.2223  0.4953 -0.0557
14499TIP3    H164988   2.948   5.854  16.711  0.1261  0.1169 -0.2550
14499TIP3    H264989   2.931   5.997  16.667 -2.1336 -0.4292 -1.2862
14500TIP3   OH264990   5.288   6.580   1.157 -0.0061  0.0333  0.1048
14500TIP3    H164991   5.331   6.507   1.113  0.4011  0.2822  0.0803
14500TIP3    H264992   5.346   6.655   1.141  0.0330  0.1723  0.8810
14501TIP3   OH264993   2.450   1.987  16.460 -0.2995  0.0705 -0.0986
14501TIP3    H164994   2.402   1.968  16.380  0.8030  0.5352 -0.8825
14501TIP3    H264995   2.406   1.935  16.527  0.0419 -1.9499 -1.3665
14502TIP3   OH264996   3.692   1.047   0.662 -0.6847 -0.3051  0.4479
14502TIP3    H164997   3.742   1.117   0.704 -2.6447  1.6679 -0.3050
14502TIP3    H264998   3.711   1.055   0.569 -0.6473 -1.0440  0.3824
14503TIP3   OH264999   6.114   5.081   4.204 -0.2301  0.5358 -0.0197
14503TIP3    H165000   6.194   5.125   4.176  0.2010 -0.2079  0.0340
14503TIP3    H265001   6.046   5.149   4.198  0.2536  0.9595 -0.8130
14504TIP3   OH265002   4.949   6.347   6.001  0.0758 -0.3071  0.6955
14504TIP3    H165003   4.879   6.409   6.021  0.1001 -0.1578  0.3303
14504TIP3    H265004   4.920   6.264   6.039 -1.6750 -0.9950 -1.8865
14505TIP3   OH265005   6.077   4.921  12.450  0.1560  0.1568  0.2194
14505TIP3    H165006   6.039   4.999  12.410 -0.0319  0.4819  1.0074
14505TIP3    H265007   6.171   4.938  12.450  0.3571 -0.6692 -1.7779
14506TIP3   OH265008   4.006   3.909  16.983 -0.7439 -0.3459 -0.2905
14506TIP3    H165009   4.040   3.861  17.058  0.7876 -0.0930 -0.7827
14506TIP3    H265010   4.075   3.971  16.961 -2.0678  1.1040 -0.5608
14507TIP3   OH265011   3.968   4.592  11.343  0.6451  0.3091  0.0162
14507TIP3    H165012   4.060   4.599  11.317  0.2965 -0.2245 -1.4996
14507TIP3    H265013   3.922   4.577  11.260 -0.6523 -0.8485  0.9196
14508TIP3   OH265014   5.648   0.007  15.493  0.3000 -0.1520 -0.2597
14508TIP3    H165015   5.569  -0.015  15.444 -0.9400  1.7894  0.7624
14508TIP3    H265016   5.720  -0.031  15.441 -1.2416 -1.7431 -1.3418
14509TIP3   OH265017   1.997   6.461   5.493  0.1334 -0.2455 -0.1816
14509TIP3    H165018   2.042   6.498   5.569 -0.9406  0.1842  0.2570
14509TIP3    H265019   1.986   6.535   5.433  0.3957 -0.4451 -0.4842
14510TIP3   OH265020   0.968   5.750  11.309  0.1349 -0.0679 -0.2117
14510TIP3    H165021   0.918   5.682  11.355 -2.2043  0.0082 -2.4394
14510TIP3    H265022   1.056   5.744  11.347 -0.7687 -2.2323  1.8315
14511TIP3   OH265023   4.708   2.034   0.399  0.1410 -0.4650  0.1990
14511TIP3    H165024   4.649   1.959   0.392 -1.0438  0.4227  0.3070
14511TIP3    H265025   4.742   2.030   0.488 -0.0748 -0.7440  0.2702
14512TIP3   OH265026   2.590   1.141  16.682 -0.2220 -0.5892 -0.1039
14512TIP3    H165027   2.508   1.124  16.728  1.2423 -1.4712  2.4294
14512TIP3    H265028   2.568   1.134  16.590 -2.9885 -0.7283  0.4759
14513TIP3   OH265029   4.403   1.290  12.433  0.1418  0.2464  0.1929
14513TIP3    H165030   4.414   1.224  12.502 -1.5773  0.7156  0.9861
14513TIP3    H265031   4.468   1.357  12.454  0.5146 -0.2343  0.6052
14514TIP3   OH265032   3.408   4.582   5.768 -0.3104  0.0255  0.5741
14514TIP3    H165033   3.357   4.637   5.707  1.6871  0.6330 -0.6345
14514TIP3    H265034   3.493   4.625   5.774  1.1124 -2.5185  0.1469
14515TIP3   OH265035   0.795   6.801  14.515  0.2109  0.3123  0.0356
14515TIP3    H165036   0.791   6.862  14.588 -1.4146 -0.0019  0.2380
14515TIP3    H265037   0.760   6.719  14.550 -1.0807  0.3001 -1.2224
14516TIP3   OH265038   0.364   1.808  12.058  0.3160  0.3730 -0.1175
14516TIP3    H165039   0.318   1.834  11.978 -0.4651 -1.2995 -0.2532
14516TIP3    H265040   0.448   1.853  12.053  0.7316 -0.5170 -2.4431
14517TIP3   OH265041   6.661   2.136  11.817  0.2336 -0.1143 -0.0337
14517TIP3    H165042   6.579   2.086  11.811  0.3507 -0.4984  1.2657
14517TIP3    H265043   6.704   2.122  11.733 -1.8419  1.5786 -1.4860
14518TIP3   OH265044   6.127   1.362   0.523  0.7740  0.2548  0.1510
14518TIP3    H165045   6.203   1.309   0.498 -0.1855 -0.7001 -0.8877
14518TIP3    H265046   6.160   1.423   0.588  2.9154  1.2161 -1.6948
14519TIP3   OH265047   5.858   3.029  10.747 -0.4873  0.6519 -0.2238
14519TIP3    H165048   5.796   2.966  10.784  2.1439 -2.6340 -0.9942
14519TIP3    H265049   5.848   3.020  10.652 -0.0617  1.4696 -0.3544
14520TIP3   OH265050   4.105   2.077   3.516  0.2366 -0.6619 -0.3959
14520TIP3    H165051   4.011   2.079   3.535  0.9815  0.0114  4.0874
14520TIP3    H265052   4.141   2.015   3.579  3.0247  0.4665 -0.7630
14521TIP3   OH265053   6.087   3.245  15.803 -0.7756  0.3875 -0.2983
14521TIP3    H165054   6.150   3.172  15.803 -1.0983  0.0966 -0.8993
14521TIP3    H265055   6.092   3.280  15.714  0.4335  2.0491  0.3885
14522TIP3   OH265056   1.851   6.551  15.967  0.0216 -0.0987 -0.2655
14522TIP3    H165057   1.890   6.607  16.035 -1.2196  3.3940 -2.1618
14522TIP3    H265058   1.921   6.540  15.902 -0.1224  0.4454 -0.5193
14523TIP3   OH265059   3.919   6.534   5.040 -0.7835  0.1616 -0.2168
14523TIP3    H165060   3.940   6.565   4.952  2.0746  1.9325  0.9548
14523TIP3    H265061   3.981   6.462   5.056 -1.9883 -0.8662  0.0336
14524TIP3   OH265062   2.453   5.470   3.899  0.0419 -0.0633 -0.2776
14524TIP3    H165063   2.480   5.393   3.948 -0.3577 -0.2970 -0.4235
14524TIP3    H265064   2.377   5.441   3.848  0.0045  0.3732 -0.4743
14525TIP3   OH265065   6.259   2.300   3.276  0.6536 -0.3273 -0.4362
14525TIP3    H165066   6.212   2.218   3.290 -1.9675  1.0296 -0.5407
14525TIP3    H265067   6.274   2.335   3.363 -1.6466  0.7695 -0.3936
14526TIP3   OH265068   4.066   2.690   3.744 -0.2236 -0.0694  0.2269
14526TIP3    H165069   4.119   2.751   3.692  0.7235 -2.2557 -1.5587
14526TIP3    H265070   4.002   2.655   3.682  0.0368 -1.7233  0.8370
14527TIP3   OH265071   1.604   1.371  12.634 -0.0771  0.1474 -0.2657
14527TIP3    H165072   1.676   1.346  12.576 -0.4170  0.9920 -1.0814
14527TIP3    H265073   1.641   1.439  12.690  0.1631 -0.4497  0.3125
14528TIP3   OH265074   5.923   2.299  16.872  0.7479 -0.0850 -0.2198
14528TIP3    H165075   5.881   2.337  16.948 -0.2792  1.3686 -1.4542
14528TIP3    H265076   5.947   2.374  16.818  0.4099 -1.1036 -1.8516
14529TIP3   OH265077   2.225   1.881  16.681 -0.2161  0.3242  0.3895
14529TIP3    H165078   2.279   1.921  16.750 -0.2482 -0.5337  0.9228
14529TIP3    H265079   2.135   1.888  16.714 -0.3612  1.0387 -0.1387
14530TIP3   OH265080   2.270   2.209   4.483  0.2443 -0.5329  0.5893
14530TIP3    H165081   2.358   2.204   4.444  0.7227 -1.4965  1.7221
14530TIP3    H265082   2.258   2.125   4.526 -0.8119 -0.0259  1.3409
14531TIP3   OH265083   2.149   4.369   2.706  0.5359 -0.5730  0.3627
14531TIP3    H165084   2.140   4.464   2.703 -0.9559 -0.5695  2.4866
14531TIP3    H265085   2.114   4.339   2.622 -0.4298  0.6941  0.2812
14532TIP3   OH265086   3.851   4.712  13.874 -0.0639  0.2424  0.9254
14532TIP3    H165087   3.777   4.770  13.862 -0.5074 -0.5334 -0.2492
14532TIP3    H265088   3.923   4.753  13.827 -0.1707  0.2230  0.7453
14533TIP3   OH265089   6.719   6.492  10.922  0.4089 -0.1327 -0.2730
14533TIP3    H165090   6.751   6.498  11.011  0.6149 -0.6625 -0.3079
14533TIP3    H265091   6.634   6.448  10.929  0.4368 -0.1980 -0.3418
14534TIP3   OH265092   6.328   0.611   4.196 -0.0544  0.0120 -0.3431
14534TIP3    H165093   6.356   0.588   4.107 -0.4588 -1.0336 -0.2149
14534TIP3    H265094   6.234   0.626   4.188  0.0991  1.0629 -0.2987
14535TIP3   OH265095   6.444   4.201   0.297  0.4584  0.0401 -0.3353
14535TIP3    H165096   6.490   4.263   0.240 -0.8835  0.5060 -0.9815
14535TIP3    H265097   6.352   4.227   0.289  0.1194 -0.5754  1.2294
14536TIP3   OH265098   2.341   1.262   0.648  0.7169  0.0592 -0.3307
14536TIP3    H165099   2.366   1.267   0.556 -0.0764  0.1927 -0.5458
14536TIP3    H265100   2.267   1.201   0.650  1.6876 -1.1534  0.4346
14537TIP3   OH265101   1.779   4.189   0.400 -0.5203  0.7649 -0.3220
14537TIP3    H165102   1.788   4.284   0.407  0.3562  0.5860  1.4877
14537TIP3    H265103   1.699   4.168   0.447  0.8248  0.3812  1.9556
14538TIP3   OH265104   2.653   0.236  11.807  0.6856 -0.0255  0.4785
14538TIP3    H165105   2.739   0.279  11.803  1.8682 -2.2147  0.9231
14538TIP3    H265106   2.644   0.209  11.898  1.3380 -3.1392 -0.2723
14539TIP3   OH265107   5.528   0.394  11.847 -0.5838  0.0959 -0.3041
14539TIP3    H165108   5.576   0.441  11.916 -1.4544  0.3007  0.1774
14539TIP3    H265109   5.490   0.464  11.794  0.1829 -0.0613 -1.0698
14540TIP3   OH265110   0.864   2.117   3.673 -0.1418 -0.1613 -0.3693
14540TIP3    H165111   0.846   2.103   3.580  0.3119  1.3408 -0.7238
14540TIP3    H265112   0.833   2.038   3.716 -3.9502  0.5648 -1.3562
14541TIP3   OH265113   3.661   2.872   0.923  0.0254  0.0487  0.2571
14541TIP3    H165114   3.594   2.822   0.877 -0.3694  1.0662 -0.3196
14541TIP3    H265115   3.682   2.944   0.863  1.2834  0.0316  0.6399
14542TIP3   OH265116   6.711   1.912  15.194 -0.6155  0.6647  0.0237
14542TIP3    H165117   6.669   1.932  15.278 -0.3297  0.8118  0.1300
14542TIP3    H265118   6.688   1.820  15.178 -0.5824  0.6044  0.3124
14543TIP3   OH265119   1.074   6.110  12.169 -0.2139  0.5012 -0.5490
14543TIP3    H165120   1.168   6.100  12.158 -0.3511  0.9171 -2.4458
14543TIP3    H265121   1.038   6.023  12.150 -0.3455  0.8774 -2.1692
14544TIP3   OH265122   0.552   1.182  16.165  0.5751  0.3147 -0.0560
14544TIP3    H165123   0.457   1.178  16.179  0.4536 -2.0936 -1.1467
14544TIP3    H265124   0.588   1.140  16.243  0.5373 -1.6340 -1.0408
14545TIP3   OH265125   4.370   1.387   2.850 -0.1438 -0.1708 -0.4046
14545TIP3    H165126   4.336   1.396   2.761  1.9038 -1.2218 -1.3773
14545TIP3    H265127   4.420   1.305   2.848  0.9042  0.3693  1.3876
14546TIP3   OH265128   4.141   0.797  12.427 -0.2098  0.2804 -0.7648
14546TIP3    H165129   4.046   0.783  12.426 -0.1661 -0.4729  1.2864
14546TIP3    H265130   4.152   0.889  12.451 -0.4448 -0.1179  0.9813
14547TIP3   OH265131   5.283   6.780  14.449 -0.1487 -0.0326 -0.1734
14547TIP3    H165132   5.226   6.857  14.440 -1.7034 -0.6655  2.9928
14547TIP3    H265133   5.223   6.706  14.458  1.0646 -0.8141  2.7168
14548TIP3   OH265134   4.504   0.090   1.234 -0.3545 -0.1270 -0.4700
14548TIP3    H165135   4.466   0.174   1.206 -1.2345 -0.6281 -0.8334
14548TIP3    H265136   4.575   0.075   1.172 -0.0401  0.4638 -0.2595
14549TIP3   OH265137   4.740   5.465   0.472  0.8664 -0.1673  0.2645
14549TIP3    H165138   4.683   5.418   0.412 -0.9106  1.6628  0.4093
14549TIP3    H265139   4.759   5.402   0.542  1.7682 -1.8399 -1.4192
14550TIP3   OH265140   6.263   3.922  15.625  0.1768  0.4510  0.3519
14550TIP3    H165141   6.331   3.886  15.681 -0.4801 -2.7576 -0.6816
14550TIP3    H265142   6.270   3.872  15.543 -3.2103  0.0996  0.1048
14551TIP3   OH265143   3.805   2.762  15.010 -0.4234  0.1325 -0.0008
14551TIP3    H165144   3.779   2.770  14.918  2.5026  0.0177 -0.9168
14551TIP3    H265145   3.849   2.844  15.030  0.4734 -0.5150  0.7629
14552TIP3   OH265146   1.903   4.994   3.087 -0.4315  0.3524 -0.7386
14552TIP3    H165147   1.933   5.084   3.077 -4.6426  1.9640 -0.7759
14552TIP3    H265148   1.808   5.001   3.096 -0.7333 -3.9162  2.0275
14553TIP3   OH265149   1.947   6.651  13.986 -0.1172  0.5720 -0.2383
14553TIP3    H165150   1.970   6.559  13.983  0.8823  0.8294 -1.6957
14553TIP3    H265151   1.981   6.682  14.071  2.6623  0.3191 -1.1624
14554TIP3   OH265152   2.153   2.540  16.341  0.1186 -0.6332  0.0982
14554TIP3    H165153   2.116   2.620  16.378 -1.6721 -1.3580 -0.0194
14554TIP3    H265154   2.078   2.481  16.331  1.1308 -1.7594 -1.3195
14555TIP3   OH265155   1.569   1.749   5.474  0.1990  0.2137 -0.1378
14555TIP3    H165156   1.658   1.720   5.453 -0.0465 -0.7345  0.0755
14555TIP3    H265157   1.517   1.723   5.398  0.3767  2.2407 -0.9937
14556TIP3   OH265158   2.803   6.231  15.992  0.2000 -0.5057  0.0181
14556TIP3    H165159   2.718   6.188  15.988 -0.9943  1.5072  1.7987
14556TIP3    H265160   2.819   6.247  16.085  0.6339  2.5695 -0.4573
14557TIP3   OH265161   0.735   5.184  13.376  0.2224 -0.4497  0.1206
14557TIP3    H165162   0.751   5.110  13.318  1.7479 -2.3422  2.7357
14557TIP3    H265163   0.640   5.191  13.381  0.0528 -1.8703 -0.6439
14558TIP3   OH265164   3.047   4.261   4.734 -0.0481  0.0095 -0.2481
14558TIP3    H165165   3.010   4.209   4.805 -1.0819  1.1277  0.0653
14558TIP3    H265166   3.046   4.203   4.658  2.7031 -1.8180  0.9674
14559TIP3   OH265167   5.237   2.551  14.830 -0.0170 -0.1077  0.3591
14559TIP3    H165168   5.172   2.480  14.838  0.5136 -0.5893  0.4491
14559TIP3    H265169   5.300   2.532  14.900  1.2818 -0.7605 -0.9469
14560TIP3   OH265170   1.502   1.525   0.111 -0.1500 -0.1112 -0.1224
14560TIP3    H165171   1.591   1.496   0.130  0.5325 -0.1887 -3.0318
14560TIP3    H265172   1.469   1.460   0.049 -1.6398  0.8220 -0.3541
14561TIP3   OH265173   2.779   1.655   0.681 -0.1153 -0.0011 -0.7016
14561TIP3    H165174   2.768   1.642   0.587 -1.0095 -1.8459 -0.3956
14561TIP3    H265175   2.696   1.692   0.711  0.0330  0.2325 -0.5662
14562TIP3   OH265176   6.680   1.990   6.246 -0.1482 -0.0819  0.4207
14562TIP3    H165177   6.750   2.008   6.309  0.0963 -1.5110  0.5932
14562TIP3    H265178   6.724   1.943   6.175 -0.4364  1.4505 -0.8218
14563TIP3   OH265179   6.717   5.263  14.667  0.2368 -0.0252  0.3591
14563TIP3    H165180   6.788   5.211  14.630 -0.8221  0.0270 -1.8857
14563TIP3    H265181   6.726   5.252  14.762  2.7457 -0.6226  0.1166
14564TIP3   OH265182   2.728   2.791   4.032 -0.0667  0.4428  0.1567
14564TIP3    H165183   2.708   2.784   3.939  0.0987  0.1230  0.1470
14564TIP3    H265184   2.822   2.778   4.039 -0.1924 -0.4085  0.4553
14565TIP3   OH265185   2.681   1.466   3.679 -0.5588 -0.4442 -0.0902
14565TIP3    H165186   2.599   1.514   3.691  0.3039  1.1565 -0.4341
14565TIP3    H265187   2.716   1.498   3.597  0.3459 -1.2439 -0.0330
14566TIP3   OH265188   4.390   1.376  16.117  0.6088  0.4427 -0.0292
14566TIP3    H165189   4.435   1.294  16.134 -0.7087 -1.0221 -2.9012
14566TIP3    H265190   4.306   1.368  16.161  0.9157  0.7570  0.6234
14567TIP3   OH265191   5.943   4.676  16.840  0.2208  0.5271 -0.1012
14567TIP3    H165192   5.854   4.690  16.808  1.1485  1.4516 -2.5271
14567TIP3    H265193   5.973   4.763  16.867 -0.6917 -0.2758  4.1447
14568TIP3   OH265194   4.512   5.869  13.035 -0.2037 -0.0647  0.2276
14568TIP3    H165195   4.428   5.884  12.990  0.1753  1.6719  0.0502
14568TIP3    H265196   4.489   5.864  13.127 -0.7584 -1.8353  0.0286
14569TIP3   OH265197   0.847   6.068   4.741 -0.4628  0.2944  0.0323
14569TIP3    H165198   0.804   6.136   4.792  0.8651  0.4154  1.0559
14569TIP3    H265199   0.810   5.986   4.774 -0.5116  0.4323  0.3247
14570TIP3   OH265200   2.194   1.443   3.456 -0.3118  0.2792 -0.1306
14570TIP3    H165201   2.109   1.399   3.448 -0.1798  0.4084 -3.2731
14570TIP3    H265202   2.172   1.533   3.479 -1.0635  0.3138 -0.9188
14571TIP3   OH265203   6.564   1.170   5.108 -0.7415  0.5322 -0.3736
14571TIP3    H165204   6.651   1.132   5.122 -1.1215 -0.5067 -0.7342
14571TIP3    H265205   6.579   1.240   5.044  0.1021  1.6069  0.9251
14572TIP3   OH265206   6.266   4.346   4.739 -0.0602  0.3645 -0.3320
14572TIP3    H165207   6.182   4.358   4.694 -1.2954 -0.2213  1.6394
14572TIP3    H265208   6.310   4.277   4.690 -1.6663 -0.7620 -0.3149
14573TIP3   OH265209   2.850   3.173  13.288  0.6292  0.3386 -0.2771
14573TIP3    H165210   2.885   3.108  13.350  0.9889  2.1356  1.5221
14573TIP3    H265211   2.928   3.209  13.246  0.5717  0.8752  0.0742
14574TIP3   OH265212   6.576   0.050  14.110 -0.1275 -0.6594  0.1802
14574TIP3    H165213   6.505   0.112  14.095 -0.7500 -1.4257 -0.1484
14574TIP3    H265214   6.605   0.068  14.199  0.8099  1.1770 -0.4571
14575TIP3   OH265215   0.782   6.165  13.412 -0.0783 -0.2790 -0.0185
14575TIP3    H165216   0.826   6.093  13.367 -1.6508 -0.2651 -1.6667
14575TIP3    H265217   0.854   6.220  13.443  1.1239 -1.8664  0.1527
14576TIP3   OH265218   0.669   3.116   2.234 -0.8512  0.1276 -0.3861
14576TIP3    H165219   0.643   3.071   2.153  0.9875 -3.0109  0.5394
14576TIP3    H265220   0.622   3.070   2.303 -0.1867  0.8031  0.5381
14577TIP3   OH265221   3.011   0.138  10.975  0.6597 -0.4389  0.5314
14577TIP3    H165222   2.955   0.130  10.898 -0.9729 -0.0829  1.6189
14577TIP3    H265223   3.033   0.048  10.998 -0.4636 -0.6679  0.7586
14578TIP3   OH265224   1.389   6.283   5.163 -0.6135 -0.1030 -0.6364
14578TIP3    H165225   1.477   6.278   5.200 -0.2514  1.7548 -1.1345
14578TIP3    H265226   1.331   6.265   5.237  0.1629  0.2995  0.0939
14579TIP3   OH265227   5.916   3.620   0.992  0.1774  0.3784  0.0783
14579TIP3    H165228   5.905   3.624   0.897 -2.9496 -0.0489  0.3124
14579TIP3    H265229   5.903   3.528   1.014 -0.8586  0.7289  1.0314
14580TIP3   OH265230   3.142   0.285   6.109 -0.1640 -0.2403  0.5700
14580TIP3    H165231   3.120   0.233   6.186  3.6174 -0.8811  1.4432
14580TIP3    H265232   3.180   0.365   6.145 -1.0846  0.8019 -0.7160
14581TIP3   OH265233   3.431   6.298   2.206  0.2879  0.5261 -0.1466
14581TIP3    H165234   3.491   6.224   2.201 -0.8158 -0.3366 -1.1615
14581TIP3    H265235   3.352   6.263   2.248 -0.4951  0.9165 -1.2409
14582TIP3   OH265236   4.882   1.569  12.398  0.1848  0.2644  0.2340
14582TIP3    H165237   4.954   1.535  12.345  1.4954  2.4739  0.5156
14582TIP3    H265238   4.916   1.571  12.487 -0.2558  1.2114  0.3886
14583TIP3   OH265239   2.959   6.356   5.607  0.0293  0.4596 -0.0453
14583TIP3    H165240   2.883   6.409   5.585  0.2540 -0.0029 -2.1182
14583TIP3    H265241   2.964   6.360   5.703 -2.0405  1.2242  0.0744
14584TIP3   OH265242   4.542   5.046  15.125  0.1058 -0.5069  0.0053
14584TIP3    H165243   4.515   5.131  15.160 -0.3914 -0.6772  0.0409
14584TIP3    H265244   4.521   5.051  15.032  1.9204  0.1470 -0.4069
14585TIP3   OH265245   4.666   0.218  11.578  0.0703 -0.1330  0.5716
14585TIP3    H165246   4.744   0.181  11.619 -0.9641 -0.3147  2.5154
14585TIP3    H265247   4.610   0.245  11.652 -1.5001  0.4379 -0.7447
14586TIP3   OH265248   6.815   3.650   0.225  0.0544  0.2610 -0.5556
14586TIP3    H165249   6.725   3.623   0.207 -0.5420  1.0920  0.9778
14586TIP3    H265250   6.869   3.586   0.178 -1.3176 -1.0254 -0.4625
14587TIP3   OH265251   3.058   3.009  11.057  0.2107  0.0356  0.7428
14587TIP3    H165252   3.058   2.953  10.979 -3.2975 -0.5531  1.0093
14587TIP3    H265253   3.146   3.048  11.058  1.4240 -2.2759 -1.7357
14588TIP3   OH265254   6.741   1.564  13.100  0.6515 -0.2629 -0.1681
14588TIP3    H165255   6.724   1.470  13.094  0.5220 -0.3791  1.6868
14588TIP3    H265256   6.706   1.599  13.018  1.9756 -1.9738 -1.5471
14589TIP3   OH265257   6.103   5.341   3.250 -0.3049  0.3814 -0.7926
14589TIP3    H165258   6.032   5.402   3.269 -1.8008 -1.0757 -1.4623
14589TIP3    H265259   6.075   5.296   3.170  1.5801  0.0507 -1.3093
14590TIP3   OH265260   4.547   0.590   4.865  0.0698 -0.1786  0.3701
14590TIP3    H165261   4.545   0.685   4.853  0.5148  0.1401  2.3933
14590TIP3    H265262   4.621   0.560   4.813  0.8271  0.7967  0.8713
14591TIP3   OH265263   6.087   2.923  16.229  0.6398  0.3820  0.3171
14591TIP3    H165264   6.148   2.935  16.156  0.8943  1.7528  0.7278
14591TIP3    H265265   6.112   2.839  16.267 -0.5160 -1.1786 -2.0980
14592TIP3   OH265266   5.956   4.071   4.002 -0.3045 -0.3036 -0.9691
14592TIP3    H165267   5.885   4.087   4.065  1.2475  0.2371  0.7308
14592TIP3    H265268   5.930   3.989   3.958 -1.4666 -0.7038  0.3696
14593TIP3   OH265269   6.007   5.766   0.527 -0.6826  0.3991 -0.3723
14593TIP3    H165270   6.015   5.692   0.587  0.3207 -0.5831 -1.6594
14593TIP3    H265271   6.091   5.811   0.533 -0.6835  0.4658 -0.7985
14594TIP3   OH265272   0.505   1.183   6.331  0.1511  0.1603  0.6403
14594TIP3    H165273   0.490   1.095   6.366 -0.8202  0.8765  2.1639
14594TIP3    H265274   0.417   1.219   6.320  0.4116  0.1261 -2.3218
14595TIP3   OH265275   1.458   5.300  16.464  0.1492 -0.1313  0.1692
14595TIP3    H165276   1.523   5.364  16.436  1.6710 -2.3053 -1.6097
14595TIP3    H265277   1.505   5.216  16.464 -2.5168 -1.7549 -0.8354
14596TIP3   OH265278   6.437   3.503   1.619 -0.2170  0.0295 -0.0394
14596TIP3    H165279   6.431   3.539   1.708 -2.6751  4.2639 -1.6170
14596TIP3    H265280   6.358   3.449   1.610 -1.0174  1.1782 -0.1604
14597TIP3   OH265281   4.279   4.090   3.214  0.4082 -0.2922 -0.7403
14597TIP3    H165282   4.359   4.136   3.187  0.5791  0.4793  0.9727
14597TIP3    H265283   4.292   4.000   3.182  1.6242  0.0054 -1.1518
14598TIP3   OH265284   1.609   6.212  11.731  0.5956  0.4225 -0.0462
14598TIP3    H165285   1.595   6.145  11.664 -0.1705  0.2245  0.3004
14598TIP3    H265286   1.638   6.289  11.683 -0.9656  0.6122 -0.7249
14599TIP3   OH265287   2.916   5.668  15.321  0.4851 -0.0913 -0.2058
14599TIP3    H165288   2.881   5.584  15.291  0.0197 -0.3982  1.1272
14599TIP3    H265289   3.000   5.646  15.362  1.2597  0.3635 -1.4906
14600TIP3   OH265290   5.137   5.385  15.114  0.4596  0.2499 -0.3979
14600TIP3    H165291   5.137   5.389  15.018 -1.1967 -1.5388 -0.5301
14600TIP3    H265292   5.221   5.346  15.136  1.3083  1.6450 -1.0247
14601TIP3   OH265293   0.544   6.041   5.567  0.2951 -0.1338  0.1527
14601TIP3    H165294   0.510   6.100   5.635 -0.6707 -1.4517  0.8514
14601TIP3    H265295   0.488   5.964   5.572  2.0410 -1.4901 -0.1445
14602TIP3   OH265296   2.731   5.470   0.797  0.5470  1.1210  0.8736
14602TIP3    H165297   2.783   5.516   0.863  0.2760 -0.9509  2.6561
14602TIP3    H265298   2.669   5.417   0.847  0.2487 -0.4974 -1.0532
14603TIP3   OH265299   0.600   0.691  13.587  0.5403 -0.1130  0.1271
14603TIP3    H165300   0.617   0.709  13.679 -0.4552  1.3065  0.0620
14603TIP3    H265301   0.521   0.635  13.588  0.5406 -0.1133  0.1314
14604TIP3   OH265302   5.975   2.390  16.102  0.6155  0.4974 -0.2663
14604TIP3    H165303   5.948   2.351  16.185  1.5963  0.6310  0.1276
14604TIP3    H265304   6.026   2.467  16.126 -0.2629  1.3432 -1.0225
14605TIP3   OH265305   5.135   6.002   2.171  0.1733 -0.4619 -0.1936
14605TIP3    H165306   5.101   6.062   2.104 -0.1528 -0.9192 -0.4412
14605TIP3    H265307   5.083   5.923   2.161  1.8241 -1.4787 -1.1027
14606TIP3   OH265308   4.947   3.416   4.347 -0.2226 -0.1869 -0.1412
14606TIP3    H165309   4.911   3.388   4.432 -0.7382  0.1183 -0.2521
14606TIP3    H265310   5.041   3.419   4.361 -0.3971  1.8635  1.0790
14607TIP3   OH265311   5.399   5.221  13.446  0.0739 -0.3244  0.3737
14607TIP3    H165312   5.308   5.237  13.421 -0.0908  0.8537  1.5761
14607TIP3    H265313   5.395   5.200  13.540  1.0524  0.0092  0.5073
14608TIP3   OH265314   1.888   5.624  13.006 -0.2249  0.1821 -0.4779
14608TIP3    H165315   1.798   5.612  13.035 -0.7873  1.4933 -1.5764
14608TIP3    H265316   1.935   5.655  13.084 -0.6095 -0.9110  0.2066
14609TIP3   OH265317   3.067   1.779   5.083 -0.8611  0.0455 -0.4085
14609TIP3    H165318   3.123   1.708   5.052 -1.0194 -0.1028 -0.3638
14609TIP3    H265319   3.087   1.785   5.177 -0.6885  0.2082 -0.4557
14610TIP3   OH265320   1.592   3.191   2.319  0.3035  0.2710  0.2727
14610TIP3    H165321   1.512   3.242   2.308 -1.2333 -1.5971  1.8928
14610TIP3    H265322   1.663   3.255   2.318 -1.3611  2.1923  0.5464
14611TIP3   OH265323   5.515   6.119   0.395 -0.2959 -0.5161 -0.3741
14611TIP3    H165324   5.482   6.150   0.311 -2.2775  1.1228  0.9122
14611TIP3    H265325   5.530   6.026   0.382  0.8505 -0.0732 -2.9052
14612TIP3   OH265326   3.360   3.441  12.562  0.2527  0.5346  0.0921
14612TIP3    H165327   3.299   3.442  12.489  0.3128  2.1208  0.0477
14612TIP3    H265328   3.391   3.350  12.565 -0.6921  0.1472 -1.0428
14613TIP3   OH265329   4.975   0.594   0.248  0.7290 -0.0454  0.2129
14613TIP3    H165330   4.977   0.684   0.282  0.8103  0.2872 -0.6294
14613TIP3    H265331   4.987   0.605   0.154 -1.3794 -0.7653 -0.2067
14614TIP3   OH265332   0.540   1.521  16.909  0.5490 -0.0653 -0.1400
14614TIP3    H165333   0.633   1.504  16.899  0.2634 -1.0608 -1.2962
14614TIP3    H265334   0.533   1.573  16.989  2.1164  0.3135 -0.2327
14615TIP3   OH265335   5.403   6.635   0.435 -0.1298  0.2158  0.1885
14615TIP3    H165336   5.364   6.652   0.349 -0.5786  2.5393  0.7675
14615TIP3    H265337   5.332   6.597   0.487 -0.0709 -0.4832 -0.2292
14616TIP3   OH265338   5.047   1.226   1.988 -0.7443  0.1667 -0.9373
14616TIP3    H165339   5.089   1.294   1.936 -0.3626  0.5281 -0.1695
14616TIP3    H265340   4.960   1.261   2.009  0.1869  1.3999  1.2527
14617TIP3   OH265341   3.634   2.133   1.227  0.1714  0.1144 -1.2620
14617TIP3    H165342   3.639   2.040   1.207  0.1033  0.1320 -1.3636
14617TIP3    H265343   3.540   2.152   1.232  0.1876  0.1125 -0.9295
14618TIP3   OH265344   2.442   4.665  12.999  0.2473  0.3831  0.5990
14618TIP3    H165345   2.476   4.596  13.056  1.6030  0.4096 -0.1454
14618TIP3    H265346   2.519   4.714  12.970 -0.0700 -0.8880 -2.8929
14619TIP3   OH265347   5.073   5.013   0.611 -0.3325 -0.7450 -0.2921
14619TIP3    H165348   5.132   5.049   0.678  0.1847 -0.9957 -0.6116
14619TIP3    H265349   5.076   4.919   0.625  0.3699 -0.8622 -1.1470
14620TIP3   OH265350   1.047   3.075  13.865  0.4116 -0.2136 -0.6593
14620TIP3    H165351   1.098   3.068  13.946  1.9205  3.8127 -1.0503
14620TIP3    H265352   0.964   3.112  13.892  0.8348  0.9288 -0.8744
14621TIP3   OH265353   0.971   2.924  12.944  0.2149 -1.0363 -0.3176
14621TIP3    H165354   1.020   3.003  12.922 -0.4942 -0.2800  0.7554
14621TIP3    H265355   0.879   2.948  12.929  0.0619 -2.0589 -1.1564
14622TIP3   OH265356   2.266   5.754   6.161  0.2952 -0.2544  0.5805
14622TIP3    H165357   2.192   5.775   6.105 -0.3361 -0.1987  1.4193
14622TIP3    H265358   2.269   5.659   6.163  0.8913 -0.2648 -0.2739
14623TIP3   OH265359   0.394   3.100  15.629 -0.0041  0.5889  0.0224
14623TIP3    H165360   0.324   3.106  15.694 -1.1938  0.5056 -1.2127
14623TIP3    H265361   0.415   3.191  15.608 -0.6856  0.6245 -0.5587
14624TIP3   OH265362   2.957   0.214   2.559  0.2729  0.2548 -0.2066
14624TIP3    H165363   3.031   0.271   2.539  0.2302 -0.3008 -2.2187
14624TIP3    H265364   2.881   0.271   2.560  0.3631  0.4099 -1.1892
14625TIP3   OH265365   0.204   2.662   5.605  0.2723 -0.4114  0.9929
14625TIP3    H165366   0.205   2.719   5.682  2.8250 -1.2219  1.6582
14625TIP3    H265367   0.283   2.686   5.557 -1.6456  0.6328 -1.8991
14626TIP3   OH265368   0.070   6.215   1.855 -0.1916 -0.3552  0.0447
14626TIP3    H165369  -0.013   6.166   1.847 -0.4203  0.1476 -0.7907
14626TIP3    H265370   0.137   6.153   1.827 -0.3730 -0.5183 -0.0307
14627TIP3   OH265371   6.243   4.934  12.166 -0.1121 -0.2482 -0.3311
14627TIP3    H165372   6.276   5.023  12.157 -0.9249  0.0196 -0.7668
14627TIP3    H265373   6.294   4.883  12.104 -0.6279  0.1961 -1.1396
14628TIP3   OH265374   2.522   2.403   3.468 -0.4513 -0.0193  0.1992
14628TIP3    H165375   2.534   2.385   3.375  1.0804 -3.3840  0.8938
14628TIP3    H265376   2.467   2.332   3.500  0.3955  0.1212  2.1364
14629TIP3   OH265377   3.636   6.300   5.081  0.4431  0.1969  0.4896
14629TIP3    H165378   3.688   6.231   5.121  0.0624 -0.3360  0.0850
14629TIP3    H265379   3.615   6.267   4.993 -0.1440  0.6124  0.4623
14630TIP3   OH265380   2.653   4.163  15.183  0.0981  0.0311 -0.4069
14630TIP3    H165381   2.598   4.135  15.109 -1.0257 -0.5820  0.6151
14630TIP3    H265382   2.726   4.209  15.143  0.7120 -2.2141 -2.0391
14631TIP3   OH265383   2.587   4.067   1.094 -0.1550  0.1432  0.1757
14631TIP3    H165384   2.529   4.025   1.032 -0.1620  0.3799  0.0185
14631TIP3    H265385   2.559   4.159   1.095 -0.7818 -0.0414  1.2449
14632TIP3   OH265386   0.266   1.203   0.418 -0.0325 -0.0486 -0.0324
14632TIP3    H165387   0.246   1.239   0.332 -0.2667  3.5914  1.3894
14632TIP3    H265388   0.222   1.118   0.419 -1.4937  0.5535 -2.8712
14633TIP3   OH265389   4.859   4.327   4.250 -0.4615 -0.1813 -0.2427
14633TIP3    H165390   4.869   4.288   4.163  1.6011 -1.8895  0.6704
14633TIP3    H265391   4.915   4.405   4.248 -2.5864  1.4202 -1.2491
14634TIP3   OH265392   5.029   5.939   4.017  0.8031  0.8237 -0.4033
14634TIP3    H165393   4.959   5.986   4.063  0.4368  0.3567 -0.4714
14634TIP3    H265394   5.102   6.001   4.015 -0.0763  1.8743 -1.6131
14635TIP3   OH265395   0.639   4.476   2.753  0.1173  0.1704  0.1164
14635TIP3    H165396   0.651   4.571   2.749  0.3945  0.1336  0.0634
14635TIP3    H265397   0.619   4.451   2.663 -0.7844  0.2853  0.2750
14636TIP3   OH265398   6.386   5.733   6.165 -0.5305  0.5392 -0.7559
14636TIP3    H165399   6.422   5.809   6.210 -2.3191  1.2666 -0.4928
14636TIP3    H265400   6.342   5.768   6.088 -0.6607 -0.3130 -1.0867
14637TIP3   OH265401   1.296   3.730   1.790 -0.0930  0.2595 -0.3686
14637TIP3    H165402   1.219   3.733   1.848 -0.5224  0.7217 -0.9456
14637TIP3    H265403   1.306   3.638   1.768  0.8362 -0.1120  1.4151
14638TIP3   OH265404   3.647   6.453  15.427  0.0509 -0.0221  0.2699
14638TIP3    H165405   3.643   6.498  15.511  0.1842 -2.0158  1.4001
14638TIP3    H265406   3.741   6.439  15.412 -0.0465 -1.3789  0.7868
14639TIP3   OH265407   3.519   5.910   4.152 -0.1667  0.6511  0.2226
14639TIP3    H165408   3.556   5.938   4.068 -0.3989  0.2773 -0.0103
14639TIP3    H265409   3.455   5.977   4.174 -2.9062 -1.0624 -1.7987
14640TIP3   OH265410   5.979   3.864  15.926  0.1213  0.1253  0.1429
14640TIP3    H165411   6.021   3.924  15.864  0.1071 -1.2787 -1.2897
14640TIP3    H265412   5.948   3.792  15.872 -1.0121 -0.5674  1.6528
14641TIP3   OH265413   2.459   4.512   1.964 -0.0850  0.1519  0.8875
14641TIP3    H165414   2.494   4.468   1.887 -2.0745 -1.0761  0.6046
14641TIP3    H265415   2.467   4.606   1.944  2.0557 -0.0803  0.4699
14642TIP3   OH265416   0.235   6.543   3.236  0.1684  0.0803  0.2618
14642TIP3    H165417   0.191   6.572   3.317 -0.6223  4.0293 -1.3656
14642TIP3    H265418   0.191   6.461   3.214 -2.2344  0.8114  1.8951
14643TIP3   OH265419   6.525   4.980   3.723 -0.5321 -0.3628 -0.2650
14643TIP3    H165420   6.507   5.063   3.767 -2.3196 -0.4934 -0.6528
14643TIP3    H265421   6.498   4.994   3.633 -0.6249 -1.2789 -0.3943
14644TIP3   OH265422   4.169   3.968   0.506 -0.9600 -0.1344 -0.0954
14644TIP3    H165423   4.115   4.028   0.556 -2.0108 -2.1016  1.2500
14644TIP3    H265424   4.126   3.883   0.515  1.0338 -1.3200 -1.0135
14645TIP3   OH265425   3.095   6.651  15.119 -0.5102 -0.5414  0.1834
14645TIP3    H165426   3.097   6.636  15.213 -0.5534 -1.0072  0.1135
14645TIP3    H265427   3.135   6.573  15.081  1.7526  0.6392 -0.0861
14646TIP3   OH265428   3.947   0.595  13.099 -0.1612  0.1225  0.6746
14646TIP3    H165429   3.937   0.502  13.078 -1.3465  0.2962  0.3903
14646TIP3    H265430   3.898   0.640  13.030  0.0116  0.9349  1.0764
14647TIP3   OH265431   3.455   1.392  15.937 -0.1279  0.9030  0.0969
14647TIP3    H165432   3.547   1.407  15.957  0.6712 -0.3461 -2.2025
14647TIP3    H265433   3.443   1.431  15.850 -2.0205  1.7897  0.7090
14648TIP3   OH265434   0.584   1.643  13.136 -0.0730 -0.1084  0.0714
14648TIP3    H165435   0.510   1.697  13.108 -1.0392 -0.6776  1.4311
14648TIP3    H265436   0.606   1.676  13.224 -0.5540 -1.7703  0.8477
14649TIP3   OH265437   3.915   4.234  15.115 -0.1347  0.2380  0.0396
14649TIP3    H165438   3.952   4.162  15.063 -0.9817 -0.5746  0.5495
14649TIP3    H265439   3.943   4.216  15.205 -2.9898 -1.3012  0.7395
14650TIP3   OH265440   1.267   2.819   4.547  0.3141 -0.1149  0.2702
14650TIP3    H165441   1.350   2.851   4.514 -0.0512  1.4995  0.8115
14650TIP3    H265442   1.202   2.882   4.513 -0.5376 -0.7260  0.7337
14651TIP3   OH265443   1.010   1.055  13.010  0.0906 -0.1165 -0.4712
14651TIP3    H165444   1.044   1.140  13.038 -1.6144 -0.1417  1.9981
14651TIP3    H265445   0.932   1.077  12.959  0.3341 -0.1820 -0.8733
14652TIP3   OH265446   5.345   3.182  13.391 -0.1475 -0.4554  0.1742
14652TIP3    H165447   5.408   3.116  13.418  0.0643 -0.5926 -0.6427
14652TIP3    H265448   5.360   3.255  13.451  0.9387 -0.3975 -0.1508
14653TIP3   OH265449   2.432   0.866  11.519  0.6382 -0.4074 -0.0252
14653TIP3    H165450   2.441   0.774  11.544  1.2095  0.1745  2.0818
14653TIP3    H265451   2.340   0.873  11.491  0.1382 -1.3180  1.2547
14654TIP3   OH265452   2.501   3.782  11.853  0.6005 -0.1898  0.2500
14654TIP3    H165453   2.480   3.707  11.908  0.2755  0.0953  0.5229
14654TIP3    H265454   2.417   3.809  11.816  0.8974 -0.7047 -0.8203
14655TIP3   OH265455   2.962   4.374   0.100  0.0902  0.2997  0.4795
14655TIP3    H165456   2.952   4.279   0.106  1.7735 -0.0065 -0.6142
14655TIP3    H265457   2.881   4.404   0.058 -0.0951 -0.7690  0.0354
14656TIP3   OH265458   1.350   0.081  10.849  0.3690  0.1030 -0.1976
14656TIP3    H165459   1.443   0.077  10.824  0.1596 -1.0236 -0.8639
14656TIP3    H265460   1.303   0.083  10.766 -0.2391 -0.3562  0.1335
14657TIP3   OH265461   2.283   4.569   6.383 -0.2803  0.1485  0.2108
14657TIP3    H165462   2.204   4.576   6.436 -0.2628 -0.4999  0.3335
14657TIP3    H265463   2.325   4.655   6.390 -0.3150  0.0929  1.1869
14658TIP3   OH265464   6.729   4.320   3.888  0.0409  0.2690  0.0053
14658TIP3    H165465   6.744   4.383   3.817 -0.4442  1.3916  0.8699
14658TIP3    H265466   6.663   4.361   3.943  1.4269  0.0809  1.9005
14659TIP3   OH265467   5.253   1.812  11.689  0.1768  0.3526  0.7026
14659TIP3    H165468   5.159   1.795  11.700  0.1462 -0.6130 -0.7369
14659TIP3    H265469   5.278   1.859  11.768 -1.2706 -0.4039  1.6645
14660TIP3   OH265470   0.882   2.783  14.867 -0.8301  0.2848 -0.2767
14660TIP3    H165471   0.976   2.770  14.852 -0.8823  0.1920 -0.5094
14660TIP3    H265472   0.879   2.848  14.938 -0.5879  1.1279 -1.0164
14661TIP3   OH265473   0.710   2.589   6.195 -0.4524  0.0096 -0.0308
14661TIP3    H165474   0.640   2.633   6.243  0.8653 -0.0952  2.0874
14661TIP3    H265475   0.780   2.653   6.189  1.3018 -1.4528  2.6661
14662TIP3   OH265476   3.780   2.505  11.531  0.1598 -0.0928  0.1222
14662TIP3    H165477   3.782   2.460  11.615  0.1032 -0.5487 -0.1180
14662TIP3    H265478   3.727   2.584  11.547  3.1171  1.7772  1.4403
14663TIP3   OH265479   0.932   6.522   3.907 -0.1214 -0.1511 -0.5185
14663TIP3    H165480   0.977   6.438   3.910  0.0586 -0.1286 -1.9749
14663TIP3    H265481   0.912   6.542   3.999  0.1627 -1.5896 -0.1207
14664TIP3   OH265482   6.709   3.356  11.412 -0.2364  0.0360 -0.5743
14664TIP3    H165483   6.745   3.408  11.339  1.1695 -1.2481 -0.8407
14664TIP3    H265484   6.780   3.297  11.437 -2.2093 -2.8702 -1.2971
14665TIP3   OH265485   1.281   3.242   2.333 -0.1530  0.8023 -0.3608
14665TIP3    H165486   1.312   3.169   2.280 -0.6121  0.2887  0.0681
14665TIP3    H265487   1.205   3.276   2.286 -1.4334 -0.5408  0.6237
14666TIP3   OH265488   1.624   4.120  12.474  0.2394 -0.5066  0.2023
14666TIP3    H165489   1.629   4.089  12.565 -1.1366 -0.3865  0.3380
14666TIP3    H265490   1.591   4.209  12.481 -0.4961 -0.7238 -0.4487
14667TIP3   OH265491   1.654   4.513  13.839  0.1846  0.7022 -0.1450
14667TIP3    H165492   1.679   4.535  13.929 -1.2820 -0.5069  0.6126
14667TIP3    H265493   1.586   4.577  13.817  0.2528  0.7471 -0.2218
14668TIP3   OH265494   3.756   6.617   3.094 -0.1323 -0.1862  0.6288
14668TIP3    H165495   3.743   6.575   3.009  0.3793 -0.3970  0.6488
14668TIP3    H265496   3.795   6.549   3.149  2.4114  0.7579  0.1419
14669TIP3   OH265497   4.383   5.607   0.195 -0.5590  0.0949  0.1896
14669TIP3    H165498   4.341   5.617   0.110 -0.1600 -0.9486 -0.1552
14669TIP3    H265499   4.472   5.640   0.182 -0.8931  1.2185  0.5998
14670TIP3   OH265500   2.687   5.446  16.047 -0.1245 -0.5499  0.6724
14670TIP3    H165501   2.626   5.462  16.119 -2.3118  0.1218 -1.1850
14670TIP3    H265502   2.637   5.470  15.968  1.6419 -2.5466 -1.1869
14671TIP3   OH265503   4.328   0.315   1.839  0.1399  0.0735 -0.2769
14671TIP3    H165504   4.351   0.274   1.922 -0.1384  2.3544  1.0041
14671TIP3    H265505   4.406   0.365   1.814  0.1440 -0.4182 -1.2870
14672TIP3   OH265506   0.745   3.349  13.393 -0.1124 -0.1349  0.0127
14672TIP3    H165507   0.807   3.366  13.463  0.1491  1.3670 -0.5482
14672TIP3    H265508   0.787   3.382  13.314 -0.5586 -1.4499 -0.8172
14673TIP3   OH265509   3.006   2.254   2.642 -0.3048  0.1786 -0.7488
14673TIP3    H165510   3.089   2.277   2.683 -0.5359  2.0858 -1.2629
14673TIP3    H265511   2.974   2.180   2.693  0.3858  1.1554  1.2119
14674TIP3   OH265512   5.657   3.273   5.810  0.4122 -0.2845  0.1534
14674TIP3    H165513   5.571   3.307   5.836  0.3060 -0.5002  0.0870
14674TIP3    H265514   5.701   3.348   5.770 -0.8872 -0.8764 -2.6482
14675TIP3   OH265515   3.491   2.245   2.901  0.1377 -0.1569  0.0470
14675TIP3    H165516   3.458   2.268   2.988  0.4150 -0.2874  0.1882
14675TIP3    H265517   3.522   2.155   2.910  2.2910  0.5521  0.4441
14676TIP3   OH265518   4.259   2.544  15.868 -0.2991 -0.3059  0.5899
14676TIP3    H165519   4.243   2.613  15.803 -2.1874 -0.5667  0.7189
14676TIP3    H265520   4.260   2.463  15.817 -0.4906 -0.3919  0.7194
14677TIP3   OH265521   1.752   0.668  11.021 -0.1673 -0.0770 -0.2899
14677TIP3    H165522   1.794   0.615  10.953  2.5934 -0.5870  1.6440
14677TIP3    H265523   1.751   0.611  11.098 -2.4074  0.7849  0.3776
14678TIP3   OH265524   4.587   3.520  11.847 -0.6036 -0.4652 -0.2987
14678TIP3    H165525   4.630   3.500  11.763 -1.4424 -1.8474 -0.4187
14678TIP3    H265526   4.597   3.441  11.899 -2.7267 -0.7487 -0.2287
14679TIP3   OH265527   0.648   2.338  13.788 -0.0487  0.1921  0.0780
14679TIP3    H165528   0.726   2.329  13.843  0.0781  1.5489  0.1577
14679TIP3    H265529   0.589   2.270  13.819 -0.0079  0.9503  1.9742
14680TIP3   OH265530   5.594   1.353   5.412 -0.0475 -0.3464  0.2180
14680TIP3    H165531   5.657   1.322   5.346  0.0009  3.0064 -1.5680
14680TIP3    H265532   5.648   1.403   5.474 -0.6322  0.6756 -0.0696
14681TIP3   OH265533   0.004   2.053   4.273  0.0555 -0.4535 -0.1965
14681TIP3    H165534  -0.042   2.132   4.243  2.8535  1.7097  0.7120
14681TIP3    H265535   0.049   2.021   4.194 -2.4705 -2.3160 -0.9836
14682TIP3   OH265536   4.761   5.172   3.976 -0.0319  0.3864  0.2649
14682TIP3    H165537   4.729   5.103   4.034  1.2165 -1.0897 -0.7237
14682TIP3    H265538   4.835   5.210   4.024 -0.6652  0.9993  0.7727
14683TIP3   OH265539   0.155   6.815  16.269 -0.3190  0.2375 -0.1531
14683TIP3    H165540   0.092   6.870  16.316  0.1616 -0.0126  0.8237
14683TIP3    H265541   0.102   6.741  16.237 -0.7118  0.5667 -0.2726
14684TIP3   OH265542   6.298   6.394   2.074  0.3707  0.1078 -0.1278
14684TIP3    H165543   6.334   6.443   2.148  0.1528  0.3502 -0.1802
14684TIP3    H265544   6.369   6.334   2.049  0.8299  0.7313 -0.3679
14685TIP3   OH265545   3.943   2.219   2.927 -0.0077  0.0625  0.5250
14685TIP3    H165546   4.007   2.289   2.919  0.8634 -0.9259 -1.9618
14685TIP3    H265547   3.862   2.256   2.893  0.0134  0.3502  0.7818
14686TIP3   OH265548   2.774   6.075  14.903  0.3052 -0.2569  0.1622
14686TIP3    H165549   2.718   6.117  14.967  1.0672  0.1954  0.5433
14686TIP3    H265550   2.781   6.139  14.832 -1.0629 -1.0090 -0.7063
14687TIP3   OH265551   4.477   2.454  12.435 -0.2854 -0.4309 -0.5362
14687TIP3    H165552   4.475   2.370  12.390  0.1113 -0.0715 -1.2451
14687TIP3    H265553   4.430   2.514  12.377  1.5317  0.3906 -1.2663
14688TIP3   OH265554   2.509   4.342   3.643  0.3411  0.0048  0.0872
14688TIP3    H165555   2.452   4.355   3.567  0.1257 -0.8347  0.0944
14688TIP3    H265556   2.552   4.426   3.655  0.5511  0.0951 -1.1124
14689TIP3   OH265557   0.457   3.388   3.085 -0.0754 -0.1024  0.1027
14689TIP3    H165558   0.485   3.461   3.140 -0.7386  1.2643 -1.2826
14689TIP3    H265559   0.361   3.389   3.091 -0.0708 -1.9081  1.3075
14690TIP3   OH265560   6.146   3.235   2.194  0.3747 -0.1925 -0.4931
14690TIP3    H165561   6.117   3.309   2.141  0.2623  0.5483  0.5560
14690TIP3    H265562   6.234   3.216   2.163  1.4954  2.1587  0.9531
14691TIP3   OH265563   1.223   3.495  11.478  0.4097 -0.4570 -0.4405
14691TIP3    H165564   1.318   3.506  11.467  0.3459  0.3091 -0.2652
14691TIP3    H265565   1.213   3.405  11.508  1.1646 -0.2478  0.4710
14692TIP3   OH265566   5.762   2.550   2.902  0.0112 -0.1135  0.1683
14692TIP3    H165567   5.683   2.603   2.913 -0.7916 -1.0378 -0.8525
14692TIP3    H265568   5.761   2.525   2.810  0.8084 -1.1830  0.4320
14693TIP3   OH265569   1.535   2.747   2.153  0.2458  0.0698  0.4602
14693TIP3    H165570   1.544   2.781   2.064  0.6381 -2.7490 -0.6669
14693TIP3    H265571   1.583   2.810   2.207 -0.9573  2.4756 -1.0817
14694TIP3   OH265572   2.243   5.531  12.003 -0.1032  0.5948  0.6304
14694TIP3    H165573   2.304   5.538  11.930 -1.9657  1.3215 -0.9267
14694TIP3    H265574   2.192   5.452  11.985  0.5193 -0.1844  2.0838
14695TIP3   OH265575   6.239   4.542   0.656 -0.0418 -0.5156  0.6326
14695TIP3    H165576   6.286   4.461   0.673  0.1329 -0.3520  0.9366
14695TIP3    H265577   6.149   4.514   0.638  0.2452 -0.8592 -0.3259
14696TIP3   OH265578   1.671   0.946   1.328 -0.3213  0.1000 -0.1282
14696TIP3    H165579   1.743   0.993   1.287  0.2249  0.8302  1.6052
14696TIP3    H265580   1.703   0.921   1.414 -1.7805 -0.4791  0.2909
14697TIP3   OH265581   3.346   5.917  13.484 -0.2691 -0.2654  0.2944
14697TIP3    H165582   3.359   5.822  13.485 -0.5759 -0.3497 -0.9835
14697TIP3    H265583   3.428   5.952  13.449  1.0591  0.2541  3.5618
14698TIP3   OH265584   5.780   6.589   3.275  0.0407 -0.1343 -0.2389
14698TIP3    H165585   5.735   6.661   3.229  0.7215 -0.4251 -1.3966
14698TIP3    H265586   5.786   6.619   3.366 -1.1596  0.5501 -0.3668
14699TIP3   OH265587   1.682   5.689   1.720 -0.1306  0.0838  0.1738
14699TIP3    H165588   1.747   5.618   1.720 -1.5702 -1.2907  0.1233
14699TIP3    H265589   1.715   5.751   1.785  0.2355 -1.5682  1.6547
14700TIP3   OH265590   3.381   1.729   3.413 -0.2736 -0.3161 -0.4222
14700TIP3    H165591   3.401   1.648   3.460  1.0781 -2.0185 -3.6509
14700TIP3    H265592   3.452   1.788   3.437 -0.3855 -0.6276  0.7306
14701TIP3   OH265593   2.950   4.922   4.422 -0.6028  0.2940 -0.1267
14701TIP3    H165594   2.874   4.885   4.378  0.3107 -1.5438 -0.2481
14701TIP3    H265595   3.018   4.924   4.354  0.9275 -2.8744  1.1015
14702TIP3   OH265596   3.135   4.314   0.963 -0.4076  0.1419  0.8887
14702TIP3    H165597   3.146   4.243   0.900 -0.7950  0.5018  0.4066
14702TIP3    H265598   3.044   4.307   0.992 -0.3425  0.2188  1.1181
14703TIP3   OH265599   6.206   4.372   3.847  0.0707  0.1946  0.2163
14703TIP3    H165600   6.269   4.346   3.779  1.3652 -0.7813  1.7208
14703TIP3    H265601   6.183   4.462   3.826  1.0939  0.1883 -1.0244
14704TIP3   OH265602   4.051   0.186   0.249 -0.1523  0.3729  0.6551
14704TIP3    H165603   4.125   0.150   0.297  1.1667 -0.9853 -2.1984
14704TIP3    H265604   4.054   0.280   0.268  1.5629  0.1856  1.5257
14705TIP3   OH265605   2.142   1.289   0.925 -0.2156  0.0440  0.1153
14705TIP3    H165606   2.121   1.216   0.866 -1.9577 -0.0232  0.7775
14705TIP3    H265607   2.228   1.319   0.895  0.7125 -2.4475  0.0110
14706TIP3   OH265608   5.850   3.480  16.403 -0.2854  0.7918 -0.2426
14706TIP3    H165609   5.892   3.565  16.394  1.1541  0.0840 -0.4743
14706TIP3    H265610   5.915   3.417  16.371 -0.4681 -0.5880  1.9254
14707TIP3   OH265611   4.316   1.251   2.252 -0.4752  0.2938  0.2223
14707TIP3    H165612   4.356   1.164   2.242  2.0391  1.4574 -0.7812
14707TIP3    H265613   4.263   1.262   2.173 -0.5656 -0.2192  0.2086
14708TIP3   OH265614   0.609   1.572  15.310 -0.5557  0.0755  0.2587
14708TIP3    H165615   0.533   1.550  15.256  0.6915  0.1978 -1.6476
14708TIP3    H265616   0.667   1.497  15.301 -0.1621  0.2659  1.1641
14709TIP3   OH265617   0.881   6.331   3.117  0.0432 -0.1038 -0.2546
14709TIP3    H165618   0.874   6.257   3.057  1.0614 -0.5061  0.0927
14709TIP3    H265619   0.819   6.395   3.084 -0.1272 -0.7188 -1.1540
14710TIP3   OH265620   6.349   0.448   0.773  0.8420  0.1463  0.3545
14710TIP3    H165621   6.412   0.490   0.714  1.8389  0.4913  1.6219
14710TIP3    H265622   6.378   0.356   0.776  0.3473 -0.0370 -0.2426
14711TIP3   OH265623   3.385   1.927   5.883 -0.3146  0.0484 -0.3757
14711TIP3    H165624   3.451   1.959   5.944 -0.2867  0.3285 -0.5497
14711TIP3    H265625   3.394   1.832   5.884 -1.3324 -0.0690  1.2123
14712TIP3   OH265626   0.533   0.996  13.107 -0.3652  0.3611 -0.2415
14712TIP3    H165627   0.619   1.034  13.090 -0.6080  0.9358 -0.1986
14712TIP3    H265628   0.494   1.054  13.173 -1.0114  0.4316 -0.6828
14713TIP3   OH265629   1.844   4.626  11.148 -0.2330  0.4845 -0.5640
14713TIP3    H165630   1.830   4.631  11.054  2.2271 -0.8338 -1.1005
14713TIP3    H265631   1.756   4.621  11.185 -1.2791  1.3289 -2.7342
14714TIP3   OH265632   1.387   5.737  15.065 -0.3959 -0.0201 -0.0917
14714TIP3    H165633   1.442   5.672  15.108 -0.6352 -0.0137  0.2313
14714TIP3    H265634   1.439   5.817  15.064 -0.9420  0.4021  1.5711
14715TIP3   OH265635   6.192   3.951   4.011 -0.2253 -0.0928 -0.1807
14715TIP3    H165636   6.151   3.867   3.993 -0.5296 -0.2306  1.0501
14715TIP3    H265637   6.120   4.008   4.036 -0.0429  0.6010 -1.1699
14716TIP3   OH265638   4.880   1.890  14.676 -0.0975 -0.4040 -0.1692
14716TIP3    H165639   4.920   1.942  14.747 -0.3948 -0.1839 -0.1584
14716TIP3    H265640   4.867   1.953  14.605  0.9771 -0.8128 -0.7337
14717TIP3   OH265641   3.012   6.210   3.254  0.0312 -0.3797  0.6428
14717TIP3    H165642   2.994   6.142   3.189 -0.2482 -0.6366  0.9851
14717TIP3    H265643   3.021   6.163   3.337  2.4388 -0.2917  0.4984
14718TIP3   OH265644   4.443   6.563   1.458  0.0945 -0.1858 -0.4554
14718TIP3    H165645   4.442   6.587   1.366 -1.9444 -0.7949 -0.6362
14718TIP3    H265646   4.485   6.476   1.460 -0.2938 -0.3855 -0.8807
14719TIP3   OH265647   0.336   2.225   5.576 -0.8264 -0.0338 -0.4080
14719TIP3    H165648   0.347   2.287   5.504  2.9865 -0.3636 -0.3363
14719TIP3    H265649   0.345   2.278   5.655  0.0212 -0.3041 -0.3107
14720TIP3   OH265650   5.258   0.748  16.971 -0.3800  0.7555  0.1723
14720TIP3    H165651   5.297   0.708  17.049  0.8776 -1.2079 -1.3642
14720TIP3    H265652   5.236   0.838  16.998  0.9472  0.4654  2.4540
14721TIP3   OH265653   2.663   1.642  15.547  0.4139 -0.3399  0.4475
14721TIP3    H165654   2.700   1.556  15.566  0.7955 -0.2051  0.3050
14721TIP3    H265655   2.704   1.669  15.465 -0.7397 -0.6305 -0.2503
14722TIP3   OH265656   1.242   2.671   1.938 -0.1738  0.0194  0.3003
14722TIP3    H165657   1.227   2.765   1.933  0.8215  0.1278 -2.0658
14722TIP3    H265658   1.252   2.643   1.847  0.2923 -2.2531  0.9755
14723TIP3   OH265659   2.894   2.350  16.563 -0.4735 -0.4907 -0.4687
14723TIP3    H165660   2.827   2.375  16.626 -0.0275 -0.6878  0.0915
14723TIP3    H265661   2.869   2.395  16.482 -0.5161  0.5236  0.1020
14724TIP3   OH265662   3.297   2.288   2.695 -0.0334  0.0434 -0.6920
14724TIP3    H165663   3.370   2.287   2.758 -1.3351  1.4107  0.9434
14724TIP3    H265664   3.275   2.381   2.686 -1.6621 -0.3434 -1.0110
14725TIP3   OH265665   3.573   3.118   6.274  0.6779  0.2883  0.0350
14725TIP3    H165666   3.632   3.045   6.256  0.5460  0.5169 -1.4343
14725TIP3    H265667   3.494   3.097   6.224 -0.0057  0.6369  0.9292
14726TIP3   OH265668   5.199   5.770   5.192  0.5667  0.4858 -0.5145
14726TIP3    H165669   5.118   5.747   5.237 -0.6263  0.8329 -2.3776
14726TIP3    H265670   5.267   5.760   5.259 -1.1393  1.5240  1.4806
14727TIP3   OH265671   5.640   2.075   4.827 -0.2332 -0.1645 -0.0405
14727TIP3    H165672   5.635   2.058   4.921 -1.7952 -0.3849 -0.1348
14727TIP3    H265673   5.608   2.164   4.816  0.0429 -0.1006 -0.3529
14728TIP3   OH265674   3.148   4.137   2.107  0.1049  0.1553 -0.6856
14728TIP3    H165675   3.201   4.069   2.149 -0.5553  0.2136  0.2752
14728TIP3    H265676   3.100   4.090   2.039 -2.9818 -1.1891  2.1539
14729TIP3   OH265677   0.201   3.705  10.396 -0.4080 -0.4958  0.2049
14729TIP3    H165678   0.116   3.748  10.384 -0.0941  0.1300  0.1807
14729TIP3    H265679   0.238   3.748  10.474  0.0801 -0.4477 -0.0523
14730TIP3   OH265680   2.349   4.185   2.436  0.1206 -0.5842  0.1273
14730TIP3    H165681   2.365   4.172   2.343  0.7367  0.7273  0.0276
14730TIP3    H265682   2.259   4.218   2.440 -0.1635 -1.3244  0.0776
14731TIP3   OH265683   3.258   4.670  11.723 -0.2712  0.3200  0.3236
14731TIP3    H165684   3.333   4.638  11.771 -1.4653 -0.3279  1.8369
14731TIP3    H265685   3.291   4.744  11.672  0.7347  2.3124  3.5876
14732TIP3   OH265686   4.655   0.316  15.479  0.0396 -0.1398  0.1659
14732TIP3    H165687   4.685   0.308  15.389  1.0313 -0.2748  0.5046
14732TIP3    H265688   4.735   0.317  15.532 -0.5641 -1.1933  1.1344
14733TIP3   OH265689   3.886   0.752  13.511 -0.4664 -0.0488  0.2037
14733TIP3    H165690   3.802   0.771  13.468  0.4202  0.3400 -1.4500
14733TIP3    H265691   3.913   0.836  13.548 -0.7131 -0.1280  0.5640
14734TIP3   OH265692   6.457   6.809  16.276 -0.3334  0.2971 -0.0700
14734TIP3    H165693   6.387   6.865  16.310 -1.5259 -1.6815  0.8970
14734TIP3    H265694   6.536   6.861  16.287 -1.2840  1.5117  1.5338
14735TIP3   OH265695   6.519   5.153   1.075  0.6096  0.4320  0.4229
14735TIP3    H165696   6.432   5.193   1.088  0.7920  1.2598 -0.7522
14735TIP3    H265697   6.510   5.100   0.996  0.7435 -0.8255  1.2276
14736TIP3   OH265698   5.198   4.236  14.773  0.1954 -0.3141  0.5538
14736TIP3    H165699   5.185   4.262  14.682 -0.2393  1.1423  1.0108
14736TIP3    H265700   5.187   4.141  14.773  0.1758 -0.3222 -0.9031
14737TIP3   OH265701   4.403   0.559   0.385 -0.4868  0.2229 -0.2037
14737TIP3    H165702   4.495   0.583   0.376 -0.2780 -0.9476 -1.5185
14737TIP3    H265703   4.404   0.463   0.392 -1.5435  0.2642  0.8955
14738TIP3   OH265704   2.699   6.527  16.750  0.1579 -0.0915  0.2092
14738TIP3    H165705   2.656   6.477  16.681 -0.8551  0.3673  0.4949
14738TIP3    H265706   2.781   6.557  16.710  0.4410 -1.3568 -0.1922
14739TIP3   OH265707   6.681   1.398   0.653  0.0603  0.3720  0.4585
14739TIP3    H165708   6.728   1.477   0.625  0.4841  0.0462  0.2491
14739TIP3    H265709   6.611   1.388   0.589  1.4136 -0.7432 -0.9127
14740TIP3   OH265710   3.499   0.480  11.819 -0.5148  0.4151 -0.6000
14740TIP3    H165711   3.522   0.470  11.911 -0.8023 -1.1414 -0.6760
14740TIP3    H265712   3.489   0.575  11.807 -1.0572  0.6084  1.1124
14741TIP3   OH265713   6.353   1.147  15.785  0.2126  0.1270 -0.5719
14741TIP3    H165714   6.434   1.158  15.835  0.1461 -0.7301 -0.2622
14741TIP3    H265715   6.325   1.236  15.764  0.5879  0.4768  0.3688
14742TIP3   OH265716   5.606   2.699   2.262 -0.1867 -0.5362 -0.3921
14742TIP3    H165717   5.686   2.748   2.278  0.2623 -1.5264  0.5574
14742TIP3    H265718   5.561   2.698   2.347  0.1384 -2.2837 -0.2058
14743TIP3   OH265719   2.453   2.974  14.081 -0.0417  0.6167 -0.0471
14743TIP3    H165720   2.443   2.893  14.031 -4.3618  0.3066  0.9021
14743TIP3    H265721   2.527   2.957  14.140 -1.6160 -3.3217  1.1141
14744TIP3   OH265722   4.602   4.715   0.159  0.2831 -0.7128 -0.0939
14744TIP3    H165723   4.594   4.795   0.210  1.7981  1.0746 -2.4056
14744TIP3    H265724   4.694   4.690   0.169  0.4764 -0.6274 -1.4180
14745TIP3   OH265725   5.923   3.265  16.044  0.3413  0.4411 -0.6073
14745TIP3    H165726   5.855   3.205  16.013 -1.0462  0.8467  1.4746
14745TIP3    H265727   5.963   3.299  15.963 -1.3369 -0.4542 -1.8900
14746TIP3   OH265728   0.548   2.938   2.416  0.2206  0.2387 -0.5195
14746TIP3    H165729   0.494   2.968   2.489 -0.8585 -0.7447 -0.8788
14746TIP3    H265730   0.560   2.845   2.431  0.5446  0.1502 -1.2507
14747TIP3   OH265731   2.991   3.692  13.732 -0.7184  0.4562 -0.0547
14747TIP3    H165732   2.940   3.613  13.713  1.9008 -1.6036  0.8143
14747TIP3    H265733   3.058   3.693  13.664  0.1018  1.1648  0.7459
14748TIP3   OH265734   6.651   5.845  12.266  0.8052  0.2633 -0.5460
14748TIP3    H165735   6.618   5.767  12.311  0.8338  0.8850  0.5891
14748TIP3    H265736   6.745   5.832  12.262  0.7954  0.1718 -0.4973
14749TIP3   OH265737   1.968   3.334  12.564  0.2820 -0.2482  0.1041
14749TIP3    H165738   1.985   3.335  12.658  0.5097  0.4267  0.0604
14749TIP3    H265739   1.913   3.411  12.549 -1.1243 -1.2603 -0.0703
14750TIP3   OH265740   6.573   2.480  12.192  0.2475 -0.2614  0.2372
14750TIP3    H165741   6.505   2.543  12.168 -0.2009 -0.1687  1.6775
14750TIP3    H265742   6.633   2.479  12.117 -0.9261  0.2205 -0.7298
14751TIP3   OH265743   3.806   5.674   2.946  0.1583 -0.8636  0.1196
14751TIP3    H165744   3.820   5.745   3.008  1.0075 -0.0488 -0.9588
14751TIP3    H265745   3.876   5.612   2.965  0.1083 -0.8614  0.3135
14752TIP3   OH265746   4.499   3.574  14.131 -0.2224 -0.3197  0.4971
14752TIP3    H165747   4.572   3.520  14.100 -0.2207 -0.1499  0.2063
14752TIP3    H265748   4.438   3.576  14.057 -0.6142 -0.6208  0.8031
14753TIP3   OH265749   2.952   2.340  15.108 -0.0004  0.2832 -0.2443
14753TIP3    H165750   2.862   2.350  15.077 -0.6404  1.2058  1.7416
14753TIP3    H265751   3.005   2.381  15.040 -1.2310  1.1810 -0.6959
14754TIP3   OH265752   0.085   2.442  12.814  0.1251 -0.1108  0.4887
14754TIP3    H165753   0.101   2.450  12.909 -1.0564  0.8658  0.6348
14754TIP3    H265754   0.071   2.349  12.800  2.2014 -0.5302  0.9412
14755TIP3   OH265755   5.959   3.814   0.106  0.1487  0.1148  0.7555
14755TIP3    H165756   5.878   3.789   0.061  0.1870  1.0835  0.1204
14755TIP3    H265757   6.029   3.790   0.046  0.2349  0.8180  0.5601
14756TIP3   OH265758   3.392   6.361  16.731  0.3438 -0.1345  0.5082
14756TIP3    H165759   3.449   6.438  16.727 -1.4467  1.2313  0.3312
14756TIP3    H265760   3.428   6.302  16.665  1.7490  0.5397  0.6359
14757TIP3   OH265761   5.309   0.259   2.094 -0.0737 -0.2441 -0.6972
14757TIP3    H165762   5.222   0.259   2.134  0.5978 -2.7106  1.0025
14757TIP3    H265763   5.331   0.166   2.084  2.5514  0.2924 -0.5902
14758TIP3   OH265764   3.694   4.954  11.904  0.0914  0.1921 -0.5054
14758TIP3    H165765   3.711   5.010  11.828 -0.2228  0.6588 -0.2420
14758TIP3    H265766   3.741   4.996  11.976 -1.9921  1.4711  0.2235
14759TIP3   OH265767   1.394   2.703   3.406 -0.0522 -0.6041  0.1836
14759TIP3    H165768   1.315   2.656   3.379 -0.0226  0.1410 -1.3012
14759TIP3    H265769   1.456   2.686   3.336  0.8578 -0.5216  0.9505
14760TIP3   OH265770   5.215   0.233  14.786 -0.8987  0.2046 -0.0492
14760TIP3    H165771   5.237   0.163  14.848 -0.9873 -0.7310 -1.0466
14760TIP3    H265772   5.130   0.208  14.751 -0.9578  0.8450 -0.3687
14761TIP3   OH265773   3.835   4.288   4.487 -0.4672 -0.2520  0.0915
14761TIP3    H165774   3.903   4.238   4.441  0.0619  2.4833 -2.3921
14761TIP3    H265775   3.788   4.334   4.418 -2.8843  0.3416  2.0029
14762TIP3   OH265776   2.590   3.129  16.681 -0.2411 -0.4736  0.5061
14762TIP3    H165777   2.581   3.218  16.647  0.0844 -1.3196 -1.9826
14762TIP3    H265778   2.661   3.135  16.745  0.1120  0.9585  0.0324
14763TIP3   OH265779   5.109   2.843   5.251 -0.3454 -0.3178  0.5357
14763TIP3    H165780   5.152   2.763   5.279 -1.4829 -1.9060 -1.8837
14763TIP3    H265781   5.116   2.842   5.155 -2.2179  1.3878  0.2985
14764TIP3   OH265782   4.801   2.424   1.187 -0.2160 -0.2994 -0.0118
14764TIP3    H165783   4.871   2.485   1.165  0.1532 -0.4226  0.7935
14764TIP3    H265784   4.780   2.444   1.279 -0.2220 -1.2536  0.1985
14765TIP3   OH265785   6.734   4.426  14.778  0.3442  0.4803  0.0463
14765TIP3    H165786   6.690   4.402  14.859 -0.2845  0.4989 -0.2779
14765TIP3    H265787   6.783   4.505  14.800  0.1337  0.5169  0.3963
14766TIP3   OH265788   5.249   1.185  13.374  0.1839  0.3416  0.2534
14766TIP3    H165789   5.324   1.202  13.318 -0.5786 -0.1690 -0.9635
14766TIP3    H265790   5.176   1.230  13.332 -0.0103  1.8555  2.0565
14767TIP3   OH265791   5.288   1.856   4.736  0.3885 -0.9392 -0.4796
14767TIP3    H165792   5.196   1.877   4.753  0.7504  0.8672 -0.5776
14767TIP3    H265793   5.332   1.875   4.819  0.8141 -0.8786 -0.7197
14768TIP3   OH265794   3.487   0.122  15.807  0.5706 -0.0760 -0.1452
14768TIP3    H165795   3.425   0.077  15.749 -0.9594 -0.4723  1.6854
14768TIP3    H265796   3.522   0.193  15.754 -1.6511  0.3223 -1.2172
14769TIP3   OH265797   4.968   0.949   4.552  0.3047 -0.4618  0.3838
14769TIP3    H165798   4.904   0.978   4.487  0.6955 -1.6241 -0.5523
14769TIP3    H265799   5.051   0.988   4.523  0.5036 -1.0821  0.0835
14770TIP3   OH265800   0.842   3.366  10.224  0.1799 -0.2008  0.0699
14770TIP3    H165801   0.846   3.427  10.297  0.2767 -2.4649  2.0552
14770TIP3    H265802   0.916   3.391  10.168  1.3771  0.3331  1.8000
14771TIP3   OH265803   0.564   3.330   0.067  0.2162 -0.3439  0.2197
14771TIP3    H165804   0.533   3.251   0.023  0.3857  1.0163 -2.5294
14771TIP3    H265805   0.651   3.307   0.098  1.3913 -0.5400 -2.9069
14772TIP3   OH265806   0.625   6.801   2.503 -0.1177 -0.4026 -0.2433
14772TIP3    H165807   0.596   6.797   2.412 -0.4296 -1.4323 -0.1052
14772TIP3    H265808   0.688   6.873   2.504 -0.1148 -0.3713 -1.2670
14773TIP3   OH265809   2.023   6.637   0.758  0.6405  0.2024  0.2580
14773TIP3    H165810   2.104   6.688   0.762  0.8044 -0.1169  1.3832
14773TIP3    H265811   2.020   6.590   0.841 -1.0498  0.7484  0.5520
14774TIP3   OH265812   0.381   4.394  13.122  0.0657  0.4215  0.2832
14774TIP3    H165813   0.405   4.324  13.182  2.9661  2.6244  1.9508
14774TIP3    H265814   0.334   4.458  13.176 -1.5313  0.3802 -0.9514
14775TIP3   OH265815   5.160   2.403  16.348  0.1779  0.8431 -0.1688
14775TIP3    H165816   5.154   2.340  16.276 -0.7855 -1.0971  1.5009
14775TIP3    H265817   5.070   2.435  16.359  0.0511  0.1107  1.0005
14776TIP3   OH265818   4.080   1.854   3.954 -0.2219  0.6631 -0.2514
14776TIP3    H165819   3.986   1.848   3.970 -0.3744  0.9288 -1.0025
14776TIP3    H265820   4.090   1.928   3.895  0.3189 -0.1368 -1.1990
14777TIP3   OH265821   6.153   3.846   2.654  0.3989  0.5193  0.0886
14777TIP3    H165822   6.087   3.835   2.722  0.7709 -0.8794  0.2401
14777TIP3    H265823   6.159   3.761   2.611  2.0578  0.6153  0.0422
14778TIP3   OH265824   2.212   5.845  15.146 -0.0146  0.1481  0.1185
14778TIP3    H165825   2.184   5.883  15.229  0.7803 -1.4141  1.1533
14778TIP3    H265826   2.182   5.908  15.080  2.9356  3.6326  1.7579
14779TIP3   OH265827   1.905   0.423   3.114 -0.0426 -0.3530  0.2008
14779TIP3    H165828   1.855   0.451   3.191  0.2025  0.4653  0.0761
14779TIP3    H265829   1.848   0.359   3.071 -0.5496 -0.1819  0.6000
14780TIP3   OH265830   1.065   1.051  15.891 -0.5854  0.4620 -0.5682
14780TIP3    H165831   1.074   1.071  15.799  0.8692 -0.9599 -0.7880
14780TIP3    H265832   1.154   1.051  15.925 -0.9888 -0.2041  0.5653
14781TIP3   OH265833   0.335   6.622   3.841 -0.5545 -0.0147 -0.0971
14781TIP3    H165834   0.332   6.534   3.879 -0.9683  0.3280  0.6676
14781TIP3    H265835   0.279   6.675   3.897 -0.2624  0.7584 -0.5212
14782TIP3   OH265836   1.211   0.725   6.226 -0.2922 -0.0391  0.0013
14782TIP3    H165837   1.123   0.759   6.242 -0.3086  0.3208 -0.8051
14782TIP3    H265838   1.201   0.630   6.228 -0.6826  0.0009 -0.0195
14783TIP3   OH265839   4.319   6.428   3.168 -0.4606 -0.2014 -0.6417
14783TIP3    H165840   4.368   6.460   3.092  0.9375  0.3874  0.4721
14783TIP3    H265841   4.381   6.434   3.241 -2.4473  1.3287  1.0050
14784TIP3   OH265842   3.975   3.716  16.759 -0.0257  0.2286 -0.2457
14784TIP3    H165843   3.984   3.785  16.825  1.3975 -0.1490 -0.0124
14784TIP3    H265844   4.055   3.665  16.767 -1.9526 -2.8467  1.1296
14785TIP3   OH265845   3.212   3.064  12.117  0.5391 -0.0788  0.0141
14785TIP3    H165846   3.177   3.032  12.200  0.5328 -1.4058 -0.4880
14785TIP3    H265847   3.301   3.030  12.114  0.9620  0.9849  0.0175
14786TIP3   OH265848   4.636   0.329   1.026 -0.6364 -0.1188 -0.1225
14786TIP3    H165849   4.664   0.420   1.027  1.8012 -0.8185  0.1329
14786TIP3    H265850   4.544   0.332   1.052 -0.6067  2.2446 -0.1085
14787TIP3   OH265851   3.945   0.340  15.063  0.3774 -0.5426  0.2484
14787TIP3    H165852   3.979   0.323  15.151 -1.2184 -3.1685  0.4643
14787TIP3    H265853   3.933   0.253  15.025 -1.9260  0.4092 -1.4085
14788TIP3   OH265854   3.690   2.504  10.560  0.2407 -0.2767 -0.0389
14788TIP3    H165855   3.770   2.554  10.576 -0.5238  0.7643  0.6646
14788TIP3    H265856   3.635   2.520  10.637 -1.0247 -0.2063 -0.9175
14789TIP3   OH265857   4.152   4.196   5.750  0.0270 -0.5419  0.0472
14789TIP3    H165858   4.116   4.204   5.662 -0.3103 -1.7989  0.0491
14789TIP3    H265859   4.094   4.134   5.794  0.4211 -0.2271  1.0359
14790TIP3   OH265860   2.031   5.536   2.542  0.3288 -0.0093  0.3181
14790TIP3    H165861   1.962   5.495   2.490 -1.2852  2.5949  0.2154
14790TIP3    H265862   2.087   5.580   2.478 -1.4619  2.9073  0.5416
14791TIP3   OH265863   2.795   3.092  14.036 -1.2021 -0.0621 -0.6919
14791TIP3    H165864   2.873   3.050  13.999  0.2702  1.8127  0.0879
14791TIP3    H265865   2.725   3.075  13.973 -0.2881 -2.1509 -1.2208
14792TIP3   OH265866   4.118   5.581   4.977  0.3787 -0.4484 -0.3245
14792TIP3    H165867   4.186   5.522   5.011 -1.4597 -2.6571 -0.2452
14792TIP3    H265868   4.099   5.641   5.049  1.8874 -0.0522 -0.2072
14793TIP3   OH265869   0.490   1.054  12.461 -0.2962  0.0509 -0.7748
14793TIP3    H165870   0.508   1.096  12.377  0.3775 -1.8669 -1.6509
14793TIP3    H265871   0.394   1.054  12.468 -0.3297  0.8445 -1.2155
14794TIP3   OH265872   2.537   5.943   5.355 -0.1453  0.6373 -0.4177
14794TIP3    H165873   2.523   6.037   5.344  1.9221  0.8978 -1.3063
14794TIP3    H265874   2.491   5.921   5.436  0.1865  2.6263  0.3649
14795TIP3   OH265875   6.206   4.213  14.309  0.1491 -0.0607  0.1762
14795TIP3    H165876   6.119   4.179  14.331  0.1053  1.2088  2.1812
14795TIP3    H265877   6.261   4.187  14.383  1.2309  0.1412 -0.5339
14796TIP3   OH265878   0.096   5.577   1.119  0.1862 -0.2202  0.1578
14796TIP3    H165879   0.155   5.502   1.129  1.7570  0.9794  0.2334
14796TIP3    H265880   0.065   5.571   1.028  1.3323 -0.2260 -0.2392
14797TIP3   OH265881   0.459   6.561  15.655 -0.0089  0.1178  0.0426
14797TIP3    H165882   0.513   6.635  15.683 -0.3452  0.0259  0.9646
14797TIP3    H265883   0.500   6.530  15.574  0.8529  0.5339  0.3134
14798TIP3   OH265884   5.418   5.109   6.505 -0.0926 -1.0474 -0.0167
14798TIP3    H165885   5.512   5.092   6.513  0.6790  2.1637 -0.9599
14798TIP3    H265886   5.402   5.185   6.561 -1.6280 -0.0257 -1.7421
14799TIP3   OH265887   1.491   3.231  14.731  0.1894  0.2689  0.5850
14799TIP3    H165888   1.499   3.161  14.667 -2.3388 -0.5758  1.0691
14799TIP3    H265889   1.409   3.275  14.708  0.9484  2.1402  1.2122
14800TIP3   OH265890   4.658   3.080  13.067  0.2856 -0.4829  0.0313
14800TIP3    H165891   4.734   3.022  13.076  1.4145  0.8700 -0.4933
14800TIP3    H265892   4.694   3.163  13.038 -1.1151  1.0127  2.2708
14801TIP3   OH265893   4.951   2.298  14.237 -0.0156 -0.1724 -0.2651
14801TIP3    H165894   4.998   2.229  14.190 -0.6367 -1.6645  1.2494
14801TIP3    H265895   4.868   2.258  14.263 -0.3088  1.0786  0.8309
14802TIP3   OH265896   2.067   5.898  16.841  0.2276  0.4685  0.3421
14802TIP3    H165897   2.155   5.911  16.806  0.4557  1.1075  1.1109
14802TIP3    H265898   2.080   5.893  16.936 -0.5425  0.3372  0.4441
14803TIP3   OH265899   6.544   4.207  13.971  0.0867  0.5313  0.0801
14803TIP3    H165900   6.495   4.285  13.999  1.7346  1.2500  1.0987
14803TIP3    H265901   6.523   4.198  13.878  0.7352  2.9025 -0.3763
14804TIP3   OH265902   3.615   1.677   0.333 -0.0742  0.5357  0.3179
14804TIP3    H165903   3.698   1.639   0.307  0.1655  1.0532  0.3249
14804TIP3    H265904   3.638   1.755   0.385 -0.5550  0.6067  0.4399
14805TIP3   OH265905   6.144   6.521   6.089 -0.4981  0.2574 -0.2584
14805TIP3    H165906   6.139   6.611   6.058  0.8649  0.8225  1.0337
14805TIP3    H265907   6.090   6.519   6.168 -0.3696 -0.0038 -0.1735
14806TIP3   OH265908   3.202   6.302  15.461 -0.0226 -0.7000 -0.9992
14806TIP3    H165909   3.163   6.218  15.487  0.7148 -0.8840 -0.4507
14806TIP3    H265910   3.295   6.293  15.483 -0.4770  1.5856  2.6191
14807TIP3   OH265911   4.524   5.503   3.012 -0.4154  0.0047  0.0755
14807TIP3    H165912   4.435   5.482   2.982 -1.1532  2.8965 -0.0434
14807TIP3    H265913   4.521   5.596   3.034  1.4244 -0.7427  4.4620
14808TIP3   OH265914   1.912   0.120  16.728  0.2242  0.1294 -0.3517
14808TIP3    H165915   1.940   0.169  16.652  0.4777 -0.9881 -1.0066
14808TIP3    H265916   1.990   0.069  16.754 -0.3773 -0.8945 -0.4903
14809TIP3   OH265917   6.720   2.323  16.590 -0.1308  0.1217  0.5781
14809TIP3    H165918   6.664   2.399  16.576  2.2899  1.9027  0.0895
14809TIP3    H265919   6.700   2.265  16.517 -1.1900  0.7928  0.3143
14810TIP3   OH265920   5.872   3.051   6.025  0.5477 -0.3538  0.5938
14810TIP3    H165921   5.959   3.026   6.055  0.4720  0.6664  1.7360
14810TIP3    H265922   5.847   3.125   6.081 -1.1498 -0.7823  0.4689
14811TIP3   OH265923   6.172   2.288   6.252 -0.5178 -0.0952  0.1039
14811TIP3    H165924   6.222   2.208   6.239 -1.5792 -0.8784  0.6974
14811TIP3    H265925   6.123   2.300   6.171  0.8370  0.8706 -0.6225
14812TIP3   OH265926   1.934   2.089   5.183  0.1293  0.1556 -0.4877
14812TIP3    H165927   1.857   2.120   5.136  0.5752  1.0499 -0.6673
14812TIP3    H265928   1.904   2.013   5.232 -0.7347  0.1812 -0.9562
14813TIP3   OH265929   3.904   0.964  16.191 -0.3460 -0.5120  0.0765
14813TIP3    H165930   3.885   0.970  16.285 -0.3592  0.6056  0.0105
14813TIP3    H265931   3.842   0.899  16.159  0.7454 -2.1489  1.1183
14814TIP3   OH265932   6.059   3.412   4.958 -0.2151  0.3315  0.1269
14814TIP3    H165933   6.054   3.494   4.910  1.2161  1.4255  1.7128
14814TIP3    H265934   5.968   3.390   4.978 -0.9709 -0.6803 -3.6944
14815TIP3   OH265935   0.584   0.985   4.305  0.2797  0.6011 -0.0127
14815TIP3    H165936   0.499   0.966   4.345  0.9059 -1.3321  0.5166
14815TIP3    H265937   0.563   1.011   4.216 -0.8860  0.0890  0.0914
14816TIP3   OH265938   1.531   0.935  11.862  0.5888  0.2931 -0.4051
14816TIP3    H165939   1.496   0.966  11.946 -0.8511  0.0214 -0.8710
14816TIP3    H265940   1.600   0.874  11.886  0.2739  0.3047  0.5830
14817TIP3   OH265941   2.338   4.560   5.305  0.0428 -0.6740 -0.4663
14817TIP3    H165942   2.296   4.499   5.244  1.7367 -3.5550  1.0053
14817TIP3    H265943   2.282   4.560   5.382 -0.4305  0.4241 -0.7949
14818TIP3   OH265944   6.254   2.388   4.683  0.0818 -0.0830 -0.4203
14818TIP3    H165945   6.328   2.447   4.674 -0.1667  0.2745 -0.1650
14818TIP3    H265946   6.205   2.398   4.602 -0.4997  0.8230  0.0290
14819TIP3   OH265947   6.437   6.569  16.382 -0.4597 -0.3146 -0.5078
14819TIP3    H165948   6.355   6.575  16.431 -0.2998 -0.1421 -0.2602
14819TIP3    H265949   6.442   6.651  16.333  0.3654  0.4195  0.7416
14820TIP3   OH265950   3.072   5.356  12.601  0.1318  0.1552 -0.0403
14820TIP3    H165951   3.107   5.396  12.521  1.0392  1.8121  1.1364
14820TIP3    H265952   3.148   5.347  12.658 -0.2851 -2.1254  0.2380
14821TIP3   OH265953   5.849   2.611   4.481 -0.4104 -0.4351 -1.0877
14821TIP3    H165954   5.805   2.694   4.498 -1.0555 -0.9928  0.0181
14821TIP3    H265955   5.842   2.563   4.563 -0.0335 -1.5865 -1.7184
14822TIP3   OH265956   2.802   5.661  11.442  0.0048 -0.3137  0.4489
14822TIP3    H165957   2.735   5.698  11.500  0.4322 -0.3097  0.9440
14822TIP3    H265958   2.752   5.613  11.376 -0.4807 -0.5664  0.9936
14823TIP3   OH265959   4.201   0.913  11.524 -0.2295 -0.0429 -0.0570
14823TIP3    H165960   4.282   0.864  11.529 -0.2591 -0.0003  1.2191
14823TIP3    H265961   4.226   1.004  11.543 -0.3758  0.2191 -1.0530
14824TIP3   OH265962   5.313   4.076   3.979  0.4215  0.0130 -0.0756
14824TIP3    H165963   5.242   4.125   4.020  0.6091 -1.1701  1.7412
14824TIP3    H265964   5.288   3.984   3.989  1.1658 -0.3666 -1.4170
14825TIP3   OH265965   5.262   5.690  17.253  0.1234 -1.0801 -0.3420
14825TIP3    H165966   5.176   5.650  17.244 -0.0400 -0.7350 -0.3153
14825TIP3    H265967   5.246   5.770  17.304  0.6782 -1.8128  1.0505
14826TIP3   OH265968   6.485   2.549   2.681 -0.6145 -0.3942  0.1055
14826TIP3    H165969   6.416   2.559   2.746 -1.0907  1.3503 -0.6154
14826TIP3    H265970   6.440   2.556   2.597  0.5211  1.9559 -0.3868
14827TIP3   OH265971   6.493   2.108   1.003 -0.7391 -0.5330  0.2675
14827TIP3    H165972   6.449   2.193   1.015 -1.6132 -0.7845 -0.9704
14827TIP3    H265973   6.510   2.104   0.909 -0.3690 -1.5709  0.3750
14828TIP3   OH265974   3.596   5.228   3.977  0.5754 -0.2305  0.2331
14828TIP3    H165975   3.611   5.262   3.889 -1.2739 -0.8255 -0.3568
14828TIP3    H265976   3.664   5.161   3.989  0.9690 -0.0053 -0.6637
14829TIP3   OH265977   5.869   4.764  11.483  0.0040  0.0658 -0.2180
14829TIP3    H165978   5.868   4.695  11.417 -0.7007  0.1770 -0.3358
14829TIP3    H265979   5.823   4.726  11.558 -3.3322  1.3989 -1.3768
14830TIP3   OH265980   2.616   0.392  14.595 -0.7530  0.3348 -0.2597
14830TIP3    H165981   2.608   0.297  14.590  0.9574  0.1719 -0.6630
14830TIP3    H265982   2.692   0.406  14.652 -0.5155  1.4355 -0.8185
14831TIP3   OH265983   3.254   3.020   1.216  0.2740  0.0284 -1.2061
14831TIP3    H165984   3.163   3.040   1.191 -0.7400  1.3788  2.8141
14831TIP3    H265985   3.254   2.926   1.234 -0.7544  0.2458  0.0625
14832TIP3   OH265986   5.527   4.242  16.642  1.0318 -0.4962  0.4474
14832TIP3    H165987   5.468   4.180  16.684  0.6638  0.2852  1.1016
14832TIP3    H265988   5.578   4.188  16.581  0.9611 -1.5032  1.2395
14833TIP3   OH265989   1.176   2.848   0.318  0.7213  0.4210  0.2631
14833TIP3    H165990   1.261   2.820   0.284 -0.0310  0.1158 -1.5227
14833TIP3    H265991   1.115   2.781   0.287 -0.2737  0.9839  0.9362
14834TIP3   OH265992   5.026   2.980  12.607 -0.1573  0.3706  0.3757
14834TIP3    H165993   4.960   2.938  12.662  0.1028 -0.9614 -0.3099
14834TIP3    H265994   4.977   3.044  12.555 -1.0631 -1.1492 -0.6998
14835TIP3   OH265995   1.483   1.208   5.467  0.6746 -0.1526 -0.2481
14835TIP3    H165996   1.424   1.223   5.393 -1.2695  2.1530  1.5752
14835TIP3    H265997   1.449   1.130   5.510 -0.3315  0.4455  0.0775
14836TIP3   OH265998   6.577   5.817   2.379 -0.2139  0.0375 -0.4637
14836TIP3    H165999   6.547   5.908   2.385 -3.2800 -0.9489  2.5273
14836TIP3    H266000   6.629   5.803   2.458  1.5038 -0.5133 -1.6283
14837TIP3   OH266001   1.755   3.531  14.596 -0.1112 -0.3056  0.0197
14837TIP3    H166002   1.759   3.467  14.667 -2.0000 -1.0399 -0.4597
14837TIP3    H266003   1.687   3.592  14.623 -0.3780 -0.2086 -0.8265
14838TIP3   OH266004   0.926   6.362  14.060 -0.0308 -0.8680 -0.2378
14838TIP3    H166005   0.876   6.306  14.119 -0.2654 -0.9813 -0.5420
14838TIP3    H266006   1.011   6.319  14.053 -0.0560 -0.9392 -0.1108
14839TIP3   OH266007   6.097   4.571  12.986  0.1022 -0.2106  0.6006
14839TIP3    H166008   6.147   4.636  13.036  1.1067 -1.6769  1.5913
14839TIP3    H266009   6.149   4.491  12.992 -1.7005 -1.4515  0.5092
14840TIP3   OH266010   6.823   0.383   4.598  1.0897 -0.0347 -0.0759
14840TIP3    H166011   6.860   0.398   4.511  1.0148  2.4054  0.2393
14840TIP3    H266012   6.750   0.323   4.582  0.4480  1.1108 -1.8963
14841TIP3   OH266013   1.620   6.417   1.238 -0.0656 -0.0072  0.0717
14841TIP3    H166014   1.615   6.445   1.147  0.0702  0.8813  0.3310
14841TIP3    H266015   1.654   6.327   1.234  0.7705  0.3322 -0.7051
14842TIP3   OH266016   3.564   4.313  16.200 -0.4535 -0.0702  0.2043
14842TIP3    H166017   3.648   4.356  16.216  0.2254 -1.0266 -0.6511
14842TIP3    H266018   3.580   4.258  16.123 -2.0555  0.2385 -0.3750
14843TIP3   OH266019   1.534   1.391  14.577  0.0020 -0.3499  0.1315
14843TIP3    H166020   1.629   1.388  14.569  0.3457  1.0282  2.5174
14843TIP3    H266021   1.506   1.300  14.576  1.3745 -0.7830 -0.2686
14844TIP3   OH266022   5.555   2.808   1.098 -0.4250 -0.6025 -0.2725
14844TIP3    H166023   5.488   2.873   1.077 -0.5154 -0.2774  0.9444
14844TIP3    H266024   5.598   2.843   1.176 -0.0704 -1.7124  0.0435
14845TIP3   OH266025   5.746   4.952  13.268  0.5629 -0.0074 -0.0780
14845TIP3    H166026   5.718   5.042  13.249 -1.6036 -1.0494 -2.5366
14845TIP3    H266027   5.817   4.936  13.205 -0.8496 -0.7695 -1.5592
14846TIP3   OH266028   3.889   0.152  15.867  0.0849  0.0766  0.4862
14846TIP3    H166029   3.810   0.187  15.826 -1.8744 -0.2014  3.6516
14846TIP3    H266030   3.946   0.228  15.876 -0.3237  0.5592 -0.7020
14847TIP3   OH266031   0.703   1.695   0.227  0.2897  0.1761  0.2294
14847TIP3    H166032   0.731   1.784   0.247  0.5435  0.5720 -1.7004
14847TIP3    H266033   0.611   1.704   0.202  0.6613  0.1284 -1.2379
14848TIP3   OH266034   3.983   6.434   1.117  0.6353  0.0087 -0.6325
14848TIP3    H166035   3.947   6.359   1.069  0.1932  0.3439 -0.8390
14848TIP3    H266036   3.909   6.467   1.167  0.8328  0.2983 -0.5320
14849TIP3   OH266037   3.139   3.257  15.125  0.1906  0.1357  0.0207
14849TIP3    H166038   3.109   3.293  15.209 -0.4213  0.9188 -0.5291
14849TIP3    H266039   3.140   3.162  15.139 -1.7423  0.1226  0.3319
14850TIP3   OH266040   5.685   4.586  13.206  0.2080 -0.1078  0.0679
14850TIP3    H166041   5.697   4.656  13.143 -0.2536  1.0045  1.1732
14850TIP3    H266042   5.769   4.578  13.250  0.0646  0.2366  0.4105
14851TIP3   OH266043   2.369   0.023   4.672 -0.5943 -0.1323 -0.0912
14851TIP3    H166044   2.403   0.105   4.709 -2.2623  0.8329 -0.5842
14851TIP3    H266045   2.280   0.016   4.707 -1.0324 -0.9188 -1.2866
14852TIP3   OH266046   2.588   6.115  12.356  0.3033  0.2115  0.3957
14852TIP3    H166047   2.564   6.024  12.372 -1.9888  0.3826 -1.5725
14852TIP3    H266048   2.591   6.154  12.443 -2.5348 -0.9000  1.0872
14853TIP3   OH266049   4.226   1.945  16.781  0.2727 -0.0429  0.1502
14853TIP3    H166050   4.256   2.013  16.720  1.5507  0.1928  1.0132
14853TIP3    H266051   4.148   1.909  16.739 -0.1062  1.5580 -0.5973
14854TIP3   OH266052   6.035   0.778  15.567  0.4367  0.8255 -0.6663
14854TIP3    H166053   6.125   0.808  15.558  0.2078  1.1389 -2.1337
14854TIP3    H266054   5.982   0.857  15.560  0.0279  0.6284  0.0665
14855TIP3   OH266055   1.494   4.267   3.964  0.0777  0.0431  0.1701
14855TIP3    H166056   1.425   4.296   4.024  1.0368  1.5609  0.5876
14855TIP3    H266057   1.458   4.284   3.877  0.0881  1.2645  0.3942
14856TIP3   OH266058   1.500   0.055   3.947  0.5253  0.1862  0.6460
14856TIP3    H166059   1.528   0.106   4.023 -0.6723 -0.4430  1.5367
14856TIP3    H266060   1.415   0.092   3.922  1.2723  0.9534 -0.9657
14857TIP3   OH266061   4.315   0.248   3.458  0.0152 -0.1023  0.2055
14857TIP3    H166062   4.335   0.283   3.371 -1.5362  0.8856  0.2211
14857TIP3    H266063   4.362   0.164   3.461 -0.7762 -0.6916 -2.0013
14858TIP3   OH266064   1.388   2.044   3.517 -0.0475  0.0921  0.4422
14858TIP3    H166065   1.386   2.137   3.495  0.0018  0.1179  0.5462
14858TIP3    H266066   1.323   2.034   3.586  1.0247  0.3357  1.5231
14859TIP3   OH266067   5.640   4.128   1.936  0.4976  0.9383  0.0576
14859TIP3    H166068   5.699   4.063   1.975 -0.3596 -0.2469 -0.5269
14859TIP3    H266069   5.658   4.123   1.842 -1.2649 -0.2851 -0.2687
14860TIP3   OH266070   2.835   6.660  13.388  0.2415 -0.3578 -0.7709
14860TIP3    H166071   2.794   6.742  13.360  0.6707 -0.3471 -1.3842
14860TIP3    H266072   2.912   6.688  13.438  0.5832 -0.3793 -1.2742
14861TIP3   OH266073   4.190   5.137  13.049 -0.1529  0.0048  0.3955
14861TIP3    H166074   4.186   5.184  13.132  0.0403  0.9697 -0.1236
14861TIP3    H266075   4.150   5.196  12.986 -0.3165 -0.7239 -0.2005
14862TIP3   OH266076   5.151   1.251  12.564 -0.1103  0.0633  0.1525
14862TIP3    H166077   5.191   1.324  12.518 -0.3536  1.7191  2.3994
14862TIP3    H266078   5.134   1.186  12.496  3.1403  0.6915 -1.4168
14863TIP3   OH266079   0.610   5.331  16.214 -0.1525  0.1978 -0.2022
14863TIP3    H166080   0.705   5.340  16.222 -0.0326 -0.3257 -0.8958
14863TIP3    H266081   0.575   5.416  16.239  0.3198 -0.2819  2.4259
14864TIP3   OH266082   1.998   1.568   4.203  0.2999 -0.3935  0.0968
14864TIP3    H166083   2.022   1.524   4.285 -0.3308 -1.5047 -0.2997
14864TIP3    H266084   2.081   1.606   4.172  0.8135 -1.0794  0.5871
14865TIP3   OH266085   4.306   2.473  12.981  0.5307 -0.3791  0.0153
14865TIP3    H166086   4.214   2.498  12.972  0.5746 -0.4180 -0.6310
14865TIP3    H266087   4.306   2.378  12.975  0.7745 -0.3041 -1.8549
14866TIP3   OH266088   6.203   5.084   0.252 -0.4442 -0.2506 -0.1606
14866TIP3    H166089   6.112   5.073   0.226 -0.5215 -1.0478  0.4307
14866TIP3    H266090   6.199   5.123   0.339 -0.1988  0.3755 -0.4159
14867TIP3   OH266091   4.699   6.162  11.746 -0.6796  0.0902 -0.5297
14867TIP3    H166092   4.704   6.202  11.833 -0.4911  1.9714 -1.3649
14867TIP3    H266093   4.623   6.202  11.705 -0.2040 -0.0566 -1.5836
14868TIP3   OH266094   4.474   2.563  16.039 -0.6094  0.2511 -0.3031
14868TIP3    H166095   4.424   2.539  15.961 -0.0824  0.1516 -0.6095
14868TIP3    H266096   4.495   2.480  16.081 -0.1978  0.2646 -0.4850
14869TIP3   OH266097   4.474   3.643   0.544  0.1772  0.2340  0.0206
14869TIP3    H166098   4.457   3.737   0.549 -2.8155 -0.2821  1.4640
14869TIP3    H266099   4.421   3.613   0.470  1.0073 -0.3874 -0.3451
14870TIP3   OH266100   1.978   0.326   3.915  0.0033  0.0471  0.5368
14870TIP3    H166101   1.971   0.249   3.971  2.0292 -1.4243 -1.1092
14870TIP3    H266102   1.923   0.307   3.839 -0.4203  0.7698  0.6448
14871TIP3   OH266103   2.354   2.687   3.153  0.1397 -0.2865  0.2168
14871TIP3    H166104   2.327   2.741   3.228  2.3218 -0.3280  1.1089
14871TIP3    H266105   2.297   2.715   3.082 -2.5122 -0.7669  2.0361
14872TIP3   OH266106   4.891   1.754   3.492  0.1890 -0.0593 -0.0230
14872TIP3    H166107   4.818   1.717   3.442  0.3750  0.2227 -0.5150
14872TIP3    H266108   4.923   1.826   3.438 -1.8207  2.6078  2.0506
14873TIP3   OH266109   4.927   4.311  14.325 -0.2085  0.4239  0.1121
14873TIP3    H166110   4.909   4.238  14.383 -1.3669  0.3429 -0.3145
14873TIP3    H266111   4.915   4.274  14.237 -0.1099  0.9504 -0.1236
14874TIP3   OH266112   1.659   0.445  11.937 -0.5950  0.2941 -0.0228
14874TIP3    H166113   1.745   0.423  11.973 -1.2691  0.4659  1.8012
14874TIP3    H266114   1.626   0.514  11.995 -1.0877  1.8083 -1.9601
14875TIP3   OH266115   6.010   2.535  10.643  0.1850 -0.4044  0.3434
14875TIP3    H166116   6.037   2.626  10.629 -0.2454 -0.4375 -0.7706
14875TIP3    H266117   6.092   2.487  10.654  0.5563 -0.2739 -1.5783
14876TIP3   OH266118   4.653   3.397  15.250  0.0399  0.6246  0.6232
14876TIP3    H166119   4.630   3.480  15.292  2.0612  0.7318  1.6479
14876TIP3    H266120   4.720   3.359  15.307  0.4049 -0.8956 -0.7354
14877TIP3   OH266121   0.697   5.360   1.662 -0.7782 -0.2461  0.2317
14877TIP3    H166122   0.617   5.309   1.645 -0.8890 -0.0296  0.0917
14877TIP3    H266123   0.764   5.294   1.679 -0.7420 -0.4733 -0.6976
14878TIP3   OH266124   1.341   3.672   5.180  0.3821  0.3598  0.5709
14878TIP3    H166125   1.288   3.604   5.221 -1.1257  1.9547  1.3661
14878TIP3    H266126   1.333   3.655   5.086  2.0348 -1.9717  0.7657
14879TIP3   OH266127   3.627   1.914  15.839 -0.1214  0.3373 -0.1215
14879TIP3    H166128   3.642   1.840  15.897 -0.4821  0.5536  0.2547
14879TIP3    H266129   3.651   1.991  15.892  0.3866  0.4833 -0.5527
14880TIP3   OH266130   0.489   3.924   4.538  0.5724  0.3091 -0.2277
14880TIP3    H166131   0.445   3.959   4.461  0.2168  1.6816  0.5627
14880TIP3    H266132   0.478   3.829   4.530 -1.5059  0.5263 -0.6919
14881TIP3   OH266133   0.785   2.890  15.661  0.3425  0.3050 -0.8841
14881TIP3    H166134   0.849   2.834  15.705 -0.2461 -2.2332 -3.0256
14881TIP3    H266135   0.814   2.980  15.680  0.9206 -0.5614  3.3467
14882TIP3   OH266136   4.374   2.422   1.588  0.4677  0.5750  0.1626
14882TIP3    H166137   4.411   2.427   1.500 -0.4335 -0.6518 -0.3235
14882TIP3    H266138   4.286   2.459   1.579  0.0883 -0.2377  0.3435
14883TIP3   OH266139   1.277   2.399   0.612 -0.2739  0.4234 -0.4965
14883TIP3    H166140   1.264   2.355   0.697 -0.6976  0.8716 -0.3248
14883TIP3    H266141   1.205   2.461   0.606  0.1477  0.8870 -0.8767
14884TIP3   OH266142   5.207   2.130  12.591  0.5847 -0.1965  0.3941
14884TIP3    H166143   5.145   2.161  12.525  0.1165  0.6591  1.2090
14884TIP3    H266144   5.156   2.127  12.672  0.8210 -2.4349  0.5084
14885TIP3   OH266145   0.814   2.107   1.027 -0.0593 -0.4128 -0.0920
14885TIP3    H166146   0.851   2.181   1.074  0.9821  0.1086 -1.6400
14885TIP3    H266147   0.878   2.036   1.040 -0.0459 -0.4298 -0.2435
14886TIP3   OH266148   5.082   4.549   3.143  0.4418  0.1125 -0.3392
14886TIP3    H166149   5.079   4.591   3.229  1.5143 -1.8362  0.7035
14886TIP3    H266150   5.150   4.597   3.095  0.1374  0.9238  0.0200
14887TIP3   OH266151   5.090   3.595   4.982  0.4059  0.2308  0.6449
14887TIP3    H166152   5.002   3.562   5.001 -0.0759  1.0839 -0.0762
14887TIP3    H266153   5.119   3.635   5.064  0.4855 -0.8329  1.1466
14888TIP3   OH266154   0.520   4.050   3.647  0.5475 -0.1762 -0.2009
14888TIP3    H166155   0.472   4.002   3.715 -0.7107 -0.9112 -1.5495
14888TIP3    H266156   0.600   3.998   3.634  1.0201  0.2302  1.0257
14889TIP3   OH266157   6.583   0.425  15.913  0.0667  0.7798 -0.2823
14889TIP3    H166158   6.576   0.490  15.983  0.3807  2.2284 -1.5393
14889TIP3    H266159   6.610   0.476  15.836  0.8423 -0.9355 -1.1907
14890TIP3   OH266160   1.298   3.908   4.936  0.0453 -0.0760 -0.0527
14890TIP3    H166161   1.284   3.933   4.845 -2.2509  0.1937  0.3247
14890TIP3    H266162   1.303   3.812   4.934  0.1338 -0.0626 -0.4713
14891TIP3   OH266163   0.397   6.638  12.168 -0.3240  0.1305 -0.3740
14891TIP3    H166164   0.342   6.662  12.093 -0.2037  0.0146 -0.4987
14891TIP3    H266165   0.439   6.556  12.143  0.1987  0.4128 -0.4295
14892TIP3   OH266166   5.003   3.354  12.778  0.6680 -0.0148 -0.4930
14892TIP3    H166167   4.970   3.339  12.867  0.6475 -0.1343 -0.5204
14892TIP3    H266168   5.094   3.325  12.781  0.4700 -0.6875 -0.6939
14893TIP3   OH266169   1.574   1.108   0.288  0.1870 -0.1547 -0.6722
14893TIP3    H166170   1.533   1.094   0.203 -1.1940  0.5999 -0.1782
14893TIP3    H266171   1.508   1.156   0.338  0.3256 -1.8934  1.3332
14894TIP3   OH266172   6.320   1.489  14.557  0.5486  1.1629 -0.0414
14894TIP3    H166173   6.255   1.558  14.567 -0.6186  0.1960 -0.7109
14894TIP3    H266174   6.400   1.536  14.533 -0.0837  2.3151  0.0032
14895TIP3   OH266175   6.462   3.889   1.961  0.2869 -0.2624 -0.0325
14895TIP3    H166176   6.504   3.908   1.877 -1.6560 -1.3608 -1.3262
14895TIP3    H266177   6.388   3.950   1.965 -1.0747 -1.8199 -0.3353
14896TIP3   OH266178   3.294   3.261  11.159  0.1893  0.2270  0.0719
14896TIP3    H166179   3.326   3.178  11.196 -1.3996 -0.6175 -0.3238
14896TIP3    H266180   3.210   3.276  11.204 -1.8093 -0.8148 -2.9587
14897TIP3   OH266181   6.158   4.588  14.420 -0.3755  0.2731 -0.0884
14897TIP3    H166182   6.138   4.636  14.340  0.0386  0.6091  0.0089
14897TIP3    H266183   6.165   4.655  14.487  0.6823  0.1373 -0.0471
14898TIP3   OH266184   2.831   5.536   5.555  0.0309  0.6438  0.3124
14898TIP3    H166185   2.925   5.520   5.549  0.3042  1.4093  2.0003
14898TIP3    H266186   2.821   5.629   5.538 -0.5826  0.3312 -1.1202
14899TIP3   OH266187   1.919   3.316   3.414 -0.2510 -0.5550 -0.4299
14899TIP3    H166188   1.857   3.325   3.486  0.7552  0.1175  0.3778
14899TIP3    H266189   1.937   3.405   3.386 -0.2301 -0.7861 -1.1692
14900TIP3   OH266190   4.638   4.790  14.077 -0.1065 -0.9604  0.0378
14900TIP3    H166191   4.704   4.732  14.040  0.3808 -0.5496  0.2556
14900TIP3    H266192   4.580   4.811  14.004  0.1772 -1.0809 -0.2229
14901TIP3   OH266193   0.287   4.640   5.001  0.4520 -0.0178  0.6734
14901TIP3    H166194   0.243   4.637   5.086  1.8601  0.5627  1.4628
14901TIP3    H266195   0.381   4.643   5.023  0.8762 -0.7070 -0.9253
14902TIP3   OH266196   2.745   3.839  11.757  0.2680 -0.1559  0.6690
14902TIP3    H166197   2.653   3.830  11.782  0.2968  1.1540  1.2935
14902TIP3    H266198   2.766   3.757  11.713 -1.4710 -0.1096 -0.3173
14903TIP3   OH266199   1.447   5.137  11.396 -0.5209 -0.1045  0.0340
14903TIP3    H166200   1.467   5.139  11.490 -0.9796 -1.8722  0.1929
14903TIP3    H266201   1.483   5.219  11.363  1.5312 -0.3875  1.3685
14904TIP3   OH266202   0.467   1.034   4.020 -0.1207  0.0484  0.1546
14904TIP3    H166203   0.512   1.085   3.952  0.0347 -0.4023 -0.0826
14904TIP3    H266204   0.405   1.096   4.059  3.5109  2.1032  3.3770
14905TIP3   OH266205   0.319   1.672  17.132  0.2062 -0.5039  0.1672
14905TIP3    H166206   0.341   1.711  17.047  0.9035 -1.4592 -0.1003
14905TIP3    H266207   0.240   1.720  17.160 -0.1771 -0.3365 -1.1186
14906TIP3   OH266208   2.790   2.054  15.203 -0.3014 -0.0684  0.0395
14906TIP3    H166209   2.747   2.065  15.118 -0.1705 -1.7957 -0.2770
14906TIP3    H266210   2.807   2.144  15.233 -0.4072  0.5656 -1.7162
14907TIP3   OH266211   3.437   5.523  12.172  0.1762  0.1660  0.2471
14907TIP3    H166212   3.357   5.534  12.224 -0.2414  0.3604 -0.4337
14907TIP3    H266213   3.440   5.600  12.115 -0.4662 -1.0131 -1.4650
14908TIP3   OH266214   4.355   4.849  17.031  0.0966 -0.1229  0.1253
14908TIP3    H166215   4.276   4.828  17.080  1.3700  1.3024  3.0043
14908TIP3    H266216   4.375   4.770  16.981 -2.4119 -0.9277  0.2991
14909TIP3   OH266217   5.573   1.791   1.177  0.3339 -0.1557 -0.0017
14909TIP3    H166218   5.650   1.816   1.127  0.7182 -2.2183 -0.5521
14909TIP3    H266219   5.601   1.714   1.227 -0.8937  0.0852  1.1117
14910TIP3   OH266220   5.147   6.297   4.237  0.0086  0.7044  0.4177
14910TIP3    H166221   5.070   6.298   4.181  0.0679  1.4709  0.3335
14910TIP3    H266222   5.115   6.326   4.323  0.0861  0.4234  0.5413
14911TIP3   OH266223   1.590   2.305  12.906 -0.5380 -0.1520 -0.5808
14911TIP3    H166224   1.654   2.342  12.967  0.5467 -1.0320 -1.1490
14911TIP3    H266225   1.524   2.264  12.962 -0.1548  0.0198  0.0079
14912TIP3   OH266226   4.608   4.629  15.613 -0.3464 -0.7079 -0.0907
14912TIP3    H166227   4.596   4.685  15.536  0.6189  0.2647  0.4397
14912TIP3    H266228   4.632   4.544  15.577  0.4996 -0.1635 -0.8735
14913TIP3   OH266229   6.533   1.580   0.070 -0.0293 -0.1824 -0.2191
14913TIP3    H166230   6.532   1.675   0.063  0.7399 -0.0966  0.7005
14913TIP3    H266231   6.602   1.552   0.010  2.1400  0.1163  1.9688
14914TIP3   OH266232   0.089   5.393  15.235  0.5305 -0.2200  0.3542
14914TIP3    H166233   0.119   5.477  15.200 -0.0821 -0.3509 -0.5216
14914TIP3    H266234   0.024   5.416  15.302 -1.7766  0.0559 -1.7992
14915TIP3   OH266235   2.614   5.418   4.616 -0.2268  0.6020  0.0149
14915TIP3    H166236   2.695   5.464   4.592  0.2625  0.1725  0.7881
14915TIP3    H266237   2.634   5.377   4.700 -0.8084 -0.6030 -0.4095
14916TIP3   OH266238   3.048   3.245   1.666 -0.0137 -0.0443 -0.8611
14916TIP3    H166239   3.034   3.332   1.629 -0.8241 -0.4809 -1.6284
14916TIP3    H266240   3.115   3.205   1.609  1.1367  0.4294  0.1149
14917TIP3   OH266241   0.794   3.218  13.918 -0.2961  0.8792  0.1147
14917TIP3    H166242   0.775   3.262  13.835 -0.4736  1.1679  0.3067
14917TIP3    H266243   0.766   3.280  13.985 -1.8289 -0.0490  0.3962
14918TIP3   OH266244   4.485   5.931  15.255  0.0736 -0.4907 -0.3413
14918TIP3    H166245   4.427   5.860  15.228 -2.3854  0.0441  2.9144
14918TIP3    H266246   4.524   5.900  15.337 -1.0266  1.7795  1.1349
14919TIP3   OH266247   4.203   3.173   3.429  0.0266  1.0333  0.5111
14919TIP3    H166248   4.114   3.183   3.461  0.5138  0.2522  2.2482
14919TIP3    H266249   4.258   3.196   3.505  1.3178  1.8380 -0.6101
14920TIP3   OH266250   0.561   3.228   3.464 -0.0546 -0.1915 -0.9076
14920TIP3    H166251   0.497   3.171   3.421 -1.2067 -0.2491  0.7958
14920TIP3    H266252   0.509   3.288   3.517  1.2641 -1.0661  1.5626
14921TIP3   OH266253   0.002   4.003   0.557 -0.1544  0.3934 -0.2287
14921TIP3    H166254   0.052   4.065   0.504 -0.9927  0.4114 -1.0201
14921TIP3    H266255   0.030   3.917   0.527  0.1067  0.3948  0.0078
14922TIP3   OH266256   1.426   0.551  10.908 -0.1138 -0.1587 -0.3076
14922TIP3    H166257   1.485   0.507  10.847 -0.5277 -0.7268 -0.3050
14922TIP3    H266258   1.376   0.611  10.853  1.2659  1.2048 -0.1370
14923TIP3   OH266259   3.346   4.589   4.602  0.0229  0.1361 -0.0512
14923TIP3    H166260   3.260   4.609   4.567  0.5957  0.3895 -1.3972
14923TIP3    H266261   3.404   4.590   4.525  1.1095 -0.6858  0.7204
14924TIP3   OH266262   5.692   2.484  14.447 -0.0696  0.1591  0.4283
14924TIP3    H166263   5.739   2.513  14.525 -1.7097 -0.4389  1.6855
14924TIP3    H266264   5.656   2.564  14.410  0.1614  0.3716  0.6574
14925TIP3   OH266265   4.956   6.532  11.609  0.3199 -0.3489 -0.5347
14925TIP3    H166266   5.022   6.602  11.610  0.6014 -0.5807 -1.9439
14925TIP3    H266267   4.908   6.545  11.691  1.8988  0.0199  0.3888
14926TIP3   OH266268   2.756   0.045   5.803  0.3658  0.1551  0.2279
14926TIP3    H166269   2.802  -0.011   5.866  0.3694  1.0629  1.0617
14926TIP3    H266270   2.824   0.077   5.744  0.2745 -1.1830 -0.6462
14927TIP3   OH266271   4.108   0.142  12.219 -0.5639  0.4302 -0.1605
14927TIP3    H166272   4.067   0.221  12.255 -0.5228  0.4147 -0.0814
14927TIP3    H266273   4.067   0.132  12.132 -0.0882  0.9109 -0.4448
14928TIP3   OH266274   4.855   5.247   0.635 -0.0917 -0.9888 -0.4695
14928TIP3    H166275   4.789   5.184   0.662  1.1736 -1.6956  1.1027
14928TIP3    H266276   4.933   5.195   0.615 -0.0394 -0.2045 -2.6041
14929TIP3   OH266277   5.688   0.891  14.314  0.5105  0.4681  0.1099
14929TIP3    H166278   5.601   0.881  14.276  0.8384 -2.2695 -0.1215
14929TIP3    H266279   5.748   0.890  14.240  0.8613  0.5353  0.3868
14930TIP3   OH266280   6.036   0.282  15.131  0.7009  0.4471  0.0625
14930TIP3    H166281   6.058   0.310  15.042  1.1901 -0.1746 -0.0153
14930TIP3    H266282   6.060   0.357  15.186 -0.1457  1.0650 -0.3776
14931TIP3   OH266283   4.896   1.461   5.112 -0.3410  0.3335  0.4281
14931TIP3    H166284   4.943   1.543   5.126 -1.4245  0.7529  1.8423
14931TIP3    H266285   4.879   1.459   5.018 -0.4440  1.8142  0.3925
14932TIP3   OH266286   1.816   3.012  11.041  0.0165 -0.1374 -0.0591
14932TIP3    H166287   1.762   2.949  10.993 -0.4263 -0.4230  0.7968
14932TIP3    H266288   1.906   2.983  11.027  0.0376  0.7043 -2.0307
14933TIP3   OH266289   0.616   2.372  11.224 -0.3646 -0.3899 -0.0205
14933TIP3    H166290   0.705   2.366  11.259  0.7420  0.6054 -2.4882
14933TIP3    H266291   0.562   2.398  11.299  1.3908 -1.0395  1.5285
14934TIP3   OH266292   4.581   6.148  14.933  0.7104 -0.3192  0.7145
14934TIP3    H166293   4.585   6.121  14.842 -0.3795  0.5133  0.4134
14934TIP3    H266294   4.642   6.089  14.978  0.5743 -1.3241 -0.3922
14935TIP3   OH266295   5.511   5.727  17.068  0.0445 -0.5085  0.5754
14935TIP3    H166296   5.581   5.666  17.091 -0.0355 -0.2238  1.6283
14935TIP3    H266297   5.432   5.686  17.103 -0.2782 -0.6665 -0.3151
14936TIP3   OH266298   4.012   1.965   2.967 -0.2892  0.1682 -0.3018
14936TIP3    H166299   3.977   1.944   3.054  0.9425  0.1945  0.2277
14936TIP3    H266300   3.989   2.057   2.954 -1.8088 -0.2444 -0.6882
14937TIP3   OH266301   1.349   1.287   0.725 -0.0374  0.2191 -0.3092
14937TIP3    H166302   1.429   1.258   0.770 -0.4180 -1.1829 -0.4725
14937TIP3    H266303   1.280   1.276   0.790 -0.3223 -0.0964 -0.6613
14938TIP3   OH266304   2.096   4.874  11.713  0.1812  0.1218  0.7992
14938TIP3    H166305   2.165   4.898  11.651 -0.1231 -1.6876 -0.3260
14938TIP3    H266306   2.135   4.887  11.799  1.7938 -0.4569  0.1966
14939TIP3   OH266307   1.718   2.267   5.625 -0.1812  0.8098 -0.6546
14939TIP3    H166308   1.642   2.258   5.683  0.0443 -2.9775 -0.6904
14939TIP3    H266309   1.681   2.294   5.541 -1.9871 -2.8230 -1.2378
14940TIP3   OH266310   2.250   3.793   0.150  0.2465 -0.1260  0.0912
14940TIP3    H166311   2.268   3.704   0.120 -0.9629 -0.4648  0.3019
14940TIP3    H266312   2.167   3.786   0.198 -0.1982  1.2168 -0.4265
14941TIP3   OH266313   6.759   2.407  11.190 -0.4459 -0.1316  0.4095
14941TIP3    H166314   6.816   2.472  11.150 -1.5687 -0.7538 -2.3916
14941TIP3    H266315   6.677   2.453  11.204 -0.9776 -0.6739 -0.8016
14942TIP3   OH266316   2.672   5.213   3.611 -0.0313  0.3760  0.3938
14942TIP3    H166317   2.582   5.242   3.595  0.0201  0.1891 -0.2687
14942TIP3    H266318   2.685   5.140   3.551  0.1945 -0.3446  1.2956
14943TIP3   OH266319   3.411   1.113  11.692 -0.2469  0.0818 -0.3162
14943TIP3    H166320   3.361   1.047  11.643 -0.0057 -1.3488  1.2753
14943TIP3    H266321   3.483   1.064  11.731 -0.1414  1.2649  1.0543
14944TIP3   OH266322   2.886   4.313   1.094 -0.6738 -0.7106  0.4458
14944TIP3    H166323   2.849   4.278   1.013  1.2156 -2.6787  0.3291
14944TIP3    H266324   2.820   4.373   1.127 -1.6702 -0.1284 -2.3434
14945TIP3   OH266325   1.271   1.399  12.780 -0.0560 -0.1431  0.1306
14945TIP3    H166326   1.216   1.423  12.705  0.7921 -0.5033 -0.6363
14945TIP3    H266327   1.351   1.364  12.740 -0.1671 -1.7418  1.1901
14946TIP3   OH266328   6.000   2.640   0.064  0.9141 -0.3290  0.0692
14946TIP3    H166329   5.977   2.660  -0.027 -0.0373 -1.6354  0.0011
14946TIP3    H266330   5.918   2.610   0.104  1.8043 -2.0453  0.6994
14947TIP3   OH266331   5.547   5.317   2.314 -0.1225  0.4993  0.4903
14947TIP3    H166332   5.613   5.384   2.301  1.0873 -0.6977  0.1889
14947TIP3    H266333   5.591   5.249   2.365 -1.0050 -0.5035 -0.0406
14948TIP3   OH266334   6.095   4.730  17.290  0.7891 -0.0272  0.3765
14948TIP3    H166335   6.050   4.646  17.297  1.7648 -0.4659  1.6286
14948TIP3    H266336   6.072   4.777  17.370  0.1583  0.9831 -0.3613
14949TIP3   OH266337   3.782   0.150   3.443 -0.2619  0.2329  0.0727
14949TIP3    H166338   3.849   0.118   3.383 -1.7475 -0.0270 -1.5380
14949TIP3    H266339   3.721   0.077   3.451 -1.1063  0.9527  0.3273
14950TIP3   OH266340   2.395   4.717   3.123  0.0320 -0.1741  0.6407
14950TIP3    H166341   2.448   4.780   3.074 -2.0938  1.4968  0.3649
14950TIP3    H266342   2.377   4.647   3.060  0.4954  0.0676  0.2292
14951TIP3   OH266343   6.282   5.498   3.368  0.2635 -0.0198  0.1246
14951TIP3    H166344   6.243   5.425   3.321 -0.4957  0.1975  0.4052
14951TIP3    H266345   6.256   5.484   3.459  0.3684  0.4395  0.2261
14952TIP3   OH266346   6.263   4.335  13.766 -0.5104  0.1350  0.2294
14952TIP3    H166347   6.205   4.281  13.820 -0.5566  0.0104  0.0569
14952TIP3    H266348   6.237   4.316  13.676  0.6421 -0.9125  0.0843
14953TIP3   OH266349   1.491   0.769   3.229  0.3343 -0.2793 -0.2500
14953TIP3    H166350   1.548   0.823   3.283  1.3146  0.0537 -1.5720
14953TIP3    H266351   1.412   0.757   3.282  1.6310 -0.8017  1.6464
14954TIP3   OH266352   5.913   4.732  12.337 -0.0269  0.3903  0.2725
14954TIP3    H166353   5.963   4.786  12.398 -0.0811  1.6870 -0.7853
14954TIP3    H266354   5.823   4.760  12.348 -0.1072  0.2572 -0.0353
14955TIP3   OH266355   1.513   2.915   6.145 -0.1680  0.3921 -0.0049
14955TIP3    H166356   1.571   2.840   6.157  1.3966  1.4300 -0.6104
14955TIP3    H266357   1.474   2.930   6.231 -0.9796 -1.4371 -0.0072
14956TIP3   OH266358   1.465   2.891  10.570 -0.5563  0.2447  0.0641
14956TIP3    H166359   1.543   2.836  10.581 -0.3065  0.6628  0.3977
14956TIP3    H266360   1.466   2.950  10.645 -1.5998 -0.2278  0.4565
14957TIP3   OH266361   1.333   5.756   1.048 -0.5293  0.9555 -0.6872
14957TIP3    H166362   1.304   5.846   1.032  2.3204  2.0693 -0.1772
14957TIP3    H266363   1.421   5.765   1.084 -0.8753 -1.9985  1.2966
14958TIP3   OH266364   6.536   5.577   2.647  0.1110 -0.2198 -0.7451
14958TIP3    H166365   6.483   5.567   2.568  1.3534 -0.7948 -1.5282
14958TIP3    H266366   6.588   5.656   2.632 -1.8609  1.5157  0.8606
14959TIP3   OH266367   6.632   4.368   3.240 -0.1723  0.0788  0.3920
14959TIP3    H166368   6.639   4.429   3.167 -1.5585  0.7976  0.8315
14959TIP3    H266369   6.723   4.343   3.259  0.1917 -0.8494 -2.1331
14960TIP3   OH266370   4.002   6.705   1.510 -0.1442 -0.1208 -0.5068
14960TIP3    H166371   4.029   6.698   1.419  2.1683  0.8756  0.0272
14960TIP3    H266372   4.083   6.723   1.558 -1.0290 -2.0647  1.9585
14961TIP3   OH266373   4.771   2.056   2.692 -0.2017  0.0797  0.0280
14961TIP3    H166374   4.793   2.112   2.768 -0.9985  0.6264 -0.1362
14961TIP3    H266375   4.749   1.971   2.731  0.3264  0.0773  0.3357
14962TIP3   OH266376   6.695   5.657  14.773  0.1794  0.7642 -0.7652
14962TIP3    H166377   6.677   5.750  14.790  0.1709  0.6005  0.1979
14962TIP3    H266378   6.790   5.653  14.762  0.4665  0.5872  1.4149
14963TIP3   OH266379   5.317   5.504   6.393  0.3291  0.4766  0.6347
14963TIP3    H166380   5.246   5.448   6.424  0.5725  0.0564  0.4462
14963TIP3    H266381   5.280   5.592   6.391 -0.5597  0.1047 -0.5971
14964TIP3   OH266382   0.433   0.597   2.848 -0.7391 -0.1003 -0.1306
14964TIP3    H166383   0.391   0.682   2.836 -4.4795 -1.6332  0.9690
14964TIP3    H266384   0.415   0.550   2.766 -0.9994 -0.7289  0.2849
14965TIP3   OH266385   2.512   3.639   0.517 -0.3169 -0.4812 -0.0422
14965TIP3    H166386   2.491   3.550   0.488 -2.1934  0.0677 -0.5030
14965TIP3    H266387   2.530   3.630   0.611  3.8787 -1.9626 -0.7600
14966TIP3   OH266388   2.457   6.804  13.342 -0.1496  0.4455 -0.0588
14966TIP3    H166389   2.413   6.756  13.272 -0.1234  0.1495  0.1270
14966TIP3    H266390   2.399   6.878  13.360 -1.3393 -0.7171  1.1888
14967TIP3   OH266391   1.248   2.331  10.978 -0.2288 -0.5040 -0.0131
14967TIP3    H166392   1.301   2.312  11.055  0.7741  0.0015 -0.5585
14967TIP3    H266393   1.297   2.293  10.905  0.1317  1.1651 -0.6984
14968TIP3   OH266394   1.762   6.730   2.858 -0.3760  0.3393 -0.0638
14968TIP3    H166395   1.736   6.809   2.813  0.5511  0.7844  0.1565
14968TIP3    H266396   1.770   6.664   2.790  0.2848  0.8169 -0.4580
14969TIP3   OH266397   3.493   0.452  10.995 -0.2476  0.0655 -0.6449
14969TIP3    H166398   3.439   0.385  10.954 -0.1097  0.1261 -0.9218
14969TIP3    H266399   3.452   0.466  11.081  0.2698 -1.0647 -0.1926
14970TIP3   OH266400   2.057   2.053   5.950 -0.0980 -0.3347  0.0247
14970TIP3    H166401   2.004   1.992   5.899 -0.6097 -0.8750  1.1551
14970TIP3    H266402   2.007   2.135   5.949 -0.2875 -0.4493 -0.0396
14971TIP3   OH266403   6.476   5.383  16.364 -0.3477 -0.3607 -0.0347
14971TIP3    H166404   6.546   5.443  16.339  1.5853 -1.5077  2.1696
14971TIP3    H266405   6.465   5.326  16.289  0.5324  0.3378 -0.7185
14972TIP3   OH266406   2.044   4.444   0.950 -0.0790 -0.0757  0.3635
14972TIP3    H166407   2.068   4.355   0.978  1.3746 -0.1167 -0.8633
14972TIP3    H266408   1.976   4.430   0.883  1.5572 -0.4402 -1.2961
14973TIP3   OH266409   5.382   5.562   4.796  0.3344 -0.7345 -0.0072
14973TIP3    H166410   5.421   5.485   4.837  0.3240 -0.9173 -0.3369
14973TIP3    H266411   5.412   5.636   4.849 -0.5431 -1.0545  0.9566
14974TIP3   OH266412   3.536   5.147  17.120 -0.4066  0.0473 -0.3364
14974TIP3    H166413   3.628   5.121  17.113  0.4511  2.9084 -0.8110
14974TIP3    H266414   3.516   5.138  17.213  0.7968  0.6665  0.0064
14975TIP3   OH266415   6.191   3.097   3.888  0.0180  0.5909  0.1578
14975TIP3    H166416   6.263   3.150   3.923  1.3712 -1.1146  0.0597
14975TIP3    H266417   6.188   3.120   3.795  0.5211  0.5802  0.1352
14976TIP3   OH266418   5.805   2.538  10.444  0.2634 -0.0226  0.9763
14976TIP3    H166419   5.886   2.525  10.493  0.9944  0.5725 -0.0467
14976TIP3    H266420   5.798   2.633  10.434 -1.0484  0.0011  1.8145
14977TIP3   OH266421   5.968   4.489   1.479  0.2196 -0.0075  0.2236
14977TIP3    H166422   5.923   4.409   1.451  0.1896  0.9669 -2.9253
14977TIP3    H266423   6.059   4.463   1.492 -0.1229 -0.8743  0.9554
14978TIP3   OH266424   3.221   6.823   0.080 -0.4601 -0.0844 -0.0448
14978TIP3    H166425   3.301   6.875   0.090 -1.3099  1.0636  1.2257
14978TIP3    H266426   3.227   6.787  -0.008  1.0178  0.7333 -0.3220
14979TIP3   OH266427   6.128   3.882   3.680  0.3603  0.3660 -0.2666
14979TIP3    H166428   6.170   3.836   3.753  1.2728  0.2786 -0.8211
14979TIP3    H266429   6.043   3.839   3.670  1.0788 -1.0549 -0.5899
14980TIP3   OH266430   3.949   4.291  16.416  0.1867 -0.2777  0.1975
14980TIP3    H166431   3.942   4.330  16.329  0.7849  0.7155  0.5833
14980TIP3    H266432   3.895   4.212  16.411  2.6082 -1.9807 -2.0485
14981TIP3   OH266433   2.908   5.852  11.672 -0.1180 -0.0353 -0.6309
14981TIP3    H166434   2.881   5.770  11.631 -0.5845  1.1251 -2.8084
14981TIP3    H266435   3.003   5.845  11.680 -0.1273 -0.6828 -1.0442
14982TIP3   OH266436   1.513   4.126  14.506 -0.1061  0.0186  0.2022
14982TIP3    H166437   1.419   4.115  14.525 -0.0810 -0.4178  0.0993
14982TIP3    H266438   1.556   4.103  14.588 -0.0700 -0.3166  0.0944
14983TIP3   OH266439   3.477   5.039  14.903  0.1699  0.5846 -0.2707
14983TIP3    H166440   3.495   5.126  14.868 -2.1372  0.5572 -1.6451
14983TIP3    H266441   3.464   4.984  14.826 -1.7010 -0.2160  0.5663
14984TIP3   OH266442   3.456   5.800  16.161 -0.2184 -0.3565  0.1869
14984TIP3    H166443   3.448   5.887  16.121 -1.1785  0.2201  1.5665
14984TIP3    H266444   3.546   5.774  16.142  0.5583  1.5596  0.9152
14985TIP3   OH266445   2.479   2.826  16.647  0.6753 -0.0655 -0.0974
14985TIP3    H166446   2.452   2.858  16.561 -0.1493  0.4137  0.3320
14985TIP3    H266447   2.428   2.746  16.659  0.2854  0.2274  0.2250
14986TIP3   OH266448   1.091   4.278  14.075  0.0987  0.0698 -0.5097
14986TIP3    H166449   1.122   4.212  14.137  0.9798  0.0297 -0.9757
14986TIP3    H266450   1.148   4.353  14.089  1.2707 -0.4481 -2.2479
14987TIP3   OH266451   4.039   5.344  15.479 -0.2426  0.1231 -0.1978
14987TIP3    H166452   4.065   5.414  15.538 -0.6432  0.1103 -0.0021
14987TIP3    H266453   3.989   5.284  15.534  0.4228 -0.5127 -0.2783
14988TIP3   OH266454   6.160   4.768   5.308 -0.0639 -0.2014  0.5359
14988TIP3    H166455   6.253   4.751   5.288 -0.2428 -0.3027 -0.2610
14988TIP3    H266456   6.158   4.782   5.402  0.6387 -1.0733  0.6966
14989TIP3   OH266457   4.309   4.462   1.649  0.5150 -0.5516  0.4640
14989TIP3    H166458   4.329   4.441   1.558  1.1873 -1.1655  0.7462
14989TIP3    H266459   4.383   4.428   1.698  0.1242 -0.2832  1.2510
14990TIP3   OH266460   5.249   3.722  16.602  0.2873  0.3616  0.4537
14990TIP3    H166461   5.219   3.792  16.661  0.5164  0.8669 -0.0258
14990TIP3    H266462   5.199   3.735  16.522 -3.6073 -3.1565  1.9901
14991TIP3   OH266463   4.359   5.303  12.518 -0.6471 -0.8237  0.0421
14991TIP3    H166464   4.398   5.360  12.584 -0.7477 -0.3349 -0.3113
14991TIP3    H266465   4.271   5.284  12.552 -0.4495 -1.1329  0.3759
14992TIP3   OH266466   5.074   4.833   1.656  0.7062 -0.1154 -0.3786
14992TIP3    H166467   5.016   4.906   1.636 -1.2489 -0.4886  3.2241
14992TIP3    H266468   5.159   4.875   1.675  0.2917  0.9499 -0.8065
14993TIP3   OH266469   6.583   3.544   0.121  0.0073  0.2018 -0.1983
14993TIP3    H166470   6.570   3.466   0.176  1.5468  0.7747  1.0476
14993TIP3    H266471   6.505   3.547   0.065 -1.8688 -0.2018  2.2235
14994TIP3   OH266472   0.603   6.484  16.987  0.4196 -0.0724 -0.5771
14994TIP3    H166473   0.655   6.554  17.026  0.8163 -0.9313  0.4802
14994TIP3    H266474   0.523   6.481  17.040  0.8152 -1.0343 -0.0269
14995TIP3   OH266475   2.235   1.863   3.309  0.3281  0.2611 -0.1341
14995TIP3    H166476   2.320   1.906   3.295  1.2862 -0.8316  2.0012
14995TIP3    H266477   2.226   1.804   3.234  0.9904  1.0765 -0.8801
14996TIP3   OH266478   5.832   1.239   4.914  0.9638  0.3392 -0.2100
14996TIP3    H166479   5.907   1.285   4.952  1.1637 -0.1156 -0.0546
14996TIP3    H266480   5.808   1.292   4.837  1.7808  0.1948 -0.5770
14997TIP3   OH266481   4.867   5.812   4.969  0.7702 -0.7991 -0.4047
14997TIP3    H166482   4.903   5.844   5.051  1.0676 -3.3977  0.5799
14997TIP3    H266483   4.773   5.803   4.986  0.7957 -1.1117 -0.4263
14998TIP3   OH266484   5.317   6.350  11.961  0.7058  0.2128 -0.2242
14998TIP3    H166485   5.322   6.444  11.976  0.7439  0.2256 -0.3149
14998TIP3    H266486   5.382   6.333  11.893 -0.4949  0.3889 -1.4476
14999TIP3   OH266487   1.756   4.219   1.665 -0.0801  0.1757  0.2354
14999TIP3    H166488   1.686   4.165   1.629  0.2428 -0.6677  0.8334
14999TIP3    H266489   1.722   4.250   1.749 -1.3432  3.1995 -1.2621
15000TIP3   OH266490   1.478   2.720  15.282 -0.1143  0.7868 -0.1696
15000TIP3    H166491   1.440   2.740  15.197 -1.0012 -0.1093 -0.0033
15000TIP3    H266492   1.500   2.806  15.319  0.8063  1.1643 -1.5113
15001TIP3   OH266493   0.161   3.526   4.161 -0.5477 -0.3328  0.2467
15001TIP3    H166494   0.184   3.584   4.233 -0.3256  0.0774 -0.1442
15001TIP3    H266495   0.176   3.438   4.195 -0.3700 -0.1410  0.6732
15002TIP3   OH266496   1.036   1.875  14.453  0.4499  0.2018  0.3355
15002TIP3    H166497   0.954   1.892  14.499  0.0393  1.9798 -0.9409
15002TIP3    H266498   1.020   1.794  14.405 -0.1534 -0.0822  1.0098
15003TIP3   OH266499   2.616   1.317  16.077 -0.1434  0.0118 -0.0619
15003TIP3    H166500   2.596   1.403  16.040 -0.9318  0.2309  0.8410
15003TIP3    H266501   2.694   1.332  16.130  1.5163 -0.4784 -2.2030
15004TIP3   OH266502   4.129   3.420  12.307  0.2639 -0.1025 -0.7196
15004TIP3    H166503   4.124   3.381  12.219  2.2574  0.9444 -1.3646
15004TIP3    H266504   4.041   3.455  12.323 -1.4326 -3.9443 -0.4353
15005TIP3   OH266505   1.080   6.790   5.578  0.3492  0.2072 -0.8472
15005TIP3    H166506   0.987   6.769   5.586  0.4345 -0.2384 -0.9749
15005TIP3    H266507   1.120   6.749   5.655  0.2446  1.6621  0.0263
15006TIP3   OH266508   0.443   6.262  14.997  0.4367  0.0708 -0.4818
15006TIP3    H166509   0.431   6.175  14.959 -3.4868  1.2562 -2.5448
15006TIP3    H266510   0.372   6.271  15.060  0.6751  1.8424 -0.4259
15007TIP3   OH266511   2.294   6.623  14.526  0.0283 -0.5555  0.2036
15007TIP3    H166512   2.348   6.604  14.450  1.7181  1.5902  0.7638
15007TIP3    H266513   2.228   6.554  14.527 -0.0678 -0.6772 -3.1772
15008TIP3   OH266514   1.143   1.608  14.714  0.2551  0.1853 -0.6763
15008TIP3    H166515   1.092   1.681  14.748  0.1543 -0.8375  1.5340
15008TIP3    H266516   1.233   1.642  14.709  0.0561  0.7295 -0.5948
15009TIP3   OH266517   6.272   4.728   2.926 -0.1484 -0.3783 -0.0700
15009TIP3    H166518   6.362   4.751   2.947  0.2440 -0.2454 -1.7136
15009TIP3    H266519   6.280   4.664   2.855 -1.3385 -1.3779  0.6637
15010TIP3   OH266520   1.601   0.827   4.854 -0.0857 -0.3558  0.3499
15010TIP3    H166521   1.542   0.872   4.914 -0.5649 -1.2038  0.5322
15010TIP3    H266522   1.686   0.828   4.899 -1.0443 -3.7075  2.6141
15011TIP3   OH266523   3.792   6.823  15.177  0.2348  0.3408  0.5073
15011TIP3    H166524   3.814   6.775  15.097 -0.3363  0.0185  0.5373
15011TIP3    H266525   3.702   6.797  15.196 -0.9762  3.1476 -0.7537
15012TIP3   OH266526   0.608   0.184   3.684 -0.1571  0.4804 -0.2875
15012TIP3    H166527   0.553   0.263   3.688  0.0302  0.6056 -0.1891
15012TIP3    H266528   0.591   0.139   3.767  1.0213  1.2782  0.4265
15013TIP3   OH266529   2.807   3.105  12.859 -0.6691  0.6014  0.3753
15013TIP3    H166530   2.761   3.084  12.778  0.5360 -0.7077 -0.0191
15013TIP3    H266531   2.758   3.060  12.927 -1.5260  1.4810  0.3678
15014TIP3   OH266532   1.002   0.021   2.707 -0.1958  0.3871  0.5056
15014TIP3    H166533   1.042  -0.055   2.666 -1.8320  0.0732 -0.6127
15014TIP3    H266534   0.986   0.082   2.635 -1.3874  0.6314  0.9545
15015TIP3   OH266535   6.197   2.230   4.873 -0.1288 -0.0865 -0.0448
15015TIP3    H166536   6.220   2.303   4.815  0.4406  0.1979  0.5190
15015TIP3    H266537   6.245   2.155   4.838 -0.5559 -0.1439 -0.5083
15016TIP3   OH266538   5.053   3.547  11.088  0.4859  0.1888 -0.2641
15016TIP3    H166539   5.051   3.632  11.133  2.7414  0.4972 -0.5924
15016TIP3    H266540   4.973   3.504  11.114  0.3244  1.5477  1.6993
15017TIP3   OH266541   3.543   5.442  11.441  0.5477 -0.6777  0.0192
15017TIP3    H166542   3.485   5.381  11.486  0.6621  0.5551  1.9468
15017TIP3    H266543   3.523   5.527  11.479  2.2145  0.0857 -0.7015
15018TIP3   OH266544   3.554   6.519  12.249  0.0969  0.2483 -0.1542
15018TIP3    H166545   3.510   6.497  12.167  0.2924  0.0871 -0.2184
15018TIP3    H266546   3.646   6.529  12.225  0.1455  0.2617  0.0330
15019TIP3   OH266547   4.217   4.156  10.713  0.4519 -0.1473 -0.3968
15019TIP3    H166548   4.139   4.201  10.683 -0.1743 -1.9713 -1.6880
15019TIP3    H266549   4.282   4.169  10.644  1.7009  2.1569  1.0863
15020TIP3   OH266550   5.119   6.057  10.885  0.1636 -0.0004  0.3712
15020TIP3    H166551   5.045   6.082  10.829  0.0525 -1.6814 -0.2860
15020TIP3    H266552   5.166   5.990  10.834  1.8866  0.6907  0.9702
15021TIP3   OH266553   4.181   6.162   2.500  0.7546  0.2568  0.1851
15021TIP3    H166554   4.193   6.072   2.472  0.2324 -0.3768  1.8750
15021TIP3    H266555   4.168   6.211   2.419  1.7797 -1.0465 -0.8150
15022TIP3   OH266556   3.691   4.078  12.487 -0.8084  0.2081 -0.1915
15022TIP3    H166557   3.620   4.086  12.423 -1.5557 -1.8401  0.3127
15022TIP3    H266558   3.732   3.994  12.466 -0.4316 -0.0286  1.3808
15023TIP3   OH266559   1.838   4.915   0.570  0.0529  0.2110 -0.2025
15023TIP3    H166560   1.794   5.000   0.576 -0.5382 -0.1243  0.3142
15023TIP3    H266561   1.826   4.889   0.479 -1.5963 -0.2633  0.1181
15024TIP3   OH266562   0.050   6.392   0.736 -0.2950  0.0895 -0.4529
15024TIP3    H166563   0.041   6.465   0.675  1.1981  0.1987 -0.5780
15024TIP3    H266564   0.040   6.314   0.682 -0.5701  0.1894 -0.5481
15025TIP3   OH266565   2.293   6.381   2.615 -0.1146 -0.3188 -0.2221
15025TIP3    H166566   2.364   6.366   2.552 -1.0972 -2.7749 -0.8648
15025TIP3    H266567   2.291   6.301   2.667 -2.4249 -0.3552 -0.2666
15026TIP3   OH266568   2.497   4.435  17.050  0.1459  0.1012 -0.1372
15026TIP3    H166569   2.520   4.522  17.083  0.8914  0.6387 -1.9431
15026TIP3    H266570   2.508   4.377  17.126  0.4351  1.4534  0.8908
15027TIP3   OH266571   3.185   1.082   0.438  0.5697  0.4414  0.3031
15027TIP3    H166572   3.262   1.034   0.407  0.4309  2.1712 -3.2311
15027TIP3    H266573   3.177   1.156   0.378 -2.1284  2.0852  2.4155
15028TIP3   OH266574   1.401   5.336   4.799 -0.5150  0.2365 -0.7481
15028TIP3    H166575   1.417   5.372   4.711 -2.2077 -1.8262 -2.0031
15028TIP3    H266576   1.430   5.245   4.793 -2.2749 -0.4315  0.2428
15029TIP3   OH266577   1.918   6.571   1.262  0.0226  0.2745  0.4973
15029TIP3    H166578   1.825   6.594   1.261 -0.1084 -0.2468 -1.0390
15029TIP3    H266579   1.953   6.617   1.338 -1.6502 -0.1464  1.5778
15030TIP3   OH266580   2.748   3.685   0.116 -0.2451  0.2946 -0.5150
15030TIP3    H166581   2.665   3.713   0.154  0.2137 -0.2083  0.9564
15030TIP3    H266582   2.732   3.594   0.089 -0.4066  0.4672 -1.0087
15031TIP3   OH266583   6.181   1.261   3.395  0.4904  0.1732  0.0219
15031TIP3    H166584   6.093   1.292   3.419  0.2619 -0.9061  0.6314
15031TIP3    H266585   6.238   1.296   3.463  0.8284  2.1737 -1.1861
15032TIP3   OH266586   2.203   2.290   1.176  0.0847 -0.5170  0.3791
15032TIP3    H166587   2.189   2.255   1.265 -0.6143 -0.2643  0.3782
15032TIP3    H266588   2.151   2.370   1.174  1.0171  0.0837  0.1023
15033TIP3   OH266589   0.702   5.748  15.376  0.1573  0.6343 -0.1121
15033TIP3    H166590   0.797   5.761  15.386  0.3708 -1.3344  0.7688
15033TIP3    H266591   0.678   5.691  15.448 -1.6580  0.8092 -0.5462
15034TIP3   OH266592   5.622   4.183  15.463 -0.1929  0.0887  0.4699
15034TIP3    H166593   5.644   4.136  15.543 -1.1625  1.4105  1.5680
15034TIP3    H266594   5.654   4.272  15.478  0.9561  0.0106 -1.2527
15035TIP3   OH266595   2.229   6.797   0.856  0.6256  0.2861 -0.2108
15035TIP3    H166596   2.171   6.783   0.930 -1.0781  2.9438 -0.9035
15035TIP3    H266597   2.311   6.754   0.881 -0.4828 -0.5164  2.3573
15036TIP3   OH266598   4.334   6.683  14.889 -0.3440 -0.2540  0.4216
15036TIP3    H166599   4.241   6.667  14.877 -0.7676  1.3357  1.3039
15036TIP3    H266600   4.348   6.773  14.858  1.0188 -0.6592 -0.2370
15037TIP3   OH266601   2.209   0.409  13.960  0.2252  0.1291  0.2621
15037TIP3    H166602   2.224   0.373  13.873  0.3313  0.2594  0.2262
15037TIP3    H266603   2.134   0.467  13.950  0.6315  0.6368  0.1207
15038TIP3   OH266604   0.103   4.774   5.946 -0.2138 -0.4107 -0.0542
15038TIP3    H166605   0.152   4.840   5.896  0.2933 -0.4226  0.4132
15038TIP3    H266606   0.169   4.708   5.968 -0.4960 -0.5504  0.3787
15039TIP3   OH266607   2.866   5.648  13.807 -0.3172  0.1900  0.4065
15039TIP3    H166608   2.885   5.595  13.885 -0.6276  0.8482  0.9402
15039TIP3    H266609   2.931   5.718  13.809 -1.1323  0.9591  0.8091
15040TIP3   OH266610   5.171   0.979   1.951  0.1661  0.0481 -0.0861
15040TIP3    H166611   5.158   1.068   1.982  1.8567  0.1762  0.3313
15040TIP3    H266612   5.205   0.989   1.862 -0.5007 -0.2211 -0.3830
15041TIP3   OH266613   6.736   0.033  13.322 -0.0066  0.1466 -0.0847
15041TIP3    H166614   6.735   0.084  13.403 -0.5897  3.4486 -1.9858
15041TIP3    H266615   6.644   0.022  13.298  0.1350 -1.2947 -0.0812
15042TIP3   OH266616   0.526   3.565  13.747  0.3666 -0.4086  0.3874
15042TIP3    H166617   0.503   3.635  13.808 -0.2105 -0.4728  0.2521
15042TIP3    H266618   0.554   3.610  13.668  0.5752 -0.3288  0.5056
15043TIP3   OH266619   3.245   2.424   5.021  0.2259  0.1682  0.7036
15043TIP3    H166620   3.269   2.512   5.051 -0.4011  0.3821  0.6063
15043TIP3    H266621   3.189   2.390   5.091 -2.1611  1.0947 -0.6368
15044TIP3   OH266622   5.688   3.916  11.388  0.1463  0.4695 -0.2684
15044TIP3    H166623   5.742   3.992  11.366 -2.0422  2.4538  0.7977
15044TIP3    H266624   5.702   3.902  11.482 -0.7337  0.6553 -0.1004
15045TIP3   OH266625   2.881   2.842  15.976  0.1430 -0.1965  0.0058
15045TIP3    H166626   2.843   2.809  15.895  1.7186 -0.9214 -0.4882
15045TIP3    H266627   2.816   2.824  16.043 -2.3476  2.6862 -1.3849
15046TIP3   OH266628   4.188   5.305  14.031  0.0403 -0.1435  0.1268
15046TIP3    H166629   4.100   5.329  14.002  0.0798 -0.5446 -0.3324
15046TIP3    H266630   4.174   5.262  14.116 -0.1287  0.4969  0.4320
15047TIP3   OH266631   3.303   4.930   0.013 -0.1581  1.0664  0.2740
15047TIP3    H166632   3.317   4.856   0.071 -3.1061  0.0479 -0.1304
15047TIP3    H266633   3.359   4.913  -0.063 -1.5714 -1.4212 -0.3126
15048TIP3   OH266634   2.270   2.688  14.140  0.2558 -0.0384 -0.2717
15048TIP3    H166635   2.344   2.708  14.199 -0.5336 -0.5727  0.9479
15048TIP3    H266636   2.306   2.697  14.052  1.7443 -0.1459  0.2956
15049TIP3   OH266637   0.527   2.943   1.596  0.3663 -0.2325  0.1387
15049TIP3    H166638   0.565   2.990   1.670 -1.4737 -0.4513  1.2867
15049TIP3    H266639   0.511   2.855   1.629  0.1818 -0.5416 -0.7508
15050TIP3   OH266640   1.929   6.467   3.622  0.0776 -0.2214  0.1581
15050TIP3    H166641   1.965   6.407   3.687 -0.6163 -0.1841  0.5805
15050TIP3    H266642   2.006   6.500   3.575  0.5406 -0.6622  0.5932
15051TIP3   OH266643   5.352   6.565  14.745 -0.6895 -0.3687 -0.5263
15051TIP3    H166644   5.399   6.618  14.681  0.5642  1.0788  1.4722
15051TIP3    H266645   5.260   6.574  14.720 -0.3487  1.1874 -1.3868
15052TIP3   OH266646   6.440   0.047  11.844  0.1603 -0.1374 -0.0353
15052TIP3    H166647   6.488   0.114  11.796 -1.5704  0.0261 -1.6277
15052TIP3    H266648   6.357   0.089  11.867 -0.1861 -1.1442  0.6107
15053TIP3   OH266649   1.002   1.381   6.107 -0.2115  0.6417 -0.4804
15053TIP3    H166650   0.964   1.348   6.188  1.0626  1.0642  0.3160
15053TIP3    H266651   0.961   1.328   6.038  0.4627 -1.4283  0.6134
15054TIP3   OH266652   0.134   5.619   2.739 -0.5193  0.6281 -0.0988
15054TIP3    H166653   0.112   5.694   2.794  1.6896  1.5057 -0.3408
15054TIP3    H266654   0.172   5.555   2.800 -3.5102 -0.9529  0.3424
15055TIP3   OH266655   1.933   1.580  14.898  0.0540 -0.0990  0.3860
15055TIP3    H166656   1.948   1.489  14.925 -1.5593 -1.0415 -1.6278
15055TIP3    H266657   1.848   1.602  14.935 -1.3520 -0.8022 -2.1774
15056TIP3   OH266658   3.034   5.184   6.013 -0.0930 -0.4307  0.2104
15056TIP3    H166659   2.976   5.250   5.975  0.4311 -0.2796 -0.3361
15056TIP3    H266660   3.074   5.140   5.938 -0.4106 -1.3626  0.5634
15057TIP3   OH266661   6.564   5.675  17.022 -0.3077  0.7722 -0.2956
15057TIP3    H166662   6.506   5.601  17.005 -0.0103  0.7068 -1.0834
15057TIP3    H266663   6.540   5.740  16.956  0.3573  0.8274 -0.4950
15058TIP3   OH266664   6.423   5.834  11.282 -0.1712  0.1791 -0.2547
15058TIP3    H166665   6.352   5.811  11.342  1.4258 -0.9964  1.2975
15058TIP3    H266666   6.448   5.751  11.241  1.1930  0.2974  0.2741
15059TIP3   OH266667   3.207   6.227  11.029  0.2296 -0.4447  0.0591
15059TIP3    H166668   3.283   6.228  10.971  1.4391 -1.9428  1.4892
15059TIP3    H266669   3.132   6.218  10.971  1.2087  0.2413 -1.3595
15060TIP3   OH266670   5.063   0.979  16.227 -0.0748 -0.0020  0.3239
15060TIP3    H166671   5.106   1.035  16.162  0.8177 -0.8120  0.1862
15060TIP3    H266672   5.108   1.000  16.309  0.6393 -0.8809  0.1720
15061TIP3   OH266673   3.691   2.148   1.741 -0.8360 -0.3362  0.1239
15061TIP3    H166674   3.721   2.112   1.825 -3.5521 -1.0844  0.8940
15061TIP3    H266675   3.674   2.071   1.687  1.5855  0.1591 -1.4855
15062TIP3   OH266676   3.289   2.144  14.008 -0.0224 -0.0585 -0.1064
15062TIP3    H166677   3.347   2.186  14.072 -0.5259 -1.5872  1.4293
15062TIP3    H266678   3.202   2.173  14.032 -0.2564 -0.9818  0.2197
15063TIP3   OH266679   1.273   0.957  13.035  0.0871 -0.4357 -0.0406
15063TIP3    H166680   1.182   0.961  13.066 -0.1783  1.1974 -0.9157
15063TIP3    H266681   1.323   0.931  13.112 -1.0749 -1.0629  0.5374
15064TIP3   OH266682   2.744   3.832   3.281  0.2104  0.0583 -0.3588
15064TIP3    H166683   2.671   3.866   3.334  2.5821  3.2251  1.1725
15064TIP3    H266684   2.737   3.879   3.198  0.4062  0.1962 -0.2958
15065TIP3   OH266685   5.373   1.069  15.695  0.3023 -0.3737 -0.6888
15065TIP3    H166686   5.318   1.146  15.713 -0.5753 -0.7353 -1.6991
15065TIP3    H266687   5.462   1.104  15.694  0.0436  0.3796  0.1821
15066TIP3   OH266688   0.756   6.614   3.001  0.2925 -0.0704  0.1111
15066TIP3    H166689   0.766   6.686   2.939  0.1875 -0.1375  0.0159
15066TIP3    H266690   0.721   6.656   3.080 -2.1840 -0.3422 -0.7502
15067TIP3   OH266691   3.758   1.855  14.316 -0.3934 -0.2841  0.0702
15067TIP3    H166692   3.718   1.907  14.247  0.4605  0.9020  0.4317
15067TIP3    H266693   3.821   1.799  14.271  0.3758  0.6943 -0.1087
15068TIP3   OH266694   0.178   2.807  15.287  0.5542 -0.6715 -0.1519
15068TIP3    H166695   0.179   2.724  15.238 -1.0772 -0.9670  0.2520
15068TIP3    H266696   0.192   2.781  15.378 -0.6551 -0.6049  0.0683
15069TIP3   OH266697   2.900   0.965  14.626 -0.2752 -0.1259  0.0332
15069TIP3    H166698   2.864   0.977  14.714  0.6286 -0.2148  0.4339
15069TIP3    H266699   2.928   1.053  14.599 -0.3652 -0.1326 -0.0846
15070TIP3   OH266700   5.977   1.905  16.570 -0.2301 -0.7524 -1.0961
15070TIP3    H166701   5.912   1.835  16.577 -2.2010  1.1618  2.4126
15070TIP3    H266702   6.032   1.894  16.648  0.2468  0.7692 -1.1888
15071TIP3   OH266703   0.258   3.218   3.570  0.5290  0.9121 -0.2415
15071TIP3    H166704   0.167   3.213   3.542  0.5966 -0.3602 -0.3202
15071TIP3    H266705   0.285   3.126   3.579  1.1361  1.2351  1.9503
15072TIP3   OH266706   4.552   0.727   5.313 -0.5169  0.2258  0.4000
15072TIP3    H166707   4.510   0.786   5.251 -0.7966  0.2838  0.6418
15072TIP3    H266708   4.550   0.642   5.270  0.9218  0.5916 -0.4467
15073TIP3   OH266709   0.519   2.467  10.854 -0.0134  0.0181 -0.0891
15073TIP3    H166710   0.456   2.490  10.923 -0.7069 -1.2462 -0.2697
15073TIP3    H266711   0.478   2.499  10.774  0.3263  0.5899 -0.0436
15074TIP3   OH266712   1.356   1.313  14.262 -0.7145  0.8133 -0.8108
15074TIP3    H166713   1.287   1.298  14.198 -0.0821 -0.9730 -1.1054
15074TIP3    H266714   1.428   1.351  14.212 -1.1818  1.9734 -0.6357
15075TIP3   OH266715   4.509   3.428  14.922 -0.8865 -0.2807  0.5107
15075TIP3    H166716   4.544   3.471  14.845 -0.1745  0.9909  1.5020
15075TIP3    H266717   4.554   3.343  14.925 -0.0711  0.1306  0.1438
15076TIP3   OH266718   6.693   1.183   2.079 -0.5167 -0.0762  0.0353
15076TIP3    H166719   6.788   1.180   2.064 -0.3621 -1.5752  1.0902
15076TIP3    H266720   6.660   1.240   2.010  1.1417  0.4363 -0.3945
15077TIP3   OH266721   4.132   0.855   1.986 -0.0272 -0.4970  0.0919
15077TIP3    H166722   4.217   0.813   1.993 -0.5657 -1.6543 -0.1415
15077TIP3    H266723   4.094   0.821   1.905 -0.4803  0.4580 -0.1145
15078TIP3   OH266724   4.986   4.876  12.765  0.2706  0.0251 -0.1462
15078TIP3    H166725   4.981   4.818  12.842 -0.1383  0.2425 -0.0047
15078TIP3    H266726   5.079   4.895  12.756  0.2433  0.8338  0.9426
15079TIP3   OH266727   0.288   4.624  14.196  0.0196  0.1615 -0.3636
15079TIP3    H166728   0.312   4.712  14.222  0.8741 -0.0602 -0.3811
15079TIP3    H266729   0.368   4.572  14.208  0.0694 -0.2245 -2.0925
15080TIP3   OH266730   1.179   5.151   1.932 -0.2736 -0.2475 -0.5687
15080TIP3    H166731   1.205   5.169   1.841 -0.4897  0.1105 -0.5616
15080TIP3    H266732   1.105   5.209   1.947  1.0745  1.2580  0.5221
15081TIP3   OH266733   4.213   5.985   6.182  0.8647  0.2871  0.0147
15081TIP3    H166734   4.141   5.972   6.121  0.0977 -2.9026  1.3978
15081TIP3    H266735   4.197   6.070   6.222 -0.8341  0.6394 -1.3415
15082TIP3   OH266736   1.464   0.861  10.901  0.4568 -0.5004  0.9521
15082TIP3    H166737   1.530   0.909  10.850 -0.5280  0.6475  0.7091
15082TIP3    H266738   1.391   0.848  10.840  0.1583 -1.0891  1.4299
15083TIP3   OH266739   3.820   3.983  13.789  0.7366 -0.5460 -0.2557
15083TIP3    H166740   3.771   3.907  13.759  0.9996  0.1276 -2.5595
15083TIP3    H266741   3.765   4.058  13.765  1.9096  0.1210 -0.9432
15084TIP3   OH266742   5.323   2.234   6.454 -0.3486  0.6264 -0.9796
15084TIP3    H166743   5.278   2.150   6.465 -0.3860  0.7475 -0.0804
15084TIP3    H266744   5.296   2.265   6.368 -0.5554 -0.1559 -1.2031
15085TIP3   OH266745   5.788   0.604   4.080  0.5141 -0.0128 -0.4779
15085TIP3    H166746   5.820   0.516   4.100  2.2309  0.5827 -0.4887
15085TIP3    H266747   5.789   0.650   4.164 -1.8870 -0.3877 -0.1465
15086TIP3   OH266748   1.897   4.458   3.821  0.0813  0.5036  0.0423
15086TIP3    H166749   1.895   4.432   3.913  0.3556  0.8631  0.1522
15086TIP3    H266750   1.817   4.509   3.808 -0.2035  0.0389 -0.0456
15087TIP3   OH266751   5.976   0.684   0.429  0.0140  0.3262 -0.1848
15087TIP3    H166752   5.892   0.645   0.404 -0.4132  0.9584  0.2395
15087TIP3    H266753   6.027   0.610   0.463 -0.3990 -0.0469 -0.3575
15088TIP3   OH266754   1.620   4.034   4.831 -0.7855 -0.0334 -0.2989
15088TIP3    H166755   1.675   3.992   4.765  0.8323  2.3056 -0.5575
15088TIP3    H266756   1.615   3.970   4.902  2.5605 -0.3159 -0.1508
15089TIP3   OH266757   4.634   5.262  12.419  0.4745  0.2309 -0.3570
15089TIP3    H166758   4.602   5.188  12.471  2.0919 -0.0349  0.3292
15089TIP3    H266759   4.573   5.268  12.346 -0.5829 -0.8013  0.3963
15090TIP3   OH266760   0.256   2.761   2.343  0.5362 -0.7411 -0.1321
15090TIP3    H166761   0.318   2.776   2.414  1.0413  1.0290 -0.8933
15090TIP3    H266762   0.253   2.844   2.296 -1.5198 -1.1604 -0.8331
15091TIP3   OH266763   4.328   3.754  11.113  0.3517 -0.3850 -0.3122
15091TIP3    H166764   4.312   3.695  11.040 -0.9963 -0.0639 -0.2989
15091TIP3    H266765   4.256   3.817  11.110  1.4742  0.9800 -0.0330
15092TIP3   OH266766   6.639   3.824   3.880  0.5320  0.5897  0.0788
15092TIP3    H166767   6.568   3.781   3.928  2.0407 -1.3075  0.7449
15092TIP3    H266768   6.716   3.808   3.934  1.1436  4.9022  0.7750
15093TIP3   OH266769   3.199   4.655   2.976  0.2955 -0.3570  0.2045
15093TIP3    H166770   3.243   4.712   2.914 -0.8172 -0.1459 -0.4234
15093TIP3    H266771   3.139   4.603   2.923 -0.7383 -0.1241  1.0884
15094TIP3   OH266772   4.630   3.389  16.125  0.1480  0.3030  0.1611
15094TIP3    H166773   4.544   3.396  16.165  0.4087 -0.8549  0.9814
15094TIP3    H266774   4.670   3.475  16.139 -1.5008  1.4943 -1.8679
15095TIP3   OH266775   4.575   5.652  11.623  0.2950  0.9970 -0.0247
15095TIP3    H166776   4.591   5.615  11.710  0.3779  0.6238 -0.1968
15095TIP3    H266777   4.542   5.740  11.640 -1.0773  0.4190  0.4156
15096TIP3   OH266778   1.492   0.778  15.047 -0.0696  0.3408  0.2820
15096TIP3    H166779   1.478   0.851  14.987 -0.8783  0.7201  0.9304
15096TIP3    H266780   1.582   0.788  15.077  1.0002 -0.8599 -2.2060
15097TIP3   OH266781   3.469   6.039  13.841 -0.5086  0.2666  0.4153
15097TIP3    H166782   3.545   6.083  13.880 -0.8577  1.5106 -0.2739
15097TIP3    H266783   3.494   6.025  13.750 -1.6363  2.0338 -0.2090
15098TIP3   OH266784   0.836   4.927   1.103 -0.9552 -0.8209  0.2151
15098TIP3    H166785   0.900   4.864   1.136  0.6800 -1.3364 -3.4996
15098TIP3    H266786   0.781   4.876   1.043 -1.0722  0.7731 -1.1087
15099TIP3   OH266787   4.638   4.480   2.909 -0.0401 -0.6020 -0.2296
15099TIP3    H166788   4.718   4.468   2.961 -0.7626  0.9036  1.3404
15099TIP3    H266789   4.584   4.404   2.931 -0.7061  0.4421  2.0686
15100TIP3   OH266790   0.663   0.525   3.076  0.3129 -0.0143 -0.5633
15100TIP3    H166791   0.688   0.606   3.033 -0.4630  0.0345 -0.9407
15100TIP3    H266792   0.569   0.517   3.060  0.2756 -0.7061 -0.0616
15101TIP3   OH266793   4.421   5.145  15.795  0.6753 -0.4668  0.0859
15101TIP3    H166794   4.489   5.078  15.781  1.0479  0.1053 -0.9216
15101TIP3    H266795   4.438   5.176  15.884  0.2015 -2.0190  0.7623
15102TIP3   OH266796   3.387   3.772  14.455 -0.0699 -0.0563 -0.3935
15102TIP3    H166797   3.415   3.710  14.387 -0.3961 -1.1368  0.4400
15102TIP3    H266798   3.320   3.825  14.412 -0.0154 -0.4866 -1.0360
15103TIP3   OH266799   4.604   6.586   3.019  0.3431  0.7052  0.3927
15103TIP3    H166800   4.522   6.559   2.978 -0.3870  1.3366  1.4220
15103TIP3    H266801   4.646   6.642   2.954  1.6766 -2.3174 -1.6339
15104TIP3   OH266802   0.490   3.322   4.450 -0.3709  0.3529  0.4283
15104TIP3    H166803   0.420   3.359   4.504 -0.6812  0.2835  0.0789
15104TIP3    H266804   0.469   3.229   4.445 -0.5821  0.4282 -0.1613
15105TIP3   OH266805   3.397   0.618  14.898  0.6051 -0.2398 -0.6081
15105TIP3    H166806   3.468   0.573  14.852 -0.2091 -1.1534 -1.0081
15105TIP3    H266807   3.407   0.710  14.874  0.1350 -0.6956 -2.7651
15106TIP3   OH266808   4.484   2.888  16.050  0.0740 -0.4915  0.0521
15106TIP3    H166809   4.448   2.913  15.965  0.4433  0.4152  0.1447
15106TIP3    H266810   4.520   2.801  16.037  0.8602 -0.0406 -0.9662
15107TIP3   OH266811   5.722   3.681   1.482 -0.2891 -0.5079 -0.0566
15107TIP3    H166812   5.780   3.705   1.555  0.6550 -1.1248 -0.5768
15107TIP3    H266813   5.762   3.602   1.445 -0.8271 -0.2721 -1.1709
15108TIP3   OH266814   5.472   6.394   5.200  0.1616 -0.5452  0.3327
15108TIP3    H166815   5.502   6.402   5.291  1.4292  0.4344 -0.1472
15108TIP3    H266816   5.449   6.483   5.174  0.3201 -0.7314 -0.4795
15109TIP3   OH266817   6.354   5.240   4.170 -0.0182  0.2200 -0.0999
15109TIP3    H166818   6.329   5.297   4.243  0.2663  0.1524  0.0485
15109TIP3    H266819   6.448   5.229   4.179  0.4850  2.2739 -1.9010
15110TIP3   OH266820   2.066   5.855   2.257 -0.4180 -0.6858 -0.2188
15110TIP3    H166821   2.126   5.812   2.317 -0.9168 -1.5946 -0.3458
15110TIP3    H266822   2.117   5.868   2.177 -0.6753 -2.4169 -0.6939
15111TIP3   OH266823   6.579   4.509  16.045 -0.0493  0.3141  0.0889
15111TIP3    H166824   6.643   4.439  16.056  1.1481  1.1136 -1.4705
15111TIP3    H266825   6.501   4.477  16.091  1.1894 -1.0202  1.3726
15112TIP3   OH266826   0.923   6.259   1.701  0.2553 -0.2617  0.4645
15112TIP3    H166827   0.879   6.208   1.770 -0.4783 -1.4643 -0.8457
15112TIP3    H266828   1.005   6.213   1.687  0.1068 -0.4096  0.0780
15113TIP3   OH266829   0.362   4.144   6.280  0.3533  0.3810 -0.1057
15113TIP3    H166830   0.319   4.064   6.312  2.4064 -0.4594  0.7550
15113TIP3    H266831   0.414   4.174   6.355  1.2660  1.3128 -1.0904
15114TIP3   OH266832   0.176   0.775  11.879  0.0352  0.0869  0.5990
15114TIP3    H166833   0.248   0.722  11.913 -0.4932 -0.3100  1.1081
15114TIP3    H266834   0.218   0.837  11.819  0.9740  0.6886  1.8366
15115TIP3   OH266835   5.367   6.807   3.038 -0.0706  0.0649  0.4514
15115TIP3    H166836   5.273   6.820   3.044 -0.5940 -1.7758 -2.1534
15115TIP3    H266837   5.383   6.781   2.947  2.9855  0.4307  0.7504
15116TIP3   OH266838   3.161   6.355  13.211  0.4168  0.2366 -0.4070
15116TIP3    H166839   3.250   6.327  13.191  0.6247  0.4543  0.1819
15116TIP3    H266840   3.111   6.336  13.132  1.0553  0.4179 -0.8593
15117TIP3   OH266841   2.567   6.228   3.272 -0.4298 -0.4798  0.0119
15117TIP3    H166842   2.568   6.272   3.357  4.1608 -2.1674  1.1525
15117TIP3    H266843   2.560   6.135   3.294 -0.1943 -0.8854 -1.5264
15118TIP3   OH266844   5.202   3.686   1.971 -0.3478 -0.1390  0.6001
15118TIP3    H166845   5.240   3.767   1.938 -0.1845 -0.3903  0.1725
15118TIP3    H266846   5.111   3.689   1.943 -0.1697 -0.4295 -0.0305
15119TIP3   OH266847   0.624   5.630   2.262 -0.0669  0.0188  0.2863
15119TIP3    H166848   0.572   5.555   2.290  0.8544 -0.8461 -0.2754
15119TIP3    H266849   0.663   5.663   2.343 -0.3224 -0.2246  0.5098
15120TIP3   OH266850   2.833   1.362  15.855 -0.5643 -0.0089  0.4174
15120TIP3    H166851   2.868   1.442  15.893  0.2874 -0.9456  1.6996
15120TIP3    H266852   2.760   1.338  15.912 -1.3639  0.2980 -0.4619
15121TIP3   OH266853   0.941   6.824   3.142 -0.4474 -0.0829 -0.4181
15121TIP3    H166854   0.975   6.907   3.109  0.2098 -0.6011 -1.0689
15121TIP3    H266855   0.855   6.846   3.178  0.2122  1.0968  0.5063
15122TIP3   OH266856   3.951   2.688   4.425  0.2559 -0.0870 -0.0100
15122TIP3    H166857   3.899   2.662   4.501 -0.5156 -0.3341 -0.6131
15122TIP3    H266858   4.030   2.728   4.463  1.4992 -3.1790  0.9918
15123TIP3   OH266859   5.363   0.828   0.703 -0.8550 -0.7500  0.1707
15123TIP3    H166860   5.443   0.846   0.752 -1.2633  0.4547  0.4233
15123TIP3    H266861   5.373   0.738   0.673 -0.0241 -1.0746  1.3706
15124TIP3   OH266862   2.771   3.396  13.454  0.0741  0.2743 -0.5135
15124TIP3    H166863   2.818   3.330  13.402  0.0298 -0.2599  0.1163
15124TIP3    H266864   2.679   3.385  13.429  0.1169  0.4030 -0.7353
15125TIP3   OH266865   1.541   3.519  15.668 -0.4617  0.4280 -0.1646
15125TIP3    H166866   1.609   3.456  15.644 -0.3493  0.4042  0.1993
15125TIP3    H266867   1.479   3.517  15.596 -1.3133 -1.2935  0.5464
15126TIP3   OH266868   3.609   1.772   1.344 -0.2017 -0.1619 -0.4385
15126TIP3    H166869   3.518   1.774   1.314  0.2698  1.1030 -1.9026
15126TIP3    H266870   3.661   1.786   1.265  1.3540 -2.1341  0.1656
15127TIP3   OH266871   6.628   5.317  12.296  0.4704 -0.6907  0.0749
15127TIP3    H166872   6.630   5.314  12.200  0.1651  0.8270 -0.0036
15127TIP3    H266873   6.686   5.390  12.319 -1.1222  0.3907  0.9038
15128TIP3   OH266874   1.752   5.464   4.192 -0.1416 -0.3056  0.8705
15128TIP3    H166875   1.805   5.410   4.252 -1.0526 -0.3848  1.6305
15128TIP3    H266876   1.668   5.420   4.189  0.2726 -1.0746 -1.5911
15129TIP3   OH266877   2.346   3.098  11.157 -0.0952  0.1342  0.4712
15129TIP3    H166878   2.420   3.147  11.192  0.1446  0.3262 -0.2762
15129TIP3    H266879   2.355   3.011  11.195  0.3513  0.2374  0.6130
15130TIP3   OH266880   3.201   2.542   2.683 -0.9050 -0.3808  0.1792
15130TIP3    H166881   3.123   2.559   2.735 -0.4188 -0.4460  0.9494
15130TIP3    H266882   3.273   2.572   2.739 -0.4644  0.9927 -1.0784
15131TIP3   OH266883   4.781   3.900   1.925 -0.3291 -0.0579  0.2386
15131TIP3    H166884   4.714   3.962   1.954 -1.3139 -0.7151 -0.5577
15131TIP3    H266885   4.743   3.859   1.847  1.0351 -0.4038 -0.2727
15132TIP3   OH266886   4.083   1.546   0.703 -0.2489 -0.2727 -0.4434
15132TIP3    H166887   4.023   1.608   0.662  0.6738  1.8330  1.2155
15132TIP3    H266888   4.116   1.592   0.780  0.7938 -2.7092  0.6617
15133TIP3   OH266889   0.100   1.131  13.644 -0.4668  0.0029 -0.5103
15133TIP3    H166890   0.043   1.131  13.567  1.0728 -0.7673 -1.6956
15133TIP3    H266891   0.140   1.218  13.644 -1.4540  0.4854  0.2302
15134TIP3   OH266892   2.118   6.058   4.396 -0.0809  0.0769 -0.3233
15134TIP3    H166893   2.057   6.074   4.323 -0.1029 -1.1992 -0.5999
15134TIP3    H266894   2.127   5.963   4.400  0.8075  0.1818  0.6240
15135TIP3   OH266895   4.391   0.146  16.425  0.4222 -0.1642  0.0983
15135TIP3    H166896   4.315   0.162  16.481 -0.8559 -1.7964 -1.0762
15135TIP3    H266897   4.453   0.101  16.483  1.0393  2.1740  1.3753
15136TIP3   OH266898   4.397   3.544   6.094 -0.1948 -0.4176 -0.6568
15136TIP3    H166899   4.418   3.612   6.158  4.4036 -1.1094 -1.0796
15136TIP3    H266900   4.381   3.465   6.146  1.3163 -0.4804 -0.2612
15137TIP3   OH266901   0.852   2.234  14.799  0.5755  0.1464  0.1838
15137TIP3    H166902   0.796   2.262  14.727  1.4543 -0.8062 -0.8981
15137TIP3    H266903   0.806   2.159  14.837  1.6298 -1.3714 -1.4414
15138TIP3   OH266904   3.876   1.189  12.122 -0.7343  0.2033  0.1135
15138TIP3    H166905   3.927   1.270  12.133  0.4955 -0.7201  1.6306
15138TIP3    H266906   3.925   1.139  12.057 -1.3653  0.5571 -0.6467
15139TIP3   OH266907   2.585   3.987  13.361  0.2135 -0.0997  0.1412
15139TIP3    H166908   2.561   3.935  13.438 -0.8892  1.8185  1.1780
15139TIP3    H266909   2.534   3.949  13.289 -0.1275 -0.8159  0.7538
15140TIP3   OH266910   3.725   2.875   1.364 -0.9939  0.1002  0.0782
15140TIP3    H166911   3.781   2.821   1.420 -3.3974  1.0306  3.7420
15140TIP3    H266912   3.728   2.832   1.279  2.5043 -1.7855  0.9502
15141TIP3   OH266913   0.949   5.848  15.224 -0.0111 -0.2812  0.6827
15141TIP3    H166914   0.867   5.873  15.181  0.8889  1.7585  0.0491
15141TIP3    H266915   1.014   5.848  15.154  0.8602 -0.1716  1.4720
15142TIP3   OH266916   2.390   1.694  13.019  0.6515 -0.8271 -0.0043
15142TIP3    H166917   2.345   1.625  12.970  0.6601 -0.8051 -0.0429
15142TIP3    H266918   2.481   1.665  13.023  1.2492  0.5040 -2.4058
15143TIP3   OH266919   5.784   0.323   4.803 -0.5101 -0.1205  0.0379
15143TIP3    H166920   5.717   0.390   4.795  0.1868  0.5530 -0.3684
15143TIP3    H266921   5.785   0.279   4.719 -0.1609  0.1539 -0.1048
15144TIP3   OH266922   4.837   4.475   5.701  0.2957 -0.0486  0.1899
15144TIP3    H166923   4.877   4.427   5.629  1.9810 -0.1422  1.1521
15144TIP3    H266924   4.819   4.409   5.768 -3.3335 -0.3675 -0.8898
15145TIP3   OH266925   0.232   1.632   0.575  0.3563  0.2290  0.2102
15145TIP3    H166926   0.299   1.673   0.629  0.2241  0.4134  0.2365
15145TIP3    H266927   0.277   1.607   0.494  0.5998 -0.2357  0.4894
15146TIP3   OH266928   1.713   2.240   1.054 -0.3453 -0.0488 -0.6092
15146TIP3    H166929   1.701   2.145   1.060  1.5960 -0.5199 -2.8120
15146TIP3    H266930   1.800   2.252   1.016 -0.2201  2.6725  0.2630
15147TIP3   OH266931   4.795   0.753   4.320 -0.1520  0.0433 -0.6179
15147TIP3    H166932   4.752   0.730   4.237 -1.3382  1.9050 -0.5943
15147TIP3    H266933   4.874   0.800   4.293  1.6867 -2.8259 -0.6533
15148TIP3   OH266934   3.040   5.886  14.411  0.9608 -0.4324 -0.3852
15148TIP3    H166935   3.072   5.903  14.322  1.4730  2.3766  0.2222
15148TIP3    H266936   2.950   5.855  14.398  0.2637  1.8960 -1.9520
15149TIP3   OH266937   3.218   1.916   3.536  0.4138  0.0486  0.2319
15149TIP3    H166938   3.142   1.858   3.534  1.0498 -0.8000  0.1667
15149TIP3    H266939   3.287   1.866   3.494  1.1841  0.5591  0.8587
15150TIP3   OH266940   6.268   5.667  12.216 -0.3472 -0.0652  0.0394
15150TIP3    H166941   6.308   5.682  12.301 -0.6147 -1.6671  0.4760
15150TIP3    H266942   6.175   5.684  12.229 -0.5340 -1.2517  0.3345
15151TIP3   OH266943   5.910   0.921  16.310 -0.4571 -0.2079  0.2788
15151TIP3    H166944   5.936   0.855  16.246 -0.7777 -1.4223  1.3399
15151TIP3    H266945   5.992   0.946  16.354 -0.2734  0.4383 -0.4243
15152TIP3   OH266946   0.163   1.370  15.641  0.5502 -0.3251  0.0823
15152TIP3    H166947   0.152   1.308  15.713  0.9096 -0.4391  0.0378
15152TIP3    H266948   0.127   1.325  15.564 -0.7244  0.1643  0.3652
15153TIP3   OH266949   4.937   1.447  15.643  0.3375  0.0448  0.0453
15153TIP3    H166950   4.873   1.479  15.579  1.4164 -0.6411 -1.4189
15153TIP3    H266951   4.925   1.504  15.719 -1.5895  0.3160 -0.4072
15154TIP3   OH266952   6.449   6.520   3.139 -0.0555 -0.0519  0.3946
15154TIP3    H166953   6.364   6.563   3.144  0.3216  0.7534  0.1785
15154TIP3    H266954   6.502   6.563   3.206  1.5631  2.7907 -2.4160
15155TIP3   OH266955   2.973   2.428   4.272  0.1076 -0.2206  0.4886
15155TIP3    H166956   2.927   2.510   4.256 -0.2896 -0.6302 -0.5377
15155TIP3    H266957   3.048   2.453   4.326  1.4355  1.2653 -1.8723
15156TIP3   OH266958   3.902   1.534   4.045  0.2032  0.6512 -0.0077
15156TIP3    H166959   3.914   1.585   3.965  0.4952  0.5690 -0.0186
15156TIP3    H266960   3.823   1.569   4.085  0.8044  1.5988  0.3637
15157TIP3   OH266961   5.184   3.884  12.497 -0.5559  0.2066 -0.0564
15157TIP3    H166962   5.233   3.822  12.443  0.2444  0.1067  0.7840
15157TIP3    H266963   5.134   3.935  12.433 -0.4557 -0.6163 -0.8276
15158TIP3   OH266964   3.193   0.328   5.109 -0.1453  0.3017 -0.3301
15158TIP3    H166965   3.226   0.413   5.080 -1.7667  0.7269 -1.1007
15158TIP3    H266966   3.157   0.288   5.029 -0.9229 -0.3508  0.3228
15159TIP3   OH266967   3.840   4.876   0.318 -0.0854  0.0386  0.4311
15159TIP3    H166968   3.863   4.784   0.333  0.1750 -0.2829 -1.6986
15159TIP3    H266969   3.746   4.875   0.301  0.2008 -0.0978 -1.2722
15160TIP3   OH266970   4.400   6.272   5.639 -0.7971  0.0029 -0.6456
15160TIP3    H166971   4.376   6.199   5.697 -0.8856  2.1140  2.2365
15160TIP3    H266972   4.318   6.319   5.625 -0.2974  1.0576 -0.1248
15161TIP3   OH266973   0.966   4.306  16.509 -0.0641 -0.2266 -0.3889
15161TIP3    H166974   0.973   4.232  16.569 -0.3125  0.8131  0.9561
15161TIP3    H266975   1.020   4.375  16.548  0.4487  0.2234 -1.7942
15162TIP3   OH266976   1.172   6.702  13.414  0.1072  0.0607 -0.4791
15162TIP3    H166977   1.198   6.730  13.326 -1.6701  0.3840 -0.9350
15162TIP3    H266978   1.172   6.606  13.410 -0.1784  0.0757 -0.9000
15163TIP3   OH266979   3.083   6.319   0.131 -1.1145 -0.2777 -0.2388
15163TIP3    H166980   3.110   6.272   0.210  0.9451  1.2965  0.0987
15163TIP3    H266981   3.123   6.270   0.059 -2.0197 -1.0487 -0.2397
15164TIP3   OH266982   2.329   0.998   5.091 -0.0636 -0.2473  0.1963
15164TIP3    H166983   2.395   0.993   5.161 -1.2846 -1.2509  1.3444
15164TIP3    H266984   2.349   1.079   5.045  1.9260 -0.4879  0.5326
15165TIP3   OH266985   3.036   5.279   0.728  0.2867 -0.3167  0.0152
15165TIP3    H166986   2.944   5.259   0.744  0.5658 -0.7671  1.1503
15165TIP3    H266987   3.052   5.245   0.640 -1.0234  1.2273 -0.8726
15166TIP3   OH266988   1.925   2.367   0.399  0.5021  0.1361 -0.0321
15166TIP3    H166989   1.926   2.462   0.391 -2.8621  0.3089  0.1278
15166TIP3    H266990   1.894   2.351   0.488 -1.6367 -0.9719 -0.8941
15167TIP3   OH266991   1.830   3.428   2.573 -0.2184  0.1819  0.2588
15167TIP3    H166992   1.748   3.405   2.618  0.0792  0.8444  1.1563
15167TIP3    H266993   1.898   3.386   2.625 -0.0052 -0.8225 -0.7949
15168TIP3   OH266994   3.081   6.063   3.494  1.1162 -0.2870 -0.5380
15168TIP3    H166995   3.064   5.997   3.562  1.4777 -1.2763 -1.3905
15168TIP3    H266996   3.166   6.099   3.517  0.3257  0.9076  0.7166
15169TIP3   OH266997   5.114   0.180  14.414 -0.3019  0.1051  0.0525
15169TIP3    H166998   5.067   0.187  14.332 -0.8701 -0.2898  0.3364
15169TIP3    H266999   5.178   0.251  14.412 -1.4394  1.1507  0.0082
15170TIP3   OH267000   6.323   0.553   5.352  0.2768 -0.2147  0.2639
15170TIP3    H167001   6.308   0.638   5.393 -0.4631  0.1769 -0.7856
15170TIP3    H267002   6.254   0.545   5.286  1.8852 -0.4729 -1.4629
15171TIP3   OH267003   0.826   5.253  13.877 -0.0089 -0.0711 -0.3661
15171TIP3    H167004   0.731   5.261  13.864 -0.1427 -2.0545 -0.9484
15171TIP3    H267005   0.862   5.335  13.843 -1.5027  0.8272  0.0816
15172TIP3   OH267006   2.679   1.707  13.379  0.2589  0.3950 -0.6765
15172TIP3    H167007   2.696   1.735  13.469 -0.4616 -1.5978  0.1430
15172TIP3    H267008   2.587   1.727  13.365 -0.9018 -3.1615  0.6979
15173TIP3   OH267009   0.397   1.083  15.104 -0.3932 -0.1896  0.6448
15173TIP3    H167010   0.353   1.041  15.178 -0.8624 -0.5072  0.1985
15173TIP3    H267011   0.369   1.174  15.108 -0.8284 -0.3156  0.5674
15174TIP3   OH267012   3.228   1.265   5.728  0.4795  0.5752 -0.0492
15174TIP3    H167013   3.199   1.348   5.688 -1.0411 -0.7650 -1.9532
15174TIP3    H267014   3.272   1.219   5.657 -2.3632 -1.9436 -0.4140
15175TIP3   OH267015   0.975   2.353  15.023  0.2425  0.8262 -0.2676
15175TIP3    H167016   0.912   2.400  15.078 -0.9383 -0.6615 -0.2774
15175TIP3    H267017   0.925   2.328  14.945  0.8383 -0.3484 -0.2989
15176TIP3   OH267018   3.075   5.931   4.440 -0.0365  0.6264  0.1641
15176TIP3    H167019   3.141   5.900   4.502  0.3129  0.1828 -0.4125
15176TIP3    H267020   3.083   6.026   4.442 -0.3176  0.6455  1.0964
15177TIP3   OH267021   1.564   2.249   3.706 -0.2824  0.1197 -0.2789
15177TIP3    H167022   1.542   2.158   3.724 -2.3774  0.7045  0.3958
15177TIP3    H267023   1.643   2.245   3.651  0.6614 -2.0233  1.1182
15178TIP3   OH267024   1.852   4.850  12.227 -0.2018  0.8442 -0.4911
15178TIP3    H167025   1.932   4.883  12.266  0.4558 -0.3924 -0.7505
15178TIP3    H267026   1.869   4.849  12.133 -0.0205 -0.6434 -0.4595
15179TIP3   OH267027   2.178   5.348  13.797  0.2432 -0.7970  0.0452
15179TIP3    H167028   2.264   5.337  13.837  0.1395 -3.0665 -0.2605
15179TIP3    H267029   2.178   5.290  13.721 -0.6408  1.1848 -1.5608
15180TIP3   OH267030   2.335   2.056   4.096 -0.4907 -0.2110 -0.2212
15180TIP3    H167031   2.425   2.080   4.073 -0.2370  0.5328  1.4370
15180TIP3    H267032   2.281   2.120   4.049 -0.0850  0.1036 -0.2694
15181TIP3   OH267033   1.819   2.484  15.650  0.0979  0.1459 -0.2145
15181TIP3    H167034   1.801   2.390  15.643 -1.3814  0.4945 -2.1599
15181TIP3    H267035   1.884   2.491  15.720  0.0551 -2.2875  0.1686
15182TIP3   OH267036   0.722   0.860   0.176  0.5930  0.3888 -0.2248
15182TIP3    H167037   0.650   0.860   0.113 -0.0589  0.6200  0.5046
15182TIP3    H267038   0.698   0.793   0.240  1.4543 -0.1398 -0.4296
15183TIP3   OH267039   3.270   3.942   3.053 -0.2027 -0.1800 -0.1342
15183TIP3    H167040   3.363   3.945   3.032 -0.3863  1.7319 -0.8860
15183TIP3    H267041   3.257   3.857   3.096  2.1232  0.0556  1.1714
15184TIP3   OH267042   5.030   0.584  17.016 -0.0904 -0.5233 -0.2539
15184TIP3    H167043   5.072   0.612  16.935 -0.6417  0.4176 -0.2282
15184TIP3    H267044   4.958   0.646  17.029  1.0757  0.5111  1.9004
15185TIP3   OH267045   5.180   6.395   1.501 -0.5453  0.1855  0.2763
15185TIP3    H167046   5.128   6.315   1.488 -1.0722  0.3075  1.4933
15185TIP3    H267047   5.167   6.418   1.593 -1.5958  2.4921 -0.3648
15186TIP3   OH267048   5.022   2.233   2.642 -0.0372  0.0507  0.2675
15186TIP3    H167049   5.045   2.220   2.550  1.4620  1.6185  0.3617
15186TIP3    H267050   5.051   2.152   2.685 -0.9538 -0.7888 -0.6428
15187TIP3   OH267051   5.682   4.859  14.095  0.6798 -0.7631  0.3035
15187TIP3    H167052   5.629   4.908  14.158  1.0060  0.3441 -0.2525
15187TIP3    H267053   5.670   4.768  14.119 -0.7152 -0.4775  0.7943
15188TIP3   OH267054   6.624   1.780   2.125 -0.0228 -0.0801  0.6845
15188TIP3    H167055   6.598   1.767   2.216 -0.1438 -2.6311  0.3599
15188TIP3    H267056   6.679   1.858   2.126 -0.5589  0.3164  2.8208
15189TIP3   OH267057   5.135   2.568  13.051  0.2103  0.2837 -0.2425
15189TIP3    H167058   5.176   2.617  13.122  0.1997  1.1562 -0.8204
15189TIP3    H267059   5.139   2.477  13.079 -0.3790  0.6653  1.1680
15190TIP3   OH267060   5.767   2.202  12.085  0.6246  0.2172  0.1587
15190TIP3    H167061   5.714   2.160  12.153  0.1283 -1.4740 -1.2111
15190TIP3    H267062   5.856   2.199  12.120  0.2538  0.2248  1.1339
15191TIP3   OH267063   0.678   0.369  14.603 -0.2385 -0.8032  0.1319
15191TIP3    H167064   0.583   0.376  14.604 -0.1760  2.0171  2.4291
15191TIP3    H267065   0.701   0.334  14.690  0.7928  1.0157  0.6678
15192TIP3   OH267066   6.221   3.027  17.015  0.0042  0.1504 -0.1195
15192TIP3    H167067   6.138   2.981  17.002 -0.7132  1.1134  0.9324
15192TIP3    H267068   6.229   3.084  16.939 -1.9058  2.3788  1.2290
15193TIP3   OH267069   1.072   0.762  13.391 -0.0609 -0.4583 -0.3129
15193TIP3    H167070   1.157   0.780  13.430 -0.4299  0.4647  0.0966
15193TIP3    H267071   1.033   0.849  13.376 -1.7304 -0.8672  1.3211
15194TIP3   OH267072   0.185   3.729   2.677 -0.6240 -0.2632  0.0899
15194TIP3    H167073   0.193   3.823   2.661 -0.6942 -0.3297 -0.3603
15194TIP3    H267074   0.273   3.700   2.699 -0.2915 -0.3526 -1.2500
15195TIP3   OH267075   6.735   5.198  16.718  0.0153 -0.5104 -0.1774
15195TIP3    H167076   6.726   5.227  16.809 -2.0084  1.0963 -0.7965
15195TIP3    H267077   6.780   5.114  16.724  0.5074 -0.1527  2.2479
15196TIP3   OH267078   3.818   4.598  12.699  0.0166  0.3089 -0.9070
15196TIP3    H167079   3.843   4.528  12.758  0.1993  0.7917 -0.4079
15196TIP3    H267080   3.740   4.565  12.654  0.2249 -0.2934 -0.8291
15197TIP3   OH267081   1.369   5.184   4.234  0.4802 -0.2656  0.1117
15197TIP3    H167082   1.391   5.277   4.241 -0.0007 -0.2258  1.1619
15197TIP3    H267083   1.406   5.158   4.150 -0.5012  1.1885 -0.8297
15198TIP3   OH267084   1.896   2.489  12.729  0.2512  0.2158  0.6009
15198TIP3    H167085   1.814   2.527  12.698  0.9085 -0.3074 -2.0318
15198TIP3    H267086   1.919   2.541  12.806 -2.9736 -0.2355  2.0237
15199TIP3   OH267087   4.395   0.649  14.918  0.7607 -0.4677 -0.2158
15199TIP3    H167088   4.411   0.736  14.954 -1.1663  0.1848 -0.8394
15199TIP3    H267089   4.352   0.601  14.990  1.0988 -0.6519 -0.1354
15200TIP3   OH267090   6.025   2.562   0.669  0.0953  0.2799 -0.1473
15200TIP3    H167091   5.965   2.518   0.609 -0.0456  0.6266 -0.2624
15200TIP3    H267092   6.029   2.653   0.637 -0.7873  0.7367  0.9729
15201TIP3   OH267093   0.745   1.074   0.535  0.1348  0.4364  0.7924
15201TIP3    H167094   0.801   1.125   0.593  1.2644 -0.1605  0.2676
15201TIP3    H267095   0.730   0.992   0.581  2.1724 -0.6083 -0.2482
15202TIP3   OH267096   6.591   6.497  16.114 -0.1147  0.2201  0.9856
15202TIP3    H167097   6.538   6.420  16.130  0.6488 -0.3908  0.6565
15202TIP3    H267098   6.664   6.465  16.061  0.6431  1.0116  1.5248
15203TIP3   OH267099   5.900   3.046  16.461  0.2793  0.3271 -0.2334
15203TIP3    H167100   5.864   3.078  16.378  1.0656  3.1119  0.3951
15203TIP3    H267101   5.994   3.036  16.444  0.2549 -0.3575 -0.0022
15204TIP3   OH267102   5.327   3.047   0.403  0.0584 -0.0274  0.1661
15204TIP3    H167103   5.238   3.012   0.412  0.0184  0.1804  0.6395
15204TIP3    H267104   5.320   3.113   0.334  0.0257 -0.5873 -0.3677
15205TIP3   OH267105   6.716   6.747   6.149 -0.3663 -0.7076  0.1679
15205TIP3    H167106   6.661   6.673   6.173  0.7752 -2.1724 -1.4465
15205TIP3    H267107   6.799   6.731   6.195 -0.2747 -0.1663  0.1962
15206TIP3   OH267108   0.440   0.588   1.366  0.0458  0.0314 -0.0057
15206TIP3    H167109   0.480   0.633   1.441 -0.2377 -2.9466  2.1269
15206TIP3    H267110   0.346   0.597   1.379 -0.0102  0.3446 -0.5903
15207TIP3   OH267111   6.231   0.093   5.039  0.4316  0.3161  0.0116
15207TIP3    H167112   6.279   0.167   5.003 -0.1387 -0.0163 -1.5256
15207TIP3    H267113   6.296   0.022   5.043  0.3813  0.1955 -0.9648
15208TIP3   OH267114   5.431   6.468  12.421  0.2380  0.3894 -0.1231
15208TIP3    H167115   5.458   6.558  12.404 -0.4025  0.3167 -1.5947
15208TIP3    H267116   5.514   6.420  12.431  0.5871  1.0032  0.0077
15209TIP3   OH267117   4.042   6.674  14.860  0.1207 -0.5816  0.2627
15209TIP3    H167118   4.047   6.614  14.934  1.4094 -0.6456  0.1446
15209TIP3    H267119   3.948   6.693  14.851 -0.2459 -1.9972  0.7508
15210TIP3   OH267120   2.049   2.958   0.073 -0.2300 -0.4829  0.4998
15210TIP3    H167121   2.066   2.954   0.167  0.6022 -0.9261  0.3416
15210TIP3    H267122   2.051   3.052   0.053  0.7016 -0.4412  0.7406
15211TIP3   OH267123   1.710   0.956  15.388  0.5331  0.5551 -0.8665
15211TIP3    H167124   1.694   0.910  15.470  1.1261  0.3849 -0.8359
15211TIP3    H267125   1.806   0.961  15.382  0.5061  0.0459 -1.8375
15212TIP3   OH267126   4.008   0.429   4.837 -0.1603  0.2814  0.2106
15212TIP3    H167127   4.073   0.452   4.770 -0.4580  1.5259  0.3282
15212TIP3    H267128   4.055   0.372   4.898  0.3354 -0.2092 -0.6094
15213TIP3   OH267129   0.991   4.693   3.847 -0.0030 -0.4254  0.1653
15213TIP3    H167130   0.905   4.711   3.810  0.2009  2.4813  0.9153
15213TIP3    H267131   1.052   4.712   3.776  0.0930 -1.8878 -0.1736
15214TIP3   OH267132   3.639   4.406  14.578  0.0451 -0.0291 -0.1002
15214TIP3    H167133   3.720   4.415  14.527 -0.8222  1.8639 -1.2448
15214TIP3    H267134   3.667   4.413  14.669  1.3052 -0.6742 -0.4093
15215TIP3   OH267135   0.956   3.171   0.912 -0.1619  0.1695 -0.5881
15215TIP3    H167136   0.975   3.208   0.826  1.7391 -0.5866 -0.5467
15215TIP3    H267137   1.022   3.103   0.924  0.0192  0.6723  1.7247
15216TIP3   OH267138   3.082   0.580  16.751 -0.4333  0.1010  0.3184
15216TIP3    H167139   3.075   0.654  16.691  0.6337 -0.3381 -0.3775
15216TIP3    H267140   3.157   0.530  16.719  1.2770  0.7618  2.9987
15217TIP3   OH267141   2.807   4.813  17.233 -0.8291 -0.2871 -0.2361
15217TIP3    H167142   2.756   4.743  17.272 -0.4770  0.4851  1.7463
15217TIP3    H267143   2.889   4.814  17.283  0.1735  0.0075 -1.8010
15218TIP3   OH267144   3.756   1.012   3.571  0.2935 -0.1386 -1.1093
15218TIP3    H167145   3.670   0.980   3.544  1.0933 -2.8667 -0.7360
15218TIP3    H267146   3.818   0.961   3.519  1.7232 -0.9551  1.2492
15219TIP3   OH267147   5.607   4.512   1.977 -0.1928  0.5981 -0.2032
15219TIP3    H167148   5.589   4.605   1.968  0.1944  0.7323  0.3649
15219TIP3    H267149   5.640   4.502   2.067 -0.8581 -0.1824 -0.0289
15220TIP3   OH267150   6.014   1.836   0.754  0.0689 -0.1249  0.5132
15220TIP3    H167151   5.978   1.922   0.736  1.7216  0.1395 -1.9460
15220TIP3    H267152   5.971   1.778   0.691  0.8334 -0.6216  0.4407
15221TIP3   OH267153   2.199   1.142  15.716 -0.1359  0.2823 -0.6922
15221TIP3    H167154   2.235   1.093  15.789  0.6744  1.0803 -0.5295
15221TIP3    H267155   2.109   1.162  15.742  0.3288  1.1062  0.4017
15222TIP3   OH267156   5.438   5.254   3.944 -0.4877 -0.2758  0.9149
15222TIP3    H167157   5.355   5.298   3.926 -1.8079 -2.0652  2.3084
15222TIP3    H267158   5.490   5.319   3.992 -0.7926  1.0743 -0.5038
15223TIP3   OH267159   0.530   5.370  15.726 -0.2818 -0.3031 -0.3407
15223TIP3    H167160   0.572   5.298  15.678  1.3674 -0.1528  0.7703
15223TIP3    H267161   0.593   5.392  15.794 -0.9972  1.8485 -0.3095
15224TIP3   OH267162   5.785   4.588   3.298 -0.2170 -0.0660  0.1803
15224TIP3    H167163   5.812   4.662   3.244 -0.3851 -0.5031 -0.5086
15224TIP3    H267164   5.750   4.524   3.236 -0.8419 -0.3860  0.8507
15225TIP3   OH267165   3.555   1.780  14.495  0.3539 -0.3041  0.5118
15225TIP3    H167166   3.623   1.822  14.442  0.2750 -0.2306  0.4676
15225TIP3    H267167   3.531   1.701  14.446  0.7369 -0.5756  0.7591
15226TIP3   OH267168   5.323   4.885   3.160  0.5867 -0.0704 -0.4494
15226TIP3    H167169   5.392   4.938   3.201  0.5882  2.4186 -3.2563
15226TIP3    H267170   5.254   4.881   3.226  1.6303  1.3261  0.8182
15227TIP3   OH267171   0.477   0.452  11.480 -0.2362 -0.1195  0.4587
15227TIP3    H167172   0.551   0.501  11.443  0.0921 -1.0726 -0.1615
15227TIP3    H267173   0.404   0.471  11.422 -0.7641  1.5887  1.5971
15228TIP3   OH267174   1.052   2.928  15.979 -0.1642  0.0556  0.7813
15228TIP3    H167175   1.058   2.989  15.905 -0.8652  0.3106  0.9299
15228TIP3    H267176   1.008   2.851  15.943 -0.7212  0.2756  0.9935
15229TIP3   OH267177   4.228   1.602   0.104 -0.1825  0.0384  0.3433
15229TIP3    H167178   4.269   1.628   0.186  1.3760  2.2089 -1.0008
15229TIP3    H267179   4.183   1.681   0.074  0.4220 -0.2871 -1.5225
15230TIP3   OH267180   6.042   2.158  16.479 -0.1009  0.6865  0.0296
15230TIP3    H167181   6.105   2.189  16.544  1.2504  1.2636 -1.4971
15230TIP3    H267182   6.004   2.080  16.519 -0.4053  1.8216  2.1271
15231TIP3   OH267183   6.120   4.957  15.678 -0.2974 -0.2419 -0.3681
15231TIP3    H167184   6.187   4.928  15.617  0.3799  0.4076  0.0455
15231TIP3    H267185   6.169   4.994  15.752 -1.0522  2.5756 -1.1528
15232TIP3   OH267186   0.195   1.728   2.307 -0.2112 -0.6757 -0.3947
15232TIP3    H167187   0.286   1.755   2.313 -0.2800 -0.3993 -0.5572
15232TIP3    H267188   0.145   1.810   2.316 -0.4682 -0.9177  0.4536
15233TIP3   OH267189   1.012   1.539  16.009  0.4782 -0.1375  0.1454
15233TIP3    H167190   1.059   1.481  15.949  0.7606 -0.6621  0.8619
15233TIP3    H267191   0.948   1.482  16.052 -1.3172  0.6897 -1.2854
15234TIP3   OH267192   0.459   0.422   3.642 -0.2599  0.9383  0.0803
15234TIP3    H167193   0.451   0.401   3.549 -0.1877 -1.6141  0.5741
15234TIP3    H267194   0.368   0.433   3.672 -0.6302 -2.2100  0.4318
15235TIP3   OH267195   2.919   4.182   7.019  0.2243 -0.2552  0.2508
15235TIP3    H167196   3.012   4.186   6.995  0.2800  0.5821  0.5759
15235TIP3    H267197   2.873   4.215   6.943  0.2750  0.4907  0.5379
15236TIP3   OH267198   4.356   1.800  11.558  0.0443  0.4671  0.2478
15236TIP3    H167199   4.346   1.895  11.557 -2.0266  0.3065 -1.8624
15236TIP3    H267200   4.268   1.766  11.573 -0.1148 -1.0652 -3.1404
15237TIP3   OH267201   2.244   1.969  13.693 -0.3673 -0.5255 -0.2446
15237TIP3    H167202   2.183   2.023  13.742  0.1450  0.8986 -1.1221
15237TIP3    H267203   2.188   1.915  13.637 -0.8627 -0.1218 -0.1476
15238TIP3   OH267204   2.463   1.857  12.579 -0.3025  0.1040  0.3884
15238TIP3    H167205   2.482   1.772  12.539  1.0030 -0.4598  2.0762
15238TIP3    H267206   2.379   1.882  12.542 -1.0902 -2.2700  0.3645
15239TIP3   OH267207   2.456   6.337   4.460  0.0639 -0.4246 -0.3653
15239TIP3    H167208   2.459   6.411   4.399  1.0104 -0.8917 -0.9078
15239TIP3    H267209   2.432   6.262   4.406 -0.1608 -0.6511  0.0460
15240TIP3   OH267210   5.860   4.873   3.219  0.2271 -0.0197 -0.0376
15240TIP3    H167211   5.923   4.871   3.147  0.7150  0.7708  0.3474
15240TIP3    H267212   5.796   4.939   3.194 -1.0179 -1.4905 -0.8644
15241TIP3   OH267213   5.574   6.044  15.548 -0.0164 -0.3902  0.3304
15241TIP3    H167214   5.505   5.978  15.558 -0.4963 -0.0860 -0.8132
15241TIP3    H267215   5.533   6.125  15.577  0.6441 -0.5843  1.9579
15242TIP3   OH267216   5.896   0.431  14.887  0.0403 -0.4822  0.1139
15242TIP3    H167217   5.818   0.436  14.833  0.0857  1.3155  0.1543
15242TIP3    H267218   5.878   0.490  14.961  2.5690  2.5472 -1.4541
15243TIP3   OH267219   2.899   4.936   6.535 -0.7060  0.2386 -0.5550
15243TIP3    H167220   2.880   5.002   6.602 -0.2994  1.4821 -1.6283
15243TIP3    H267221   2.868   4.854   6.573 -1.4194  1.0731  0.7328
15244TIP3   OH267222   3.813   4.473  16.204 -0.2776  1.1690  0.3244
15244TIP3    H167223   3.904   4.488  16.178 -0.5428  1.4324 -0.4643
15244TIP3    H267224   3.761   4.522  16.141 -1.1629 -2.0150 -1.6526
15245TIP3   OH267225   6.052   6.445  12.916 -0.3857 -0.3293  0.2234
15245TIP3    H167226   5.995   6.513  12.951 -0.5454 -0.8653  1.0380
15245TIP3    H267227   5.994   6.371  12.898 -0.2649 -0.1628 -0.9459
15246TIP3   OH267228   2.157   4.613  13.859  0.1318 -0.5750  0.0984
15246TIP3    H167229   2.217   4.579  13.926 -0.3796 -1.1822  0.2661
15246TIP3    H267230   2.134   4.536  13.807 -1.1556 -0.5272  0.5588
15247TIP3   OH267231   2.248   2.256  12.957 -0.2977 -0.2106  0.1304
15247TIP3    H167232   2.175   2.296  13.003  0.7579 -0.0169  1.7097
15247TIP3    H267233   2.266   2.175  13.006 -0.1008 -0.7846 -0.8564
15248TIP3   OH267234   4.195   6.435  16.507  0.4837  0.0463 -0.5728
15248TIP3    H167235   4.173   6.347  16.479  0.1773  0.7864 -2.8564
15248TIP3    H267236   4.260   6.423  16.577  0.1895 -1.9575 -0.6088
15249TIP3   OH267237   3.205   0.213  13.498 -0.0588 -0.0055 -0.3993
15249TIP3    H167238   3.240   0.162  13.424  0.7523  1.1279 -0.8240
15249TIP3    H267239   3.136   0.157  13.534 -0.0369 -0.8729 -1.6067
15250TIP3   OH267240   0.994   5.102   2.863  0.5611  0.0775  0.0559
15250TIP3    H167241   0.987   5.140   2.775  0.1168  1.5859  0.7206
15250TIP3    H267242   1.088   5.096   2.879  0.6715 -1.2436 -0.9350
15251TIP3   OH267243   3.999   3.203  14.806  0.4986  0.2679 -0.2200
15251TIP3    H167244   4.069   3.146  14.837 -0.3440 -0.1794  0.9343
15251TIP3    H267245   4.036   3.291  14.806  0.7857  0.1626  1.2712
15252TIP3   OH267246   5.536   2.761  13.101  0.3442 -0.1909 -0.1335
15252TIP3    H167247   5.471   2.719  13.044  0.9273  0.3132 -1.2162
15252TIP3    H267248   5.620   2.724  13.074  0.6091 -0.1435  0.5976
15253TIP3   OH267249   6.072   1.857  12.381 -0.8243 -0.0236 -0.1027
15253TIP3    H167250   6.161   1.887  12.362 -1.2912  1.8068  0.4350
15253TIP3    H267251   6.055   1.889  12.470 -2.2529  0.2250 -0.4465
15254TIP3   OH267252   6.780   0.508  14.094 -0.0562 -0.2544  0.3851
15254TIP3    H167253   6.780   0.545  14.182  1.2489 -1.8988  1.1230
15254TIP3    H267254   6.690   0.519  14.063 -0.0832  2.1412  1.0976
15255TIP3   OH267255   3.917   0.499  14.612 -0.4403  0.1545 -0.1036
15255TIP3    H167256   4.005   0.468  14.634 -0.7104  0.6417  1.7819
15255TIP3    H267257   3.858   0.439  14.657 -1.0115  1.3388  0.7908
15256TIP3   OH267258   2.996   2.382  11.565  0.0701  1.0673  0.5357
15256TIP3    H167259   2.938   2.340  11.628 -0.6223  0.6844 -0.3187
15256TIP3    H267260   3.068   2.320  11.553 -1.8012 -0.8760 -2.0377
15257TIP3   OH267261   5.762   1.916  13.425 -0.3090 -0.3991 -0.0643
15257TIP3    H167262   5.788   1.860  13.352 -2.3118 -0.6713 -0.6303
15257TIP3    H267263   5.720   1.856  13.487 -1.9112  0.3560 -0.3900
15258TIP3   OH267264   5.538   0.955   2.336 -0.4873 -0.3426  0.3983
15258TIP3    H167265   5.491   1.020   2.388  1.1368  0.3891  1.0340
15258TIP3    H267266   5.556   0.884   2.397 -0.5369 -0.4998  0.2310
15259TIP3   OH267267   4.362   3.776  15.528 -0.5089  0.3043  0.1641
15259TIP3    H167268   4.456   3.782  15.511 -0.5235 -0.1414 -0.1019
15259TIP3    H267269   4.325   3.744  15.446 -1.1718  2.5046 -0.4415
15260TIP3   OH267270   5.862   5.948   5.306 -0.2262  0.8517 -0.1125
15260TIP3    H167271   5.929   5.993   5.255  0.3139 -0.6782 -0.7974
15260TIP3    H267272   5.893   5.951   5.396  0.0682  1.3444 -0.2284
15261TIP3   OH267273   3.335   4.312  16.466  0.3880  0.2227  0.3965
15261TIP3    H167274   3.430   4.296  16.470 -0.0091 -2.6157  0.3509
15261TIP3    H267275   3.305   4.256  16.395 -1.2400  1.9275 -0.3390
15262TIP3   OH267276   2.686   3.808  14.536 -0.1828 -0.4587 -0.0288
15262TIP3    H167277   2.661   3.718  14.519  0.1765 -0.6105  0.2370
15262TIP3    H267278   2.715   3.841  14.451 -1.6467 -0.1493 -0.4345
15263TIP3   OH267279   6.367   5.608   3.771  0.1331 -0.2742 -0.6708
15263TIP3    H167280   6.409   5.692   3.786 -2.4938  0.7476  2.0539
15263TIP3    H267281   6.406   5.549   3.835 -1.8689  0.5257  1.4554
15264TIP3   OH267282   5.198   4.106  12.282 -0.2898  0.5025  0.5595
15264TIP3    H167283   5.144   4.035  12.248 -1.1415  0.1700  2.4986
15264TIP3    H267284   5.150   4.185  12.260 -1.1256  0.2578  1.4251
15265TIP3   OH267285   4.786   0.291   5.925 -0.5689  0.0156 -0.8730
15265TIP3    H167286   4.755   0.327   5.842 -0.4700 -0.2105 -1.0098
15265TIP3    H267287   4.826   0.366   5.970 -1.1082  0.2576 -0.7903
15266TIP3   OH267288   1.247   4.441  13.345 -0.2804  0.6960 -0.2653
15266TIP3    H167289   1.234   4.348  13.330  1.0481  0.5596 -0.6924
15266TIP3    H267290   1.193   4.484  13.279 -1.8948  0.2900  0.7301
15267TIP3   OH267291   0.237   3.358  16.705 -0.4669 -0.1577  0.2517
15267TIP3    H167292   0.270   3.388  16.790 -1.3184  0.5846  0.3411
15267TIP3    H267293   0.192   3.275  16.725  2.0706 -1.6952 -0.0311
15268TIP3   OH267294   6.536   6.202   1.488 -0.5741 -0.1552 -0.2891
15268TIP3    H167295   6.604   6.177   1.425 -0.6881  0.0061 -0.4772
15268TIP3    H267296   6.501   6.284   1.455  0.7482  1.0116  1.0788
15269TIP3   OH267297   0.823   4.129   1.362 -0.2345 -0.3433  0.5517
15269TIP3    H167298   0.851   4.039   1.379  1.0795 -0.2051 -0.6577
15269TIP3    H267299   0.819   4.170   1.448 -0.0207 -1.3225  1.0414
15270TIP3   OH267300   0.110   5.960   3.983 -0.6064 -0.2486 -0.1126
15270TIP3    H167301   0.046   5.992   3.921 -1.2461  0.9482  1.1247
15270TIP3    H267302   0.080   5.872   4.006 -0.2690 -0.7718 -1.5741
15271TIP3   OH267303   5.372   0.823   3.123 -0.1162  0.1806 -0.2017
15271TIP3    H167304   5.438   0.804   3.056  0.3781 -0.7634  0.5423
15271TIP3    H267305   5.294   0.848   3.073  0.1795 -0.7208 -1.1443
15272TIP3   OH267306   5.624   3.992  13.158  0.4969  0.1225 -0.4025
15272TIP3    H167307   5.566   3.917  13.151  1.2386 -0.8032  2.3040
15272TIP3    H267308   5.702   3.967  13.107  0.6227 -0.8441  0.2407
15273TIP3   OH267309   4.069   2.887   2.733 -0.2199 -0.5082  0.1226
15273TIP3    H167310   4.133   2.829   2.692 -0.2711  0.1445 -0.9155
15273TIP3    H267311   4.122   2.954   2.775 -0.1895  0.8682 -1.9789
15274TIP3   OH267312   2.407   4.240  14.198  0.2726 -0.1284 -0.0427
15274TIP3    H167313   2.330   4.279  14.238 -0.0396 -0.6686 -0.1054
15274TIP3    H267314   2.421   4.290  14.118 -0.1149 -0.1450 -0.1193
15275TIP3   OH267315   5.983   2.207   2.764  0.5913 -0.8695 -0.2141
15275TIP3    H167316   5.915   2.141   2.750 -1.9604  1.6735 -0.6751
15275TIP3    H267317   5.975   2.267   2.690  2.6119  0.1705  0.3209
15276TIP3   OH267318   4.015   1.744  16.371  0.7558  0.3906  0.1354
15276TIP3    H167319   4.094   1.714  16.416  2.8433  0.6289 -3.0472
15276TIP3    H267320   4.047   1.805  16.304 -1.7825 -1.2912 -2.8925
15277TIP3   OH267321   6.734   6.255  16.664 -0.0516  0.6006  0.1253
15277TIP3    H167322   6.734   6.348  16.686 -2.4238  0.5670  0.5127
15277TIP3    H267323   6.705   6.211  16.744 -1.3011 -0.2270 -0.7486
15278TIP3   OH267324   6.305   0.324  16.504 -0.0068  0.4744 -0.2450
15278TIP3    H167325   6.363   0.389  16.465 -0.0025  0.3305 -0.4747
15278TIP3    H267326   6.303   0.252  16.441 -0.6698  0.6034 -0.3803
15279TIP3   OH267327   3.681   5.227  15.514  0.3961 -0.4690 -0.0051
15279TIP3    H167328   3.766   5.183  15.512 -0.1986 -1.6535 -0.4244
15279TIP3    H267329   3.625   5.168  15.565 -0.1093  0.4104  0.4626
15280TIP3   OH267330   2.922   5.008   5.146  0.8106 -0.2995  0.2918
15280TIP3    H167331   2.843   4.976   5.190  0.4458  0.4600  0.2138
15280TIP3    H267332   2.921   5.103   5.162  1.7849 -0.2989  0.4078
15281TIP3   OH267333   6.332   2.597  12.126 -0.3434  0.2537  0.0384
15281TIP3    H167334   6.259   2.633  12.077 -1.0800  0.6856  1.3920
15281TIP3    H267335   6.296   2.519  12.169  0.0250  0.3812  0.5890
15282TIP3   OH267336   2.419   4.172  15.897  0.2244 -0.1825 -0.4504
15282TIP3    H167337   2.501   4.132  15.868 -0.0489 -2.7123  1.9507
15282TIP3    H267338   2.353   4.104  15.884 -1.4260  1.5397 -1.5942
15283TIP3   OH267339   6.036   2.744  13.262  0.2190 -0.2290 -0.6356
15283TIP3    H167340   6.102   2.757  13.331  1.0661 -2.3185 -0.9796
15283TIP3    H267341   5.956   2.724  13.310  1.1915 -3.4624 -0.1331
15284TIP3   OH267342   6.342   6.002   4.387 -0.1240 -0.7915  0.1380
15284TIP3    H167343   6.401   5.992   4.461  0.1674 -0.3949 -0.0391
15284TIP3    H267344   6.273   6.060   4.419 -0.3022 -1.0738  0.2733
15285TIP3   OH267345   3.737   3.212   4.084  0.2217  0.0311 -0.2705
15285TIP3    H167346   3.716   3.153   4.012 -0.9778  0.7960 -0.5680
15285TIP3    H267347   3.659   3.213   4.139  1.0638 -0.4168  0.9764
15286TIP3   OH267348   1.918   3.687  16.654  0.5295  0.3955 -0.2281
15286TIP3    H167349   1.989   3.748  16.674 -0.0398  0.2321  2.6925
15286TIP3    H267350   1.841   3.742  16.644  0.7354  0.4403 -1.8715
15287TIP3   OH267351   3.957   3.513  10.725  0.6301  0.0257  0.2485
15287TIP3    H167352   4.036   3.502  10.778  0.4576  0.2119  0.5483
15287TIP3    H267353   3.951   3.432  10.674  1.4202  0.3135 -0.3289
15288TIP3   OH267354   4.328   0.758  13.611 -0.5576 -0.0634  0.2261
15288TIP3    H167355   4.327   0.800  13.525  0.5674 -0.8662 -0.1953
15288TIP3    H267356   4.269   0.812  13.664 -1.8045  0.0592 -1.2123
15289TIP3   OH267357   0.670   5.260  15.408  0.3547 -0.3227  0.1925
15289TIP3    H167358   0.730   5.306  15.349  0.9090 -1.0623  0.1584
15289TIP3    H267359   0.586   5.305  15.398  0.9040  0.7297  0.2396
15290TIP3   OH267360   0.280   4.191   0.100 -0.0251  0.5896 -0.5924
15290TIP3    H167361   0.365   4.176   0.140 -0.1025  0.6207 -0.4172
15290TIP3    H267362   0.300   4.235   0.017  0.1137  0.8297 -0.4329
15291TIP3   OH267363   1.513   2.649   1.162 -0.2256 -0.1285  0.3266
15291TIP3    H167364   1.562   2.691   1.091 -0.6059  0.1504  0.2280
15291TIP3    H267365   1.546   2.559   1.163 -0.4095 -0.2112 -0.3759
15292TIP3   OH267366   3.738   4.225   1.528 -0.6500 -0.4072  0.1100
15292TIP3    H167367   3.707   4.145   1.487 -3.6286  1.8829 -2.6235
15292TIP3    H267368   3.664   4.254   1.583 -0.2476  1.1889 -0.1518
15293TIP3   OH267369   6.145   4.605  15.160  0.3896  0.6151  0.3233
15293TIP3    H167370   6.066   4.555  15.182  0.4052  0.0099 -0.8800
15293TIP3    H267371   6.207   4.585  15.230  0.9671 -2.4278 -0.8709
15294TIP3   OH267372   2.044   5.064  15.868  0.0574  0.5093  0.2514
15294TIP3    H167373   1.985   5.114  15.924 -1.8837  0.4246 -1.5825
15294TIP3    H267374   2.093   5.130  15.820 -2.0869  0.7938 -1.7380
15295TIP3   OH267375   1.855   0.623  15.326 -0.1125  0.0454  0.1293
15295TIP3    H167376   1.832   0.657  15.240  0.1716  2.6968  1.0360
15295TIP3    H267377   1.772   0.615  15.373 -0.1312 -0.1124  0.0720
15296TIP3   OH267378   0.843   0.256  15.216  0.5357 -0.0193  0.2957
15296TIP3    H167379   0.775   0.197  15.249 -0.7549  0.4485 -1.3771
15296TIP3    H267380   0.879   0.297  15.295 -1.0520 -0.3483  1.2395
15297TIP3   OH267381   5.074   1.164  13.820  0.0953 -0.1746  0.3822
15297TIP3    H167382   5.066   1.259  13.809  2.7075 -0.0332 -1.3089
15297TIP3    H267383   5.022   1.144  13.898  0.1409  2.7766  1.2940
15298TIP3   OH267384   2.040   4.629   2.677  0.1884  0.5779 -0.1621
15298TIP3    H167385   1.958   4.607   2.634  0.5440  0.5882 -0.8602
15298TIP3    H267386   2.015   4.674   2.758 -0.4776  0.9192 -0.5581
15299TIP3   OH267387   5.692   1.667  14.930 -0.2903 -0.0338  0.5040
15299TIP3    H167388   5.719   1.596  14.988  1.0108  0.1105  0.1083
15299TIP3    H267389   5.674   1.741  14.989 -1.3693 -0.5841  0.8913
15300TIP3   OH267390   0.341   3.908   0.503  0.1324  0.4721  0.1369
15300TIP3    H167391   0.302   3.943   0.583  1.7438  4.4934 -0.5980
15300TIP3    H267392   0.266   3.885   0.449 -1.0093 -0.5506  2.0312
15301TIP3   OH267393   4.777   6.514   1.309  0.0087  0.2158  0.7200
15301TIP3    H167394   4.708   6.449   1.316 -2.1779  2.2085 -0.7703
15301TIP3    H267395   4.811   6.523   1.399 -1.2329 -1.2363  1.3796
15302TIP3   OH267396   2.885   0.230  11.193  0.3810  0.8045 -0.1771
15302TIP3    H167397   2.940   0.194  11.262  1.3610  0.3044 -1.2099
15302TIP3    H267398   2.930   0.209  11.111 -0.3834  2.0250 -0.9503
15303TIP3   OH267399   4.131   4.429  12.654 -0.3855  0.2499 -0.3120
15303TIP3    H167400   4.070   4.484  12.606  1.7022  2.3388 -0.7496
15303TIP3    H267401   4.121   4.456  12.745 -0.7252 -0.0544 -0.2562
15304TIP3   OH267402   5.339   4.347   3.318  0.0311  0.3561 -0.2378
15304TIP3    H167403   5.264   4.358   3.377  0.4168  1.1807  0.1150
15304TIP3    H267404   5.363   4.436   3.292 -0.9165 -0.0348 -2.6780
15305TIP3   OH267405   6.348   0.872   4.341 -0.4151 -0.2400  0.7772
15305TIP3    H167406   6.386   0.795   4.299 -0.3748 -0.0711  0.5025
15305TIP3    H267407   6.338   0.936   4.270 -1.1090 -0.2460  0.8678
15306TIP3   OH267408   0.634   5.134  10.999  0.2761  0.3695  0.4457
15306TIP3    H167409   0.610   5.090  10.918 -1.0241  2.2317 -0.2528
15306TIP3    H267410   0.552   5.148  11.045  0.7873  0.9421  1.2167
15307TIP3   OH267411   5.530   4.159  17.272 -0.5898  0.3562 -0.4569
15307TIP3    H167412   5.435   4.172  17.274 -0.7183 -0.4059 -0.7636
15307TIP3    H267413   5.541   4.080  17.219  0.1630 -0.0458  0.2716
15308TIP3   OH267414   5.417   1.082   5.460  0.1440 -0.1624 -0.1190
15308TIP3    H167415   5.477   1.107   5.390  0.3398  0.3191  0.2163
15308TIP3    H267416   5.474   1.066   5.536 -0.0959 -0.3409  0.0256
15309TIP3   OH267417   6.648   2.583  13.954  0.1142 -0.3214 -0.0229
15309TIP3    H167418   6.647   2.488  13.951 -0.4767 -0.3015 -0.7870
15309TIP3    H267419   6.589   2.605  14.027  1.1673 -0.5457  0.9225
15310TIP3   OH267420   0.223   3.094  14.336 -0.2622  0.2985 -0.1479
15310TIP3    H167421   0.170   3.167  14.304  0.1491  0.2233 -1.0239
15310TIP3    H267422   0.303   3.098  14.284  0.2945 -0.0271  0.6620
15311TIP3   OH267423   2.326   1.947   5.802 -0.2802  0.3640 -0.7781
15311TIP3    H167424   2.350   2.034   5.836  0.8282  0.5285 -1.9279
15311TIP3    H267425   2.295   1.964   5.713 -0.4602 -0.3779 -0.8601
15312TIP3   OH267426   3.386   3.560   6.280 -0.4157  0.2543  0.1373
15312TIP3    H167427   3.415   3.469   6.275  1.1315  0.7140  0.3341
15312TIP3    H267428   3.312   3.565   6.220 -1.3020 -1.4078  1.0251
15313TIP3   OH267429   4.822   0.645  12.817 -0.1088  0.1179 -0.5362
15313TIP3    H167430   4.788   0.556  12.822 -0.4877  0.1109 -2.4036
15313TIP3    H267431   4.917   0.635  12.820 -0.1574 -0.3395 -0.5168
15314TIP3   OH267432   4.908   5.569   5.349  0.0879 -0.4714 -0.4414
15314TIP3    H167433   4.873   5.585   5.437  0.1254  2.0620 -0.8284
15314TIP3    H267434   4.996   5.535   5.364  0.1742  0.1334  0.5048
15315TIP3   OH267435   3.215   5.621   4.044  0.0566 -0.0131 -0.0654
15315TIP3    H167436   3.224   5.618   4.139  0.4256  1.1539 -0.0529
15315TIP3    H267437   3.120   5.617   4.030 -0.0461  0.6173  0.3939
15316TIP3   OH267438   0.935   2.126  12.785 -0.0391  0.3448  0.1208
15316TIP3    H167439   0.882   2.175  12.848  0.6043  1.1220  0.0664
15316TIP3    H267440   1.016   2.104  12.832 -0.5066 -1.1304  0.3106
15317TIP3   OH267441   3.739   4.980  13.218 -0.6162  0.4432 -0.0315
15317TIP3    H167442   3.784   4.898  13.196  1.5896  1.5061  0.2093
15317TIP3    H267443   3.798   5.024  13.280 -2.0854  1.8965  0.4148
15318TIP3   OH267444   6.312   0.510  12.589 -0.8006  0.6208 -0.0015
15318TIP3    H167445   6.265   0.426  12.597 -1.2047  0.8223 -0.2458
15318TIP3    H267446   6.349   0.508  12.501 -2.8562  1.7354 -0.9459
15319TIP3   OH267447   0.622   1.039  11.150  0.2246  0.0581 -0.2380
15319TIP3    H167448   0.661   1.074  11.069  1.7192 -2.3607 -0.6786
15319TIP3    H267449   0.666   1.087  11.220  0.6157  0.5655 -0.8125
15320TIP3   OH267450   2.970   4.280  14.685 -0.2858  0.1185  0.5013
15320TIP3    H167451   2.928   4.365  14.678  1.2833  0.8457 -0.8759
15320TIP3    H267452   2.904   4.218  14.656 -1.6536  0.7634  2.1053
15321TIP3   OH267453   6.692   5.546   6.349  0.1394  0.0759 -0.3102
15321TIP3    H167454   6.627   5.488   6.309  0.9467 -1.0948  0.0222
15321TIP3    H267455   6.717   5.501   6.429  0.1445  1.3385  0.4163
15322TIP3   OH267456   2.223   3.320  13.918 -0.0728  0.5479 -0.3208
15322TIP3    H167457   2.284   3.337  13.989 -0.3570  2.0638 -0.4163
15322TIP3    H267458   2.222   3.401  13.867 -0.4135 -0.2557 -1.6498
15323TIP3   OH267459   3.186   4.078   0.815  0.0489 -0.0548  0.2505
15323TIP3    H167460   3.145   4.089   0.729  2.8863  1.1014 -1.0816
15323TIP3    H267461   3.172   3.986   0.837 -0.7565 -0.3815 -1.4356
15324TIP3   OH267462   2.361   5.011   5.855 -0.1010  0.2250  0.2501
15324TIP3    H167463   2.352   5.069   5.780  0.3783 -0.6947 -0.5505
15324TIP3    H267464   2.299   4.940   5.837  1.2570 -0.9002 -0.1773
15325TIP3   OH267465   0.953   6.324  13.564  0.2044  0.1335  0.3426
15325TIP3    H167466   0.880   6.387  13.565 -1.5929 -1.6998 -2.2040
15325TIP3    H267467   0.939   6.271  13.642  0.5665  1.5746  1.4287
15326TIP3   OH267468   0.257   0.950  12.894  0.3873 -0.0013 -0.0620
15326TIP3    H167469   0.273   1.032  12.848  0.9028  0.2638  0.5716
15326TIP3    H267470   0.223   0.977  12.979  0.9803 -0.4244  0.3174
15327TIP3   OH267471   0.124   0.830   4.199 -0.0633  0.1646 -0.1286
15327TIP3    H167472   0.068   0.839   4.276 -0.6025 -0.1610 -0.4770
15327TIP3    H267473   0.209   0.802   4.234  0.1019  1.3427  0.4653
15328TIP3   OH267474   6.350   4.631  17.218 -0.3537 -0.2897  0.4625
15328TIP3    H167475   6.270   4.678  17.240 -0.0505  0.3896  0.1550
15328TIP3    H267476   6.323   4.567  17.153 -0.6128  0.1116  0.1661
15329TIP3   OH267477   6.291   0.894   3.809 -0.3422  0.1881 -0.0231
15329TIP3    H167478   6.364   0.835   3.828  0.4432  1.5286  1.3239
15329TIP3    H267479   6.228   0.878   3.879 -0.0044  1.0997  0.5057
15330TIP3   OH267480   0.505   4.561   3.034  0.0113  0.3689  0.3977
15330TIP3    H167481   0.469   4.550   3.122 -0.2161  1.5055  0.4673
15330TIP3    H267482   0.583   4.505   3.033  1.1783  1.8336  2.0376
15331TIP3   OH267483   0.694   5.993  13.780 -0.6950 -0.4745 -0.0037
15331TIP3    H167484   0.768   6.053  13.771  1.0271 -2.4975 -0.2441
15331TIP3    H267485   0.626   6.045  13.823  0.8928  1.4522  0.3469
15332TIP3   OH267486   4.967   6.613   6.253 -0.2459 -0.0645  0.3397
15332TIP3    H167487   4.940   6.692   6.300 -0.7290 -0.1995  0.2886
15332TIP3    H267488   4.891   6.588   6.201  0.1277 -0.1927 -0.1512
15333TIP3   OH267489   6.203   0.577   2.806  0.0725 -0.7162 -0.2336
15333TIP3    H167490   6.140   0.634   2.761 -0.4187 -1.5545 -0.6220
15333TIP3    H267491   6.220   0.622   2.889  0.9318  0.8268 -1.1877
15334TIP3   OH267492   0.159   3.982  12.003 -0.3086 -0.2830 -0.6924
15334TIP3    H167493   0.120   3.984  12.091 -1.4086 -0.1577 -1.1649
15334TIP3    H267494   0.253   3.984  12.019 -0.4583 -1.3649  0.5261
15335TIP3   OH267495   0.776   3.255  12.206 -0.1063 -0.1751  0.5427
15335TIP3    H167496   0.806   3.164  12.207  1.3442  0.2529 -0.3409
15335TIP3    H267497   0.759   3.274  12.113 -1.4180  0.1507  0.8324
15336TIP3   OH267498   2.254   6.742   6.685 -0.0876  0.3216 -0.0669
15336TIP3    H167499   2.217   6.670   6.634  0.9042 -0.4632  0.2868
15336TIP3    H267500   2.218   6.821   6.644 -1.4521 -0.3606 -0.2598
15337TIP3   OH267501   0.232   2.548  17.183  0.2710 -0.6198  0.2221
15337TIP3    H167502   0.219   2.576  17.092  0.8835  0.0098  0.3203
15337TIP3    H267503   0.260   2.457  17.176 -0.5904 -0.8616 -0.1685
15338TIP3   OH267504   4.628   3.674   2.335  0.3440 -0.0841 -0.7047
15338TIP3    H167505   4.685   3.744   2.366  1.1006 -0.3284 -1.4869
15338TIP3    H267506   4.559   3.719   2.287 -1.7592  0.4240  2.5302
15339TIP3   OH267507   4.184   2.680  15.647  0.0272  0.0502 -0.2583
15339TIP3    H167508   4.233   2.698  15.567 -0.7732 -1.1781 -1.0519
15339TIP3    H267509   4.095   2.708  15.628  0.1092  0.9968  0.6902
15340TIP3   OH267510   5.369   2.977   1.452 -0.4293 -0.0450  0.0548
15340TIP3    H167511   5.458   2.941   1.454 -0.7666 -0.8921  0.4159
15340TIP3    H267512   5.320   2.921   1.513 -2.2405 -2.3133 -3.1979
15341TIP3   OH267513   0.990   0.425   5.006 -0.5026 -0.7732  0.6431
15341TIP3    H167514   1.081   0.418   5.038  0.2028 -0.7657 -1.2484
15341TIP3    H267515   0.975   0.520   4.998 -1.1600 -0.7173  2.1486
15342TIP3   OH267516   2.956   1.801   0.413 -0.2326 -0.3630 -0.1878
15342TIP3    H167517   2.973   1.885   0.456 -0.3754  0.3897 -1.5507
15342TIP3    H267518   3.040   1.754   0.420  0.3684  0.5731 -0.8841
15343TIP3   OH267519   5.672   1.395  11.274  0.3085 -0.2883 -0.4327
15343TIP3    H167520   5.744   1.402  11.336 -1.6568  0.7679  1.8973
15343TIP3    H267521   5.651   1.301  11.272 -0.4378 -0.2209  1.6577
15344TIP3   OH267522   1.380   1.615   0.317  0.3194 -0.4910  0.3266
15344TIP3    H167523   1.466   1.607   0.361  1.3013  0.8634 -1.2581
15344TIP3    H267524   1.395   1.581   0.229 -0.7902 -0.2163  0.0203
15345TIP3   OH267525   3.343   4.701   1.238 -0.2255  0.1450  0.5066
15345TIP3    H167526   3.283   4.670   1.170  2.0199 -1.7347 -0.7500
15345TIP3    H267527   3.349   4.629   1.301  1.6040 -0.2373 -0.0533
15346TIP3   OH267528   3.799   5.047   5.636 -0.3379  0.3895  0.1647
15346TIP3    H167529   3.893   5.057   5.620  0.0389 -1.1007  1.2466
15346TIP3    H267530   3.787   5.074   5.727 -0.8040 -0.2839  0.3106
15347TIP3   OH267531   0.302   2.825   4.501 -0.5749  0.4007  0.2594
15347TIP3    H167532   0.305   2.819   4.405 -0.0196  0.5623  0.2626
15347TIP3    H267533   0.391   2.803   4.529  0.3635  3.7948  0.5025
15348TIP3   OH267534   3.243   5.812   5.463  0.2251  0.0134 -0.9921
15348TIP3    H167535   3.170   5.872   5.450 -1.1952 -1.5110 -0.3090
15348TIP3    H267536   3.221   5.763   5.542  1.8618 -0.6781 -0.9192
15349TIP3   OH267537   3.368   5.687  12.595 -0.1713 -0.0514  0.4316
15349TIP3    H167538   3.425   5.620  12.558  1.0082  0.3733  1.3900
15349TIP3    H267539   3.400   5.698  12.684 -1.3241  0.7125  0.7682
15350TIP3   OH267540   4.804   1.229  14.287  0.1390 -0.5196  0.2836
15350TIP3    H167541   4.766   1.144  14.311 -0.0415 -0.0979  1.6021
15350TIP3    H267542   4.875   1.208  14.227 -0.1645 -1.5765  0.2806
15351TIP3   OH267543   2.732   0.979   1.602  0.3675 -0.2932  0.4487
15351TIP3    H167544   2.669   0.907   1.613  0.2767 -0.4162 -0.6747
15351TIP3    H267545   2.817   0.939   1.619  0.1144  0.1820  3.3220
15352TIP3   OH267546   5.625   6.215  12.079 -0.0282 -0.2404  0.5001
15352TIP3    H167547   5.618   6.308  12.058 -1.4825 -0.2112  1.0173
15352TIP3    H267548   5.659   6.175  11.999 -0.3957  0.5847 -0.0858
15353TIP3   OH267549   5.835   2.743  11.287  0.0762  0.4228 -0.2461
15353TIP3    H167550   5.839   2.650  11.308 -0.2050  0.4192 -0.1924
15353TIP3    H267551   5.760   2.751  11.228 -0.3263  0.7057  0.2880
15354TIP3   OH267552   0.407   1.530   2.159 -0.4156  0.2224  0.5761
15354TIP3    H167553   0.323   1.554   2.199  0.9866  0.7188  3.5510
15354TIP3    H267554   0.438   1.610   2.118 -1.0507  0.2300  0.1001
15355TIP3   OH267555   0.356   4.909  14.947 -0.0319 -0.2826  0.0266
15355TIP3    H167556   0.411   4.979  14.984  0.0082  0.5149 -1.4771
15355TIP3    H267557   0.295   4.887  15.018  1.6172 -0.5756  1.4279
15356TIP3   OH267558   4.155   5.038  14.704 -0.1429 -0.0883  0.1360
15356TIP3    H167559   4.083   5.069  14.760  1.7955  2.4693  1.4243
15356TIP3    H267560   4.188   5.117  14.661  0.6894 -1.4888 -1.9114
15357TIP3   OH267561   3.676   1.537   3.114 -0.0148  1.0527 -0.0901
15357TIP3    H167562   3.683   1.509   3.023  0.8010 -1.2027  0.5842
15357TIP3    H267563   3.589   1.507   3.142 -0.2297  1.6610 -0.1088
15358TIP3   OH267564   4.830   3.265  15.956 -0.2577 -0.7003  0.3780
15358TIP3    H167565   4.770   3.312  16.014  0.1674 -0.1826  0.4134
15358TIP3    H267566   4.915   3.270  16.001  0.1529  0.0101 -0.4302
15359TIP3   OH267567   6.290   4.204   3.627 -0.7113  0.3940 -0.8104
15359TIP3    H167568   6.330   4.210   3.540 -0.8086 -2.5014 -1.1637
15359TIP3    H267569   6.352   4.153   3.679 -2.1786 -0.9752 -0.2863
15360TIP3   OH267570   3.882   5.553  12.140 -0.1865  0.7448 -0.5305
15360TIP3    H167571   3.915   5.486  12.080 -0.6027 -0.6837  0.7572
15360TIP3    H267572   3.818   5.507  12.194  0.7258  1.7354  1.5165
15361TIP3   OH267573   4.788   2.812  16.240  0.0617 -0.1897 -0.4751
15361TIP3    H167574   4.830   2.746  16.295  0.5787  0.1118 -0.4996
15361TIP3    H267575   4.861   2.863  16.204 -0.3388  0.9147  0.1900
15362TIP3   OH267576   3.081   4.673  10.489  0.4513 -0.1987 -0.0805
15362TIP3    H167577   3.031   4.749  10.518  1.0139  0.3497 -0.5311
15362TIP3    H267578   3.154   4.709  10.439 -0.4951 -1.0583 -2.2574
15363TIP3   OH267579   1.830   6.729   1.601  0.0804  0.1240  0.0272
15363TIP3    H167580   1.833   6.695   1.691 -0.5477 -0.3059 -0.1048
15363TIP3    H267581   1.737   6.730   1.579  0.1841  0.7688 -0.4224
15364TIP3   OH267582   4.593   0.580   1.072  0.4903  0.4809 -0.1356
15364TIP3    H167583   4.661   0.640   1.104  2.5813 -1.5013 -0.5670
15364TIP3    H267584   4.531   0.573   1.144  0.6755  2.3988  0.2602
15365TIP3   OH267585   4.222   0.909   0.349  0.7922  0.7625 -0.4023
15365TIP3    H167586   4.134   0.905   0.386  0.8295 -1.9169 -0.4081
15365TIP3    H267587   4.212   0.959   0.268 -0.4704  1.4753  0.1610
15366TIP3   OH267588   5.140   5.955   2.846  0.7728  0.3587  0.3227
15366TIP3    H167589   5.112   5.887   2.907  0.6538  0.2136  0.1097
15366TIP3    H267590   5.060   5.978   2.797  0.7559  0.8263  0.5581
15367TIP3   OH267591   4.649   4.149  15.547  0.1942  0.1940  0.2560
15367TIP3    H167592   4.563   4.150  15.589 -0.0313 -2.6070  0.0337
15367TIP3    H267593   4.706   4.102  15.608  1.2941  0.9719 -0.1342
15368TIP3   OH267594   2.093   4.883   2.489 -0.1255 -0.6660  0.5302
15368TIP3    H167595   2.083   4.807   2.547  0.0989 -0.5693  0.6948
15368TIP3    H267596   2.156   4.939   2.533 -1.7259  0.5336  1.3529
15369TIP3   OH267597   6.077   6.437  12.273 -0.2370  1.1593  0.6712
15369TIP3    H167598   6.071   6.518  12.324  1.9932  1.4728  0.5267
15369TIP3    H267599   6.165   6.439  12.235 -0.0890 -1.3699  0.7202
15370TIP3   OH267600   4.122   1.825  14.031  0.4587 -0.1429 -0.3139
15370TIP3    H167601   4.184   1.842  14.102 -0.9828  1.6195  0.5990
15370TIP3    H267602   4.146   1.887  13.962  0.5751 -0.4586 -0.5653
15371TIP3   OH267603   4.072   1.061   2.617 -0.1186  0.0265  0.0604
15371TIP3    H167604   4.159   1.096   2.636 -0.7798  1.3021  0.9273
15371TIP3    H267605   4.039   1.119   2.548 -0.8097  0.4728  0.7437
15372TIP3   OH267606   4.980   4.602  12.979 -0.3013  0.3262  0.0741
15372TIP3    H167607   4.936   4.575  13.060  0.5202 -0.5263  0.2497
15372TIP3    H267608   5.073   4.589  12.997 -0.1245 -0.2493 -1.1477
15373TIP3   OH267609   1.503   1.687  12.266  0.0504 -0.3835  0.4563
15373TIP3    H167610   1.556   1.610  12.243 -0.7372 -1.2118  1.3707
15373TIP3    H267611   1.447   1.700  12.189  2.3133  1.2452 -1.0656
15374TIP3   OH267612   2.494   0.545   4.827  0.0998 -0.2839  0.8750
15374TIP3    H167613   2.550   0.615   4.792 -1.2538 -0.3597 -1.6944
15374TIP3    H267614   2.406   0.582   4.828 -0.4550 -1.5520  0.6575
15375TIP3   OH267615   2.731   3.132   1.087 -0.7347  0.2057 -0.1303
15375TIP3    H167616   2.705   3.194   1.155  1.9552  0.8054  0.4800
15375TIP3    H267617   2.670   3.059   1.096 -1.5173  1.0264  1.7852
15376TIP3   OH267618   5.555   2.658  14.720  0.2307 -0.6765  0.0757
15376TIP3    H167619   5.491   2.588  14.704 -0.0518 -0.5342  0.5498
15376TIP3    H267620   5.509   2.738  14.696  0.1175 -0.5470  0.7007
15377TIP3   OH267621   1.247   3.973  13.571 -0.9888 -0.2958 -0.1926
15377TIP3    H167622   1.341   3.990  13.567 -1.1430  0.8392  0.3591
15377TIP3    H267623   1.214   3.996  13.484 -0.6910 -1.1599 -0.5345
15378TIP3   OH267624   2.062   0.573   5.457 -0.4175  0.0409 -0.3626
15378TIP3    H167625   2.147   0.575   5.413 -0.0254 -1.5536  0.2353
15378TIP3    H267626   2.068   0.641   5.524  0.1785  0.3334 -0.7028
15379TIP3   OH267627   0.297   0.576  15.975  0.3463 -0.2705 -0.2094
15379TIP3    H167628   0.350   0.532  15.908 -1.2815 -1.1556 -0.9831
15379TIP3    H267629   0.282   0.508  16.041 -0.2742 -0.1965 -0.2721
15380TIP3   OH267630   4.370   5.361  13.444 -0.2264  0.5152 -0.5857
15380TIP3    H167631   4.276   5.352  13.428 -0.4233  1.4959 -0.0686
15380TIP3    H267632   4.411   5.311  13.374 -1.1179  0.8394 -1.3628
15381TIP3   OH267633   1.267   6.372   4.841 -0.4171  0.0750 -0.4635
15381TIP3    H167634   1.179   6.391   4.872 -0.2337 -0.0912  0.1746
15381TIP3    H267635   1.278   6.428   4.764 -0.8187  0.6238 -0.1288
15382TIP3   OH267636   0.499   2.387  11.509 -0.1735 -0.0907 -0.1168
15382TIP3    H167637   0.556   2.384  11.586  0.4928  2.0289 -0.4636
15382TIP3    H267638   0.417   2.423  11.541 -0.2798 -0.2529 -0.2030
15383TIP3   OH267639   0.485   5.383  13.586 -0.5431 -0.0259  0.3743
15383TIP3    H167640   0.460   5.475  13.595  2.9802  0.9444  1.7416
15383TIP3    H267641   0.466   5.362  13.494 -0.5923  2.3203 -0.2169
15384TIP3   OH267642   4.537   4.994  14.573 -0.3449  0.7049  0.0710
15384TIP3    H167643   4.582   4.944  14.505 -0.6882  0.5553 -0.0427
15384TIP3    H267644   4.466   5.039  14.528 -3.5198 -2.8874  0.9734
15385TIP3   OH267645   2.850   4.148   5.380 -0.4464 -0.0347  0.5186
15385TIP3    H167646   2.860   4.197   5.462  2.0426  0.6973 -0.1125
15385TIP3    H267647   2.876   4.059   5.402 -1.5211 -0.2709  0.8872
15386TIP3   OH267648   2.319   4.663  12.663 -0.2064 -0.0758 -0.3571
15386TIP3    H167649   2.410   4.693  12.671  0.1915 -1.1780 -0.7009
15386TIP3    H267650   2.275   4.733  12.614  0.9255 -0.4451 -1.9656
15387TIP3   OH267651   4.803   0.667   5.041  0.0205 -0.3935  0.6623
15387TIP3    H167652   4.769   0.757   5.038  0.2122 -0.3389  0.0082
15387TIP3    H267653   4.762   0.629   5.119 -1.0321 -0.1261  0.2525
15388TIP3   OH267654   3.241   3.149   2.587  0.0798  0.6240  0.1112
15388TIP3    H167655   3.230   3.135   2.681 -2.1813 -0.5906 -0.2881
15388TIP3    H267656   3.333   3.126   2.571  0.5464  0.9375  1.9991
15389TIP3   OH267657   2.768   0.439  15.895  0.0681 -0.6097 -0.8660
15389TIP3    H167658   2.699   0.479  15.947 -0.8848 -0.8424 -1.9139
15389TIP3    H267659   2.809   0.512  15.849 -0.2314 -0.5854 -1.0998
15390TIP3   OH267660   4.446   2.855   0.138 -0.0528  0.3413  0.2283
15390TIP3    H167661   4.381   2.825   0.201  1.1056 -0.9916  0.8437
15390TIP3    H267662   4.460   2.781   0.080  3.3626 -0.7915  2.1814
15391TIP3   OH267663   4.926   6.691  16.013  0.3879 -0.0606  0.3266
15391TIP3    H167664   4.964   6.703  16.100  0.7351  0.6464  0.0794
15391TIP3    H267665   4.831   6.701  16.026  0.3269 -1.1018  0.8122
15392TIP3   OH267666   4.405   6.764   5.891 -0.6728  0.1129  0.0432
15392TIP3    H167667   4.424   6.765   5.984 -0.4910  0.9107  0.0055
15392TIP3    H267668   4.347   6.839   5.878 -0.2880  0.3112 -0.5661
15393TIP3   OH267669   0.060   6.314  13.463  0.2553 -0.0377 -0.2575
15393TIP3    H167670   0.006   6.246  13.504 -0.8554  1.0100  0.1082
15393TIP3    H267671   0.056   6.295  13.370  0.5510 -0.8869 -0.1002
15394TIP3   OH267672   4.428   6.282  12.081  0.7733  0.3230  0.0416
15394TIP3    H167673   4.428   6.373  12.051 -0.1320  0.0763 -0.7802
15394TIP3    H267674   4.342   6.248  12.055  1.0132 -0.7056  0.5219
15395TIP3   OH267675   5.331   0.407   1.208 -0.1395 -0.1845 -0.5743
15395TIP3    H167676   5.415   0.404   1.163 -0.8320  0.5292 -1.9698
15395TIP3    H267677   5.276   0.462   1.153 -0.5417  2.2326  2.0091
15396TIP3   OH267678   5.752   5.863   1.787 -0.1112 -0.2217  0.4960
15396TIP3    H167679   5.768   5.942   1.838  0.9225  0.4938 -0.8486
15396TIP3    H267680   5.721   5.799   1.850 -1.3352  1.3543  1.5565
15397TIP3   OH267681   0.453   2.109  16.406  0.0732  0.1978 -0.0483
15397TIP3    H167682   0.405   2.069  16.334  1.2936  1.5833 -1.7398
15397TIP3    H267683   0.525   2.048  16.424 -0.0033  0.0328 -0.2968
15398TIP3   OH267684   5.130   3.622   0.897 -0.6385 -0.4618 -0.0204
15398TIP3    H167685   5.063   3.615   0.828  0.0698  0.0263 -0.7716
15398TIP3    H267686   5.114   3.708   0.937 -1.1432 -0.8077  0.5303
15399TIP3   OH267687   2.060   3.535  16.384 -0.1708  0.6720 -0.7020
15399TIP3    H167688   2.117   3.556  16.457  1.3733  1.1847 -1.9858
15399TIP3    H267689   2.066   3.440  16.376  0.2956  0.6899 -0.6320
15400TIP3   OH267690   0.964   4.411   1.777 -0.0684 -0.2823 -0.0316
15400TIP3    H167691   0.869   4.399   1.775 -0.0318 -0.4986 -0.9806
15400TIP3    H267692   0.996   4.370   1.696  0.8977 -0.7114  0.5486
15401TIP3   OH267693   1.560   3.642   4.361 -0.3422  0.0498 -0.1624
15401TIP3    H167694   1.514   3.668   4.282  0.6921 -0.5629 -0.9966
15401TIP3    H267695   1.641   3.693   4.359 -0.3092  0.0327  0.5053
15402TIP3   OH267696   5.881   6.123  16.962  0.0923 -0.5201 -0.0829
15402TIP3    H167697   5.903   6.183  17.034 -1.7241 -0.1215  0.2000
15402TIP3    H267698   5.912   6.169  16.884 -0.8929  0.6354  0.1669
15403TIP3   OH267699   6.063   2.248   6.012 -0.4749 -0.2369 -0.5874
15403TIP3    H167700   6.119   2.268   5.938 -0.5098  0.1923 -0.4988
15403TIP3    H267701   6.070   2.153   6.023  0.6889 -0.1179 -0.2138
15404TIP3   OH267702   2.947   2.744  13.431 -1.1592 -0.0636  0.5152
15404TIP3    H167703   2.949   2.667  13.374  0.7693 -0.0474  0.5051
15404TIP3    H267704   2.888   2.719  13.503 -0.4878 -1.5973  0.5740
15405TIP3   OH267705   2.574   3.036   0.620 -0.0044  1.0174  0.1755
15405TIP3    H167706   2.531   2.964   0.574 -0.1316  1.3179 -0.1887
15405TIP3    H267707   2.559   3.018   0.712  0.0339  0.5373  0.0937
15406TIP3   OH267708   3.003   1.703  15.702  0.3407 -0.2575 -0.1622
15406TIP3    H167709   3.058   1.637  15.660  1.7839  0.4996  0.4585
15406TIP3    H267710   2.915   1.687  15.668  0.9179 -1.5925 -1.0900
15407TIP3   OH267711   6.021   6.272  14.951 -0.1464  0.7635  0.2291
15407TIP3    H167712   5.967   6.234  14.882  0.1528  1.1084 -0.1959
15407TIP3    H267713   6.102   6.298  14.907  1.4507 -2.0205  1.2892
15408TIP3   OH267714   5.097   1.039   3.629 -0.2016  0.1735  0.3990
15408TIP3    H167715   5.092   1.034   3.725 -2.2069 -0.1624  0.3058
15408TIP3    H267716   5.054   1.121   3.607 -1.3724 -0.5922 -0.2878
15409TIP3   OH267717   0.277   1.315  12.217 -0.2509  0.3309 -0.1599
15409TIP3    H167718   0.222   1.262  12.160 -0.5350  0.9874 -0.5141
15409TIP3    H267719   0.273   1.403  12.178  2.0815  0.1492 -0.9472
15410TIP3   OH267720   4.504   1.518   3.929 -0.0938  0.1263  0.1216
15410TIP3    H167721   4.412   1.547   3.930  0.1876  1.0806 -0.4554
15410TIP3    H267722   4.540   1.557   3.849  0.5907 -0.9652 -0.1168
15411TIP3   OH267723   6.007   4.583   4.955 -0.7789  0.1415  0.0313
15411TIP3    H167724   6.090   4.631   4.959 -0.4086 -0.5131  0.5782
15411TIP3    H267725   5.994   4.566   4.862 -1.8064  2.7537 -0.3678
15412TIP3   OH267726   6.078   4.125  11.026  0.2226 -0.0868 -0.0113
15412TIP3    H167727   6.036   4.197  11.074  1.2427  0.6690 -0.2312
15412TIP3    H267728   6.018   4.107  10.953 -0.5435 -0.1602  0.6205
15413TIP3   OH267729   6.161   2.384  15.499  0.4922 -0.3274  0.2121
15413TIP3    H167730   6.160   2.473  15.534 -0.1209 -0.1343 -0.2723
15413TIP3    H267731   6.103   2.388  15.423  0.1051 -1.2484  0.4463
15414TIP3   OH267732   1.088   0.164   1.503 -0.1112  0.0244 -0.2507
15414TIP3    H167733   1.136   0.167   1.420 -0.5049 -0.7082 -0.5135
15414TIP3    H267734   1.046   0.250   1.509  0.4654  0.3310 -0.4751
15415TIP3   OH267735   3.086   2.655   5.301 -0.0520 -0.8294 -0.2211
15415TIP3    H167736   3.013   2.665   5.362  0.4803  0.2955  0.2708
15415TIP3    H267737   3.085   2.736   5.250  1.0268 -0.6651  0.0016
15416TIP3   OH267738   2.406   2.901  15.714  0.1691 -0.3126 -0.2986
15416TIP3    H167739   2.450   2.882  15.797  1.6716 -1.1554 -1.2407
15416TIP3    H267740   2.341   2.968  15.736  0.5772 -0.4559  1.5292
15417TIP3   OH267741   1.914   2.099  15.171  0.0434 -0.0819  0.2088
15417TIP3    H167742   1.850   2.082  15.240  1.5687 -0.1665  1.6860
15417TIP3    H267743   1.909   2.022  15.114 -0.9216 -0.2288  0.4697
15418TIP3   OH267744   2.217   4.533  16.431 -0.4699  0.0666 -0.9556
15418TIP3    H167745   2.168   4.551  16.351 -0.9297  0.4759 -0.5885
15418TIP3    H267746   2.163   4.569  16.502 -0.8671 -1.7175 -0.2937
15419TIP3   OH267747   6.303   0.717   2.200 -0.0555  0.4291  0.1123
15419TIP3    H167748   6.260   0.678   2.276 -2.3286 -0.9905 -1.7646
15419TIP3    H267749   6.335   0.802   2.231 -1.2781  0.0747  2.5146
15420TIP3   OH267750   0.378   1.265  16.934  0.6966  0.1711 -0.3828
15420TIP3    H167751   0.445   1.326  16.903  1.8436 -0.3970  0.8397
15420TIP3    H267752   0.359   1.294  17.023  0.3046 -0.4750 -0.2499
15421TIP3   OH267753   1.837   5.095   0.282 -0.3502  0.2118  0.7490
15421TIP3    H167754   1.754   5.138   0.301 -1.1352 -0.7210 -0.3509
15421TIP3    H267755   1.903   5.163   0.293 -1.2510  0.9730  1.6702
15422TIP3   OH267756   2.874   5.434  17.021 -1.0560 -0.2368 -0.2118
15422TIP3    H167757   2.795   5.382  17.034 -0.3019 -1.3769 -0.0655
15422TIP3    H267758   2.868   5.466  16.931 -1.0830 -1.3766 -0.6316
15423TIP3   OH267759   2.970   6.445  15.609 -0.4670 -0.0981 -1.2010
15423TIP3    H167760   2.995   6.355  15.628 -0.6459 -0.2360 -1.6225
15423TIP3    H267761   2.903   6.466  15.674 -0.1278 -0.1273 -0.8381
15424TIP3   OH267762   2.123   3.217   2.258 -0.1413 -0.1909  0.6754
15424TIP3    H167763   2.057   3.167   2.306 -0.3410 -0.8769 -0.2834
15424TIP3    H267764   2.077   3.251   2.181  0.6607 -0.9115 -0.1564
15425TIP3   OH267765   6.587   6.478   6.074  0.0008 -0.4570  0.4537
15425TIP3    H167766   6.619   6.400   6.118  1.0569 -0.0614  0.4235
15425TIP3    H267767   6.531   6.521   6.138 -0.6210 -1.2537  0.4536
15426TIP3   OH267768   2.472   6.725   0.968  0.4241 -0.0642 -0.2007
15426TIP3    H167769   2.508   6.813   0.953 -0.1322  0.1208 -0.4871
15426TIP3    H267770   2.536   6.682   1.023  0.6348  0.5787  0.0662
15427TIP3   OH267771   0.263   0.950   3.627 -0.0728  0.2688 -0.2941
15427TIP3    H167772   0.254   1.043   3.611 -0.9457  0.4360  1.0108
15427TIP3    H267773   0.348   0.941   3.670  0.4840  0.3090 -1.3524
15428TIP3   OH267774   4.387   2.669  12.088  0.3228 -0.4492  0.3588
15428TIP3    H167775   4.358   2.589  12.045  0.4036 -0.6489  0.6724
15428TIP3    H267776   4.352   2.662  12.178 -1.4074  0.7789 -0.1525
15429TIP3   OH267777   4.418   4.585  13.651  0.4175  0.1081  0.1167
15429TIP3    H167778   4.351   4.608  13.586 -0.0683  1.7864  1.1591
15429TIP3    H267779   4.497   4.628  13.620  1.7561 -3.6080 -2.2931
15430TIP3   OH267780   5.373   4.566   4.912 -0.0292 -0.1472  0.2297
15430TIP3    H167781   5.305   4.633   4.905 -0.5223 -0.4764  1.6067
15430TIP3    H267782   5.407   4.575   5.001  2.8968  1.0669 -0.8761
15431TIP3   OH267783   6.624   1.113   0.007  0.4505 -0.0451  0.1271
15431TIP3    H167784   6.558   1.045  -0.002  1.1860 -0.7181 -0.2766
15431TIP3    H267785   6.637   1.122   0.102  1.3389 -1.4560  0.1615
15432TIP3   OH267786   4.133   3.800  12.457 -0.1843 -0.5279  0.4276
15432TIP3    H167787   4.113   3.893  12.467  0.8252 -0.0160 -1.7709
15432TIP3    H267788   4.209   3.787  12.513  0.3566  0.2580 -0.0962
15433TIP3   OH267789   2.916   3.321  15.640 -0.5622  0.1134 -0.1092
15433TIP3    H167790   2.998   3.358  15.608 -0.5888 -0.4147 -0.8028
15433TIP3    H267791   2.881   3.272  15.566  0.4735 -3.0203  1.2870
15434TIP3   OH267792   6.386   0.022   4.195 -0.2565  0.0678  0.6140
15434TIP3    H167793   6.463  -0.011   4.150  0.2487  0.7641  0.9456
15434TIP3    H267794   6.411   0.027   4.287 -0.2712  1.4085  0.5761
15435TIP3   OH267795   2.520   3.953   6.692 -0.2928  0.4711 -0.8446
15435TIP3    H167796   2.585   3.916   6.753 -0.1820  0.9220 -0.6861
15435TIP3    H267797   2.455   3.883   6.682 -0.0938  0.2362 -0.5378
15436TIP3   OH267798   6.191   0.583   4.844 -0.5621 -0.4331 -0.4434
15436TIP3    H167799   6.264   0.521   4.846 -0.7865 -0.6897 -0.1993
15436TIP3    H267800   6.198   0.624   4.758 -1.7396 -2.3986 -1.5378
15437TIP3   OH267801   5.739   6.322  15.832  0.1964  0.3085 -0.3870
15437TIP3    H167802   5.717   6.362  15.917  1.5556  0.5482 -0.1219
15437TIP3    H267803   5.821   6.364  15.807 -0.6325  0.8819 -2.2706
15438TIP3   OH267804   5.429   4.036   1.593 -0.5065 -0.1459 -0.7982
15438TIP3    H167805   5.387   3.976   1.654 -0.9372  1.8837  1.0414
15438TIP3    H267806   5.476   3.980   1.531 -1.2606 -2.3296  0.5270
15439TIP3   OH267807   6.609   2.487  10.888 -0.5404 -0.2872 -0.0142
15439TIP3    H167808   6.574   2.522  10.807  0.1842  0.1799 -0.1305
15439TIP3    H267809   6.539   2.499  10.952 -0.8189  0.0737 -0.3839
15440TIP3   OH267810   2.778   6.316  17.208 -0.0391  0.0356  0.3196
15440TIP3    H167811   2.732   6.295  17.127  1.2822 -1.1269 -0.1669
15440TIP3    H267812   2.774   6.236  17.261  1.3944 -0.1155  0.2495
15441TIP3   OH267813   1.415   4.513   1.913 -0.6129 -0.1142  0.3694
15441TIP3    H167814   1.330   4.480   1.940 -0.6534 -1.2238 -1.0139
15441TIP3    H267815   1.470   4.505   1.991 -1.5477 -0.1456  1.0374
15442TIP3   OH267816   6.337   6.820   3.609  0.6631 -0.5407  0.1840
15442TIP3    H167817   6.259   6.874   3.596  0.0124 -1.5979 -0.4217
15442TIP3    H267818   6.409   6.875   3.580 -0.2189 -0.8546 -2.9263
15443TIP3   OH267819   1.805   4.617   5.141  0.4348 -0.2443 -0.9374
15443TIP3    H167820   1.789   4.637   5.048 -0.0799 -1.4805 -1.1290
15443TIP3    H267821   1.730   4.656   5.186 -1.8471 -3.5117 -1.5487
15444TIP3   OH267822   0.056   6.641  15.447 -0.5457 -0.4921 -0.8106
15444TIP3    H167823   0.096   6.663  15.531 -0.8262 -0.9782 -0.5495
15444TIP3    H267824  -0.015   6.581  15.468 -0.0912 -1.2903 -1.4652
15445TIP3   OH267825   4.558   3.825  14.599  0.4876 -0.0287  0.0592
15445TIP3    H167826   4.493   3.779  14.547  0.1475  0.1893  0.2936
15445TIP3    H267827   4.598   3.757  14.653 -2.3488  0.3487  2.9474
15446TIP3   OH267828   6.717   1.770  14.280 -0.0933  0.1523  0.4049
15446TIP3    H167829   6.743   1.823  14.204 -0.4847 -0.8414 -0.4473
15446TIP3    H267830   6.775   1.694  14.276 -0.8678 -0.4448  0.4524
15447TIP3   OH267831   2.546   1.153  15.792 -0.3863 -0.2981 -0.3080
15447TIP3    H167832   2.467   1.102  15.777  0.6922 -2.4117  0.8296
15447TIP3    H267833   2.606   1.093  15.836  2.3189  0.8232 -2.1597
15448TIP3   OH267834   4.176   1.466  15.768  0.2993 -0.0085  0.3301
15448TIP3    H167835   4.240   1.439  15.703 -1.4161 -1.4639 -0.8519
15448TIP3    H267836   4.160   1.388  15.821 -0.0474  0.5028  1.0004
15449TIP3   OH267837   4.262   4.870   5.249  0.2847  0.1277 -0.1493
15449TIP3    H167838   4.171   4.900   5.246  0.8624  2.2541  1.7012
15449TIP3    H267839   4.302   4.906   5.170  0.0397  1.0292  0.1354
15450TIP3   OH267840   5.501   2.348   4.877  0.2021 -0.1794  0.8623
15450TIP3    H167841   5.453   2.281   4.927 -0.0376  0.4335  1.4755
15450TIP3    H267842   5.489   2.429   4.928 -2.2781  1.0963 -1.5061
15451TIP3   OH267843   5.476   5.248   3.084 -0.3267  0.0329  0.8300
15451TIP3    H167844   5.397   5.245   3.137  0.4793  0.4183  2.0958
15451TIP3    H267845   5.548   5.248   3.148  0.6664  1.8585 -0.1994
15452TIP3   OH267846   1.438   6.688  10.545 -0.0085 -0.2903  0.1237
15452TIP3    H167847   1.500   6.655  10.610 -0.1736 -0.4598  0.1957
15452TIP3    H267848   1.383   6.613  10.524 -1.0124  0.1551  1.0052
15453TIP3   OH267849   5.630   6.155   5.446 -0.3847  0.0469  0.1485
15453TIP3    H167850   5.654   6.065   5.471 -3.2249 -0.4979  1.3027
15453TIP3    H267851   5.650   6.160   5.353  0.3968 -1.5818  0.1888
15454TIP3   OH267852   1.901   2.327  11.258 -0.5204 -0.0547 -0.1699
15454TIP3    H167853   1.991   2.360  11.248 -0.4348 -0.1621  0.2461
15454TIP3    H267854   1.856   2.393  11.310 -0.0514 -1.0758  1.6324
15455TIP3   OH267855   2.164   2.750  11.569 -0.0881 -0.2044 -0.5891
15455TIP3    H167856   2.229   2.722  11.505  1.4179 -1.0452  1.1882
15455TIP3    H267857   2.104   2.676  11.577  0.2631 -0.4684 -0.3753
15456TIP3   OH267858   2.538   0.081   2.951  0.0889 -0.2663 -0.3230
15456TIP3    H167859   2.444   0.077   2.969  0.4640  0.0713  2.0987
15456TIP3    H267860   2.579   0.047   3.031  2.0677  2.0039 -0.2629
15457TIP3   OH267861   3.072   0.453  12.019 -0.6906 -0.2403 -0.2946
15457TIP3    H167862   3.150   0.508  12.008 -1.2163  0.3118 -1.3718
15457TIP3    H267863   3.061   0.447  12.114 -0.0426  0.6876 -0.1467
15458TIP3   OH267864   2.986   0.156  13.183  0.3631 -0.0963  0.3629
15458TIP3    H167865   2.998   0.239  13.229 -0.6954 -0.1573  0.7960
15458TIP3    H267866   3.064   0.105  13.203  1.0739  0.8295 -0.0028
15459TIP3   OH267867   1.415   6.780   0.261 -0.0558  0.1407  0.3886
15459TIP3    H167868   1.461   6.845   0.208  1.3625  0.9184  2.4432
15459TIP3    H267869   1.406   6.821   0.347 -2.4889 -0.9652  0.7411
15460TIP3   OH267870   1.250   6.810   0.964 -0.0243  0.0757  0.4621
15460TIP3    H167871   1.294   6.822   1.048 -0.2641  2.2152  0.3418
15460TIP3    H267872   1.170   6.762   0.984 -0.0832  0.5783  1.4568
15461TIP3   OH267873   0.262   5.405  15.788  0.0249 -0.1330 -0.2501
15461TIP3    H167874   0.241   5.311  15.787  1.0304 -0.3920  0.8088
15461TIP3    H267875   0.357   5.408  15.774 -0.0287  0.7452 -0.4444
15462TIP3   OH267876   2.287   5.516  14.537  0.2103  0.0134  0.2957
15462TIP3    H167877   2.266   5.558  14.453 -1.3797 -1.1750  0.0591
15462TIP3    H267878   2.206   5.522  14.587 -0.0427 -2.5665  0.3175
15463TIP3   OH267879   3.517   4.629   4.363 -0.7172  0.0611  0.3105
15463TIP3    H167880   3.456   4.660   4.295  1.0049  0.7784 -0.9696
15463TIP3    H267881   3.565   4.707   4.390  0.2691 -0.6432  0.6381
15464TIP3   OH267882   1.928   6.753  12.890  0.4344 -0.0575 -0.3980
15464TIP3    H167883   1.911   6.679  12.948  2.1590 -1.8614 -2.0634
15464TIP3    H267884   1.972   6.817  12.945 -0.6864 -0.4303  0.9751
15465TIP3   OH267885   2.232   5.453  12.947 -0.2054  0.3852 -0.1162
15465TIP3    H167886   2.305   5.401  12.915 -1.1223 -1.3083  0.4022
15465TIP3    H267887   2.267   5.501  13.022  0.1747 -1.2376  0.8185
15466TIP3   OH267888   4.935   5.835  11.413 -0.3128  0.2078  0.1708
15466TIP3    H167889   5.024   5.854  11.385 -0.9375  1.7786 -0.8566
15466TIP3    H267890   4.917   5.901  11.481 -0.3218 -0.8389  1.2315
15467TIP3   OH267891   2.630   4.173  13.052  0.4884 -0.1209  0.2692
15467TIP3    H167892   2.591   4.109  12.993 -3.1116  2.3091 -0.2692
15467TIP3    H267893   2.683   4.229  12.994 -0.3665  0.2913 -0.1293
15468TIP3   OH267894   5.058   1.381  13.224  0.0146  0.2387 -0.0608
15468TIP3    H167895   4.972   1.349  13.194  0.3268  0.6061 -1.4339
15468TIP3    H267896   5.112   1.379  13.145  0.9246  1.1667  0.5277
15469TIP3   OH267897   2.371   6.661  12.546  0.1386 -0.4733  0.2554
15469TIP3    H167898   2.338   6.580  12.586  1.0992 -0.4999  1.0193
15469TIP3    H267899   2.411   6.710  12.618  1.1716 -0.1482 -0.5028
15470TIP3   OH267900   2.911   2.769   0.365 -0.9049 -0.1485  0.2754
15470TIP3    H167901   2.933   2.799   0.277  2.3836  0.3984  1.1620
15470TIP3    H267902   2.975   2.700   0.383 -1.4134 -0.1507  2.2749
15471TIP3   OH267903   5.699   5.749   2.699 -0.5262  0.5856 -0.0342
15471TIP3    H167904   5.625   5.692   2.678 -0.6615  0.6465  0.2810
15471TIP3    H267905   5.665   5.838   2.688 -0.4313  0.6120 -0.1239
15472TIP3   OH267906   0.128   4.275  15.458 -0.3536 -0.2576  0.0468
15472TIP3    H167907   0.171   4.299  15.540 -0.2273  0.6654 -0.2787
15472TIP3    H267908   0.198   4.276  15.392 -0.6389  0.0584 -0.2599
15473TIP3   OH267909   2.038   3.601   1.029  0.2214  0.0370  0.0793
15473TIP3    H167910   2.123   3.629   1.062  0.4874  0.2450 -0.7675
15473TIP3    H267911   2.026   3.513   1.065  1.0631 -0.2335 -0.2628
15474TIP3   OH267912   3.900   6.065   4.398 -0.1447  0.4810 -0.5334
15474TIP3    H167913   3.960   6.028   4.463 -0.6737  0.7123  0.0994
15474TIP3    H267914   3.813   6.037   4.428 -0.5558  2.1125 -0.1024
15475TIP3   OH267915   0.692   3.679   0.045  0.0666 -0.5177 -0.1654
15475TIP3    H167916   0.680   3.592   0.009 -1.9216 -0.4452  0.2276
15475TIP3    H267917   0.704   3.665   0.139 -3.5359 -0.3050  0.4728
15476TIP3   OH267918   2.506   0.838   2.089  0.2223  0.7102  0.4625
15476TIP3    H167919   2.559   0.769   2.049 -2.4860  0.0015 -2.3266
15476TIP3    H267920   2.430   0.793   2.125 -0.5726  1.9963  0.4839
15477TIP3   OH267921   0.156   1.960   4.700  0.2296 -0.0277 -0.1651
15477TIP3    H167922   0.241   1.942   4.740  0.0754 -0.4852 -0.0328
15477TIP3    H267923   0.137   1.882   4.647 -0.1353  0.0399 -0.1391
15478TIP3   OH267924   2.806   1.824  14.075 -0.2244 -0.1507 -0.1067
15478TIP3    H167925   2.804   1.905  14.126 -0.6694 -1.0376  1.3405
15478TIP3    H267926   2.870   1.769  14.119  0.2788 -0.5097 -1.2436
15479TIP3   OH267927   6.163   4.042  12.433 -0.2564  0.7060  0.1296
15479TIP3    H167928   6.244   4.044  12.383  0.6439 -0.7274  1.4455
15479TIP3    H267929   6.156   4.129  12.471 -0.0207  1.2396 -1.0113
15480TIP3   OH267930   5.288   6.187   5.205  0.2268 -0.4175  0.7389
15480TIP3    H167931   5.218   6.175   5.140  3.0583 -1.5057 -2.3769
15480TIP3    H267932   5.322   6.275   5.188  0.7045 -0.5319  1.0829
15481TIP3   OH267933   5.221   5.471   5.056 -0.2960  0.8363 -0.4456
15481TIP3    H167934   5.139   5.424   5.043 -0.1551  0.6547 -0.6832
15481TIP3    H267935   5.230   5.525   4.978 -0.3646  1.1213 -0.2580
15482TIP3   OH267936   5.430   0.115   4.295  0.2177 -0.0116 -0.0777
15482TIP3    H167937   5.438   0.168   4.216 -2.3993  1.3253  0.4387
15482TIP3    H267938   5.424   0.025   4.263  1.8110  0.2326 -1.1818
15483TIP3   OH267939   2.002   6.366  13.999 -0.1243 -0.0504  0.0547
15483TIP3    H167940   2.067   6.350  14.068 -1.5884 -0.2873  1.4303
15483TIP3    H267941   2.052   6.359  13.917  1.4786 -0.6897  1.0397
15484TIP3   OH267942   0.163   5.233   0.807 -0.4061  0.2390  0.3024
15484TIP3    H167943   0.098   5.175   0.767 -0.1615  0.6122 -0.6513
15484TIP3    H267944   0.187   5.188   0.888 -0.3920 -0.8933 -0.3085
15485TIP3   OH267945   0.505   6.308   1.351  0.3186  0.6493 -0.5569
15485TIP3    H167946   0.498   6.236   1.289  0.3944  1.3057 -1.3537
15485TIP3    H267947   0.431   6.297   1.410 -0.4519  0.6875 -1.4960
15486TIP3   OH267948   1.311   4.649   2.273  0.0567 -0.1760 -0.2635
15486TIP3    H167949   1.362   4.568   2.272 -0.1676 -0.3387 -2.3416
15486TIP3    H267950   1.277   4.657   2.184 -2.0250  0.9046  0.5657
15487TIP3   OH267951   6.576   6.512   3.839 -0.1887 -0.0582  0.1699
15487TIP3    H167952   6.487   6.493   3.869 -0.4750 -0.0125 -0.6326
15487TIP3    H267953   6.631   6.454   3.891 -0.7067 -0.2612  0.5077
15488TIP3   OH267954   3.463   1.632   0.814  0.2932  0.1213 -0.4694
15488TIP3    H167955   3.401   1.686   0.765 -1.2163 -0.9167  0.2157
15488TIP3    H267956   3.436   1.542   0.796 -0.0554 -0.3126  1.8791
15489TIP3   OH267957   0.200   6.090  10.890  0.6057  0.3568  0.0655
15489TIP3    H167958   0.237   6.153  10.829 -1.6249  0.9429 -0.7895
15489TIP3    H267959   0.229   6.005  10.857  1.5115  0.7957 -0.2932
15490TIP3   OH267960   6.343   1.751   2.128  0.3026  0.1393 -0.2844
15490TIP3    H167961   6.284   1.680   2.102  0.8267 -0.2572 -0.4203
15490TIP3    H267962   6.430   1.710   2.129  0.2219 -0.2334  3.3064
15491TIP3   OH267963   1.396   5.637   4.442  0.4720 -0.3632 -0.9208
15491TIP3    H167964   1.356   5.724   4.439 -0.4167 -0.7489 -0.4456
15491TIP3    H267965   1.466   5.646   4.507  1.5887  0.4681 -2.1757
15492TIP3   OH267966   6.689   3.145   3.073  0.0466 -0.3930 -0.1166
15492TIP3    H167967   6.744   3.098   3.136  0.0635 -1.9529 -1.2499
15492TIP3    H267968   6.745   3.158   2.997  0.1027  1.6973  0.2069
15493TIP3   OH267969   4.077   1.019   1.178 -0.0468  0.2454  0.9444
15493TIP3    H167970   4.062   0.924   1.181 -0.5861  0.3477  2.1815
15493TIP3    H267971   4.171   1.028   1.192  0.4590 -0.1871 -1.7534
15494TIP3   OH267972   6.815   1.185  16.380 -0.3880  0.0152  0.4474
15494TIP3    H167973   6.841   1.117  16.318  1.0560  0.1958  0.7989
15494TIP3    H267974   6.801   1.263  16.326 -0.9609 -0.2889  0.1585
15495TIP3   OH267975   1.009   3.957  15.801 -0.2633 -0.2692 -0.2668
15495TIP3    H167976   1.000   4.036  15.854  0.4184 -0.0621 -0.4498
15495TIP3    H267977   0.946   3.896  15.838 -0.5949  0.2612  0.0587
15496TIP3   OH267978   5.721   4.007  12.701  0.4296  0.4057 -0.6620
15496TIP3    H167979   5.670   4.010  12.619  1.0267 -0.0370 -1.0543
15496TIP3    H267980   5.811   3.990  12.673  0.4815 -0.7493  0.1580
15497TIP3   OH267981   3.124   1.944  12.853 -0.2687 -0.2541  0.1218
15497TIP3    H167982   3.129   1.849  12.844 -0.2169 -0.1671 -0.8471
15497TIP3    H267983   3.041   1.960  12.898 -1.4843 -0.6382 -1.9057
15498TIP3   OH267984   2.720   3.296  11.810  0.0510  0.1065  0.0627
15498TIP3    H167985   2.665   3.226  11.846  0.6995  0.6704  2.3007
15498TIP3    H267986   2.763   3.256  11.734 -0.3674 -1.5813  0.6666
15499TIP3   OH267987   4.385   0.325   3.717 -0.0217  0.5270 -0.3064
15499TIP3    H167988   4.330   0.261   3.761 -1.7131  2.3227  0.3339
15499TIP3    H267989   4.350   0.330   3.628  0.7473 -0.1360 -0.6530
15500TIP3   OH267990   2.558   4.255  17.268 -0.4104 -0.4685 -0.6366
15500TIP3    H167991   2.634   4.295  17.227 -0.0916 -0.5166 -0.1064
15500TIP3    H267992   2.592   4.177  17.312 -0.5455  0.1004  0.5392
15501TIP3   OH267993   6.478   3.272  12.557  0.8000  0.4049 -0.0917
15501TIP3    H167994   6.404   3.223  12.593  2.0969 -0.9079  0.9314
15501TIP3    H267995   6.528   3.208  12.508  1.1553  1.3245 -0.9608
15502TIP3   OH267996   3.201   3.129  16.190 -0.1356 -0.6199  0.5135
15502TIP3    H167997   3.165   3.208  16.149  1.1930 -0.7760 -1.0397
15502TIP3    H267998   3.267   3.161  16.251 -0.7992 -0.4846  1.1879
15503TIP3   OH267999   4.788   1.815  16.172  0.3062  0.3448 -0.0419
15503TIP3    H168000   4.721   1.877  16.202 -0.8198 -0.4725 -0.8060
15503TIP3    H268001   4.739   1.737  16.148  1.3024  0.4299 -2.6108
15504TIP3   OH268002   0.988   2.917   5.498  0.0542  0.6708  0.1526
15504TIP3    H168003   1.004   2.946   5.588  1.6130 -0.5558  0.3205
15504TIP3    H268004   1.064   2.949   5.449  0.6098 -0.9814 -0.1322
15505TIP3   OH268005   5.209   1.068  15.103  0.5497 -0.0440  0.3246
15505TIP3    H168006   5.223   1.074  15.009 -0.3463  2.0674  0.2754
15505TIP3    H268007   5.116   1.048  15.112  0.5103  0.3339  0.7689
15506TIP3   OH268008   2.521   1.927  13.015  0.4566  0.1083  0.7035
15506TIP3    H168009   2.476   1.844  13.028 -2.3985  1.1558 -1.3492
15506TIP3    H268010   2.455   1.993  13.039  2.0385  1.7905  0.6218
15507TIP3   OH268011   2.327   5.942   0.579  0.2503  0.1503  0.8412
15507TIP3    H168012   2.312   6.024   0.531 -0.0528 -1.1642 -1.4794
15507TIP3    H268013   2.248   5.930   0.631 -0.4676  0.5105 -0.1207
15508TIP3   OH268014   1.895   6.385  17.044  0.2344  0.2073  0.4686
15508TIP3    H168015   1.902   6.291  17.030 -1.8953  0.1549 -0.7103
15508TIP3    H268016   1.977   6.421  17.011  0.7017 -1.1672  0.0870
15509TIP3   OH268017   0.454   3.556  16.280 -0.6407 -0.2959  0.5505
15509TIP3    H168018   0.435   3.641  16.238  0.4558 -1.4268 -2.4657
15509TIP3    H268019   0.547   3.542  16.266 -0.0419 -0.5894  3.9791
15510TIP3   OH268020   0.073   2.091   3.325 -0.4049 -0.0439 -0.1469
15510TIP3    H168021   0.083   2.186   3.326 -1.4460  0.0746  0.0016
15510TIP3    H268022   0.118   2.062   3.246  1.0791  0.4262  0.4985
15511TIP3   OH268023   0.366   5.471  10.940 -0.0276 -0.3291  0.0079
15511TIP3    H168024   0.366   5.532  11.014 -0.3580 -0.3166 -0.0019
15511TIP3    H268025   0.320   5.517  10.871  0.5306 -0.2272 -0.3054
15512TIP3   OH268026   4.116   0.810  12.029  0.2743 -0.4137 -0.0426
15512TIP3    H168027   4.074   0.893  12.051  0.7856  0.1076 -0.9418
15512TIP3    H268028   4.060   0.743  12.067  0.4469  0.3687  1.6789
15513TIP3   OH268029   0.162   5.921  15.026 -0.4182  0.2681  0.5632
15513TIP3    H168030   0.158   6.006  15.071 -1.2515  0.8148 -0.4905
15513TIP3    H268031   0.171   5.944  14.933 -0.2354 -0.8154  0.3033
15514TIP3   OH268032   2.674   2.074   3.628 -0.2066  0.1367  0.3580
15514TIP3    H168033   2.723   2.144   3.672  0.7633  0.5164 -1.2482
15514TIP3    H268034   2.692   1.996   3.680  0.9578  0.5617  0.6269
15515TIP3   OH268035   1.290   0.308  16.384 -0.3580  0.0749  0.5654
15515TIP3    H168036   1.385   0.315  16.374 -0.4947  1.6922  0.1630
15515TIP3    H268037   1.263   0.394  16.418 -2.0167  0.7577 -2.1989
15516TIP3   OH268038   6.593   1.857   0.099  0.3453 -0.5845  0.4335
15516TIP3    H168039   6.537   1.902   0.162  0.9262 -0.8740  1.1761
15516TIP3    H268040   6.564   1.889   0.013 -1.5673 -1.4001  0.7233
15517TIP3   OH268041   2.136   0.536  11.694 -0.0351 -0.2066 -0.3407
15517TIP3    H168042   2.220   0.517  11.737 -0.7732 -2.0576  0.3639
15517TIP3    H268043   2.148   0.509  11.603  1.8066  4.4673 -1.7920
15518TIP3   OH268044   5.354   5.020  12.125  0.3466  0.2835 -0.0612
15518TIP3    H168045   5.380   4.987  12.211 -3.3463 -1.4335  0.5792
15518TIP3    H268046   5.373   4.948  12.065  0.3027  0.3929 -0.2051
15519TIP3   OH268047   5.937   5.893  15.992  0.4423 -0.4223 -0.5977
15519TIP3    H168048   6.033   5.896  15.993  0.4372 -0.3457 -0.3873
15519TIP3    H268049   5.912   5.897  16.084  0.2377 -0.4818 -0.6498
15520TIP3   OH268050   1.309   1.855  15.510  0.2682  0.1865 -0.2486
15520TIP3    H168051   1.312   1.789  15.440 -1.1473  0.0378 -0.1879
15520TIP3    H268052   1.314   1.939  15.464  2.5863  0.0843 -0.2981
15521TIP3   OH268053   4.778   2.654  14.409  0.1226 -0.1324  0.4114
15521TIP3    H168054   4.719   2.725  14.436  0.2276 -0.4937  1.6266
15521TIP3    H268055   4.734   2.614  14.334 -0.7063  0.2273  0.6942
15522TIP3   OH268056   2.537   4.634   1.344  0.1474  0.1102  0.0386
15522TIP3    H168057   2.597   4.570   1.383  0.1727 -0.0879 -0.3145
15522TIP3    H268058   2.463   4.638   1.404  0.0976 -0.3349  0.0097
15523TIP3   OH268059   0.630   3.172   1.333 -0.7683 -0.4113 -0.1105
15523TIP3    H168060   0.692   3.108   1.300  1.8007  2.0923 -0.5002
15523TIP3    H268061   0.589   3.208   1.254  0.2108  0.6464 -0.1653
15524TIP3   OH268062   0.482   2.248   4.081 -0.8571 -0.0950 -0.3483
15524TIP3    H168063   0.443   2.179   4.027  1.0086 -0.6619 -1.0425
15524TIP3    H268064   0.549   2.287   4.026 -1.6404  2.1184  0.1503
15525TIP3   OH268065   2.470   6.072  16.874  0.0015 -0.0200 -0.5861
15525TIP3    H168066   2.548   6.028  16.908  0.1006  0.4172 -0.2338
15525TIP3    H268067   2.493   6.165  16.875 -1.6235  0.4708  2.5929
15526TIP3   OH268068   2.214   0.186  10.526 -0.0831 -0.0471 -0.3355
15526TIP3    H168069   2.134   0.181  10.474 -0.0983  0.1128 -0.3297
15526TIP3    H268070   2.285   0.177  10.463 -0.0684  1.4513 -0.5798
15527TIP3   OH268071   2.655   6.171  12.609 -0.8830 -0.4106 -0.5375
15527TIP3    H168072   2.688   6.237  12.669 -4.2349  0.9061  0.0201
15527TIP3    H268073   2.662   6.089  12.658 -1.1379  0.2532  0.6465
15528TIP3   OH268074   3.222   4.000  11.293  0.1449 -0.2188  0.1554
15528TIP3    H168075   3.151   4.005  11.357 -1.5575 -0.3099 -1.6441
15528TIP3    H268076   3.183   4.029  11.211  2.3246  0.1220 -0.8267
15529TIP3   OH268077   2.055   1.172  16.546  0.2890  0.2431 -0.1916
15529TIP3    H168078   2.004   1.251  16.529  1.2530  0.6985 -1.0976
15529TIP3    H268079   1.991   1.101  16.541 -0.7659  0.9977  1.5125
15530TIP3   OH268080   4.764   4.089  12.970  0.1043  0.4117  0.1585
15530TIP3    H168081   4.708   4.012  12.962  1.9914 -1.0762  0.4338
15530TIP3    H268082   4.767   4.125  12.881  1.1357 -1.3343 -0.5716
15531TIP3   OH268083   4.959   1.981   2.048 -0.3787 -0.0692  0.1808
15531TIP3    H168084   5.021   2.053   2.038  0.4681 -0.7347  0.5202
15531TIP3    H268085   4.988   1.916   1.984  0.4896 -1.2003  1.6709
15532TIP3   OH268086   3.344   5.968   0.615  0.0968  0.0751  0.3285
15532TIP3    H168087   3.370   6.049   0.572 -0.9131  0.7291  0.9180
15532TIP3    H268088   3.372   5.899   0.555  1.8457  0.7795  0.2560
15533TIP3   OH268089   0.727   6.546  14.563  0.6917 -0.2677  0.5228
15533TIP3    H168090   0.662   6.558  14.494  0.5810 -0.8021  0.5284
15533TIP3    H268091   0.771   6.464  14.541  1.3613  0.0885  0.5226
15534TIP3   OH268092   2.408   3.624   2.718  0.8765  0.3733  0.3577
15534TIP3    H168093   2.322   3.660   2.737 -0.1232 -0.8107 -1.6790
15534TIP3    H268094   2.402   3.531   2.740  1.4683  0.1708 -0.2799
15535TIP3   OH268095   4.085   6.038  16.923 -0.3589  0.1525  0.3990
15535TIP3    H168096   4.044   6.122  16.942  0.6172  0.4350  1.4464
15535TIP3    H268097   4.093   5.995  17.009  0.7384 -0.2311  0.1341
15536TIP3   OH268098   2.283   2.825   0.145  0.3191  0.6269 -0.8671
15536TIP3    H168099   2.203   2.869   0.114 -0.1784 -0.3398 -1.0216
15536TIP3    H268100   2.339   2.821   0.068 -0.5810 -1.0323 -1.4897
15537TIP3   OH268101   0.497   2.437  10.460 -0.1696 -0.2071 -0.1012
15537TIP3    H168102   0.566   2.499  10.436  0.0464 -0.5814 -0.4625
15537TIP3    H268103   0.445   2.483  10.525  0.3966  0.0999  0.1401
15538TIP3   OH268104   3.701   2.279  15.139  0.1131  0.2720  0.3326
15538TIP3    H168105   3.778   2.327  15.170 -0.6365  0.3048  2.2725
15538TIP3    H268106   3.716   2.188  15.166  0.4116 -0.1658 -1.1835
15539TIP3   OH268107   2.291   6.723  11.615 -0.7975 -0.1931  0.4967
15539TIP3    H168108   2.252   6.642  11.583 -1.9936  0.4222  0.3130
15539TIP3    H268109   2.269   6.725  11.708 -0.9024 -0.0077  0.4677
15540TIP3   OH268110   1.908   5.424  13.839  0.3656 -0.1263 -0.0870
15540TIP3    H168111   1.928   5.515  13.815  2.2174  0.2337  2.4180
15540TIP3    H268112   1.991   5.378  13.830  0.0571 -0.9569  1.1380
15541TIP3   OH268113   2.657   5.675   5.268 -0.1854  0.3768  0.0051
15541TIP3    H168114   2.664   5.750   5.327  0.4927  0.1000  0.2870
15541TIP3    H268115   2.669   5.712   5.181  0.7626  0.5226  0.1831
15542TIP3   OH268116   3.834   0.179   1.050 -0.3110 -0.4356 -0.5185
15542TIP3    H168117   3.824   0.145   0.961  1.0203  1.4987 -1.4638
15542TIP3    H268118   3.796   0.267   1.047  2.8725  1.0855 -0.2110
15543TIP3   OH268119   5.555   2.998  12.501  0.1928 -0.2676  0.8128
15543TIP3    H168120   5.643   3.029  12.482  0.4095 -1.7769 -1.0196
15543TIP3    H268121   5.499   3.049  12.442 -0.0884  0.2003  1.4747
15544TIP3   OH268122   0.371   4.272   4.585 -0.2583  0.4171 -0.0629
15544TIP3    H168123   0.343   4.292   4.675  1.0115  0.6721  0.3129
15544TIP3    H268124   0.341   4.183   4.569 -2.5595  1.1652 -0.2824
15545TIP3   OH268125   1.232   1.771  11.286  0.1996 -0.3366  0.4116
15545TIP3    H168126   1.258   1.821  11.209 -1.4740  0.7790  0.5213
15545TIP3    H268127   1.266   1.820  11.360 -1.7411  0.9390  0.5381
15546TIP3   OH268128   2.416   4.024  15.494 -0.1093 -0.2860  0.0752
15546TIP3    H168129   2.507   4.052  15.485 -0.0452 -0.4528  0.2244
15546TIP3    H268130   2.382   4.025  15.404 -0.5020  1.6204  0.1818
15547TIP3   OH268131   2.812   3.253   2.135  0.7082 -0.0679  0.3345
15547TIP3    H168132   2.780   3.343   2.130  0.2221 -0.1683  1.4721
15547TIP3    H268133   2.897   3.255   2.090 -1.5791 -0.1971 -4.6370
15548TIP3   OH268134   5.769   4.466   0.972  0.0132  0.3781  0.2877
15548TIP3    H168135   5.705   4.430   0.910 -1.6535  4.4141 -0.6683
15548TIP3    H268136   5.854   4.439   0.937 -0.9907 -0.0867 -1.9959
15549TIP3   OH268137   5.633   5.856  12.727 -0.3769 -0.1803 -0.3511
15549TIP3    H168138   5.650   5.869  12.820 -2.6879 -0.8611  0.2413
15549TIP3    H268139   5.710   5.891  12.683  0.4828  0.7774  1.7877
15550TIP3   OH268140   6.486   4.382  16.532 -0.0781 -0.3134 -0.4524
15550TIP3    H168141   6.557   4.336  16.577  0.8821  0.8092 -0.7691
15550TIP3    H268142   6.463   4.453  16.591 -1.3288 -0.9621 -0.1134
15551TIP3   OH268143   6.098   1.878  17.223  0.0305 -0.7136  0.5548
15551TIP3    H168144   6.024   1.822  17.200  0.6627  0.0422 -4.8196
15551TIP3    H268145   6.172   1.842  17.173  1.2118  2.8474 -0.5960
15552TIP3   OH268146   2.556   0.972   3.949  0.3403 -0.5015 -0.1807
15552TIP3    H168147   2.492   0.952   4.017 -2.0936  0.2047 -2.1036
15552TIP3    H268148   2.632   1.004   3.996 -0.8235 -1.0392  2.2343
15553TIP3   OH268149   4.968   2.146  12.136  0.3365  0.2430 -0.1120
15553TIP3    H168150   5.047   2.199  12.146 -0.2584  1.0267  0.5125
15553TIP3    H268151   4.946   2.152  12.043  1.0877 -0.1100 -0.3232
15554TIP3   OH268152   0.800   4.089   2.872 -0.2352 -0.0798  0.5919
15554TIP3    H168153   0.724   4.032   2.861 -1.0703  0.9580  0.8197
15554TIP3    H268154   0.833   4.068   2.959 -0.5098 -0.2394  0.6588
15555TIP3   OH268155   4.664   6.131   5.980  0.3442  0.3463 -0.0408
15555TIP3    H168156   4.675   6.171   5.894  0.8751  0.6952  0.1879
15555TIP3    H268157   4.592   6.179   6.021 -1.5175 -1.3063 -1.1593
15556TIP3   OH268158   5.393   6.175  15.932  0.5544 -0.2080 -0.3068
15556TIP3    H168159   5.396   6.159  15.837  0.1826  0.0508 -0.3630
15556TIP3    H268160   5.301   6.167  15.955  0.2376  2.3259 -0.4288
15557TIP3   OH268161   1.522   3.789   2.875 -0.1159 -0.0122 -0.4032
15557TIP3    H168162   1.563   3.876   2.877 -1.4154  0.6943 -2.0307
15557TIP3    H268163   1.548   3.752   2.791 -2.6665  0.4469 -1.4753
15558TIP3   OH268164   2.041   2.115  11.616 -0.5395  0.0080  0.1509
15558TIP3    H168165   2.093   2.038  11.640 -1.6152 -0.2772  1.8409
15558TIP3    H268166   2.105   2.182  11.594  0.4612 -1.0181 -0.1681
15559TIP3   OH268167   1.399   4.519  11.461  0.0651  0.1451  0.2349
15559TIP3    H168168   1.339   4.527  11.535 -2.0809 -1.8888 -1.1392
15559TIP3    H268169   1.348   4.546  11.386  1.3313 -0.3293 -0.8372
15560TIP3   OH268170   3.841   3.834  12.513 -0.3755 -0.2763  0.8161
15560TIP3    H168171   3.919   3.779  12.522  0.2750  0.7905  1.8259
15560TIP3    H268172   3.796   3.797  12.437  1.3203 -0.6595 -0.0630
15561TIP3   OH268173   2.249   0.403  13.048 -0.0954 -0.0093  0.1834
15561TIP3    H168174   2.308   0.327  13.044 -0.8474 -0.5779 -0.4134
15561TIP3    H268175   2.308   0.478  13.058  0.7096 -0.6043  0.0450
15562TIP3   OH268176   4.741   0.609  14.528  0.0872  0.1756 -0.3988
15562TIP3    H168177   4.725   0.702  14.549 -0.7176  0.3976 -1.8597
15562TIP3    H268178   4.661   0.565  14.555 -0.5326  0.3084 -1.9075
15563TIP3   OH268179   2.432   5.148   2.917  0.5176 -0.1627  0.0089
15563TIP3    H168180   2.490   5.077   2.946 -1.2799 -1.6521  0.1573
15563TIP3    H268181   2.460   5.168   2.828  2.2456  0.2673  0.6206
15564TIP3   OH268182   4.008   1.046   0.465 -0.2898 -0.2106 -0.5191
15564TIP3    H168183   4.023   1.072   0.556  0.8177 -1.8347 -0.1894
15564TIP3    H268184   3.951   1.114   0.430 -0.5264  0.6017  1.3076
15565TIP3   OH268185   6.595   0.517   3.676 -0.1850 -0.0057 -0.1414
15565TIP3    H168186   6.632   0.527   3.764 -0.1912  0.2793 -0.1690
15565TIP3    H268187   6.614   0.427   3.652  2.0095  0.6020 -0.8605
15566TIP3   OH268188   6.380   6.460  15.434 -0.1033 -0.0668 -0.0809
15566TIP3    H168189   6.313   6.520  15.467  0.4632  0.8263 -0.5217
15566TIP3    H268190   6.376   6.469  15.339  0.2796 -0.4125 -0.1330
15567TIP3   OH268191   2.324   4.240  15.113 -0.5733 -0.0066 -0.4973
15567TIP3    H168192   2.391   4.308  15.121 -1.2037  0.5524  0.2733
15567TIP3    H268193   2.312   4.229  15.019  2.1402 -1.7106 -0.7553
15568TIP3   OH268194   3.186   2.212  11.271  0.1493 -0.1070  0.1085
15568TIP3    H168195   3.171   2.300  11.237 -3.5649 -0.6618 -0.1243
15568TIP3    H268196   3.201   2.225  11.365 -0.5787  0.8076  0.1202
15569TIP3   OH268197   3.750   4.042  17.257 -0.4618 -0.0824 -0.0266
15569TIP3    H168198   3.741   4.026  17.163  0.3785 -1.2143  0.0616
15569TIP3    H268199   3.840   4.072  17.267  0.2600 -2.3227  0.6702
15570TIP3   OH268200   4.690   3.374  12.494 -0.5329  0.1771  0.0530
15570TIP3    H168201   4.618   3.332  12.449 -0.5317  1.9925 -1.7631
15570TIP3    H268202   4.652   3.405  12.576 -0.9424 -1.7264  0.6389
15571TIP3   OH268203   3.228   2.213  11.535 -0.4953 -0.0685  0.5267
15571TIP3    H168204   3.173   2.137  11.555  0.4462 -1.1183 -0.6216
15571TIP3    H268205   3.314   2.190  11.573 -0.3320  0.6487  0.5962
15572TIP3   OH268206   0.434   0.724  11.016  0.3098  0.1442  0.4201
15572TIP3    H168207   0.475   0.712  10.930 -0.9856 -1.2512 -0.0333
15572TIP3    H268208   0.346   0.756  10.996 -0.0049 -0.2104  1.2158
15573TIP3   OH268209   2.041   3.991   6.213  0.0128 -0.3600 -0.1278
15573TIP3    H168210   2.132   3.982   6.184  0.1481  0.5414 -0.0107
15573TIP3    H268211   1.996   3.916   6.173  0.9985 -1.4053  0.6718
15574TIP3   OH268212   5.535   6.037  14.549 -0.6426 -0.6384  0.1059
15574TIP3    H168213   5.536   6.119  14.597  1.0885 -0.0567 -0.8275
15574TIP3    H268214   5.444   6.007  14.553 -1.1080  0.8320  1.2508
15575TIP3   OH268215   1.752   2.995  14.107 -0.0219 -0.1596 -0.0119
15575TIP3    H168216   1.762   2.999  14.012 -0.7478 -0.9038 -0.1349
15575TIP3    H268217   1.839   3.016  14.141  1.0102 -2.5236 -0.9229
15576TIP3   OH268218   5.401   5.398   5.487 -0.1249  0.7267 -0.1917
15576TIP3    H168219   5.419   5.310   5.455  3.3508  1.8788 -1.8597
15576TIP3    H268220   5.443   5.401   5.573  0.1650  0.9184 -0.3424
15577TIP3   OH268221   2.947   3.131   3.565 -0.0499 -0.1484 -0.1122
15577TIP3    H168222   2.918   3.205   3.511  1.5969  2.3795  2.1631
15577TIP3    H268223   3.042   3.126   3.550  0.0043 -1.1971  0.4814
15578TIP3   OH268224   2.766   6.486   4.877 -0.7780  0.4585 -0.6381
15578TIP3    H168225   2.672   6.480   4.860 -1.1228  0.6703  1.0163
15578TIP3    H268226   2.772   6.525   4.964  0.8769  1.4417 -1.1482
15579TIP3   OH268227   5.738   1.269   3.298 -0.2043 -0.2787  0.2797
15579TIP3    H168228   5.809   1.248   3.238 -0.2830 -1.2353  0.5032
15579TIP3    H268229   5.658   1.253   3.248 -0.2697  0.0667  0.2694
15580TIP3   OH268230   2.967   3.709   2.503  0.0373  0.3879 -0.2093
15580TIP3    H168231   2.873   3.707   2.485  0.0262  0.0036 -0.1185
15580TIP3    H268232   2.974   3.685   2.595  0.2227  0.4251 -0.2141
15581TIP3   OH268233   6.271   6.280  11.787 -0.1645 -0.2905 -0.7148
15581TIP3    H168234   6.362   6.296  11.810  0.3028 -0.7334 -2.1416
15581TIP3    H268235   6.235   6.367  11.767  0.2408 -0.2216 -1.1543
15582TIP3   OH268236   5.963   1.965   1.229  0.0516  0.4081  0.0826
15582TIP3    H168237   5.896   2.029   1.252  0.9433  1.0102  1.0719
15582TIP3    H268238   6.006   2.002   1.151 -0.8994 -0.1032 -0.7100
15583TIP3   OH268239   1.772   1.486  15.815  0.2955 -0.5808  0.5879
15583TIP3    H168240   1.704   1.537  15.860 -1.1398 -0.5284 -1.4908
15583TIP3    H268241   1.831   1.551  15.779  0.4225 -0.5426  0.8646
15584TIP3   OH268242   4.219   4.458   5.774  0.1972 -0.8980  0.1156
15584TIP3    H168243   4.240   4.476   5.866 -0.2044  0.8086 -0.0918
15584TIP3    H268244   4.197   4.365   5.772  0.7859 -1.0911  1.6383
15585TIP3   OH268245   1.270   0.836   4.320  0.0377  0.8553  0.1983
15585TIP3    H168246   1.193   0.827   4.264  0.1070  0.2013  0.1925
15585TIP3    H268247   1.263   0.762   4.381  0.2110  1.2870  0.7430
15586TIP3   OH268248   4.093   0.894  16.020  0.0632 -0.5474  0.6184
15586TIP3    H168249   4.091   0.957  15.948  2.5735 -2.2419 -1.1215
15586TIP3    H268250   4.021   0.920  16.077 -0.2779  2.5992 -1.0360
15587TIP3   OH268251   5.279   4.627   2.960  0.3884  0.2434 -0.1203
15587TIP3    H168252   5.304   4.718   2.975  2.1371 -0.0955 -0.7397
15587TIP3    H268253   5.348   4.592   2.903 -0.1514 -1.5217  0.2500
15588TIP3   OH268254   4.808   2.016   3.380 -0.2379 -0.0305  0.1445
15588TIP3    H168255   4.800   2.054   3.468  2.4726  0.4228  0.2947
15588TIP3    H268256   4.808   2.092   3.321  0.4840 -0.1240  0.0128
15589TIP3   OH268257   1.220   1.290  11.289 -0.3560 -0.5330 -0.4427
15589TIP3    H168258   1.294   1.265  11.233  0.4668 -2.1086  1.2354
15589TIP3    H268259   1.151   1.228  11.267 -1.0257  0.6070 -1.6376
15590TIP3   OH268260   3.050   2.441   0.934  0.5151 -0.1485 -0.6373
15590TIP3    H168261   2.990   2.460   1.006  0.1098 -0.2629 -0.9423
15590TIP3    H268262   3.046   2.519   0.878  2.4304  0.8701  0.5251
15591TIP3   OH268263   0.873   3.744   4.594  0.1709 -0.4320  0.4089
15591TIP3    H168264   0.843   3.822   4.549 -1.0534  0.3130  2.3837
15591TIP3    H268265   0.804   3.679   4.579 -0.1819 -0.2200  1.1000
15592TIP3   OH268266   2.769   3.657  12.896 -0.2397 -0.3201 -0.4634
15592TIP3    H168267   2.691   3.625  12.942 -1.2973  0.8241 -1.3867
15592TIP3    H268268   2.837   3.660  12.963 -1.4289  0.1959  0.7557
15593TIP3   OH268269   5.350   2.882   3.838 -0.0655 -0.2696  0.4852
15593TIP3    H168270   5.261   2.906   3.814  0.1336 -0.4024 -0.4259
15593TIP3    H268271   5.371   2.807   3.782 -0.5533 -2.4358  2.9669
15594TIP3   OH268272   6.065   1.280  11.466  0.3673 -0.3029  0.4879
15594TIP3    H168273   6.160   1.289  11.460  0.1770  1.4378 -0.8777
15594TIP3    H268274   6.037   1.265  11.376 -0.5482 -2.6138  1.1033
15595TIP3   OH268275   2.369   3.587  13.788  0.0159  0.0409 -0.0922
15595TIP3    H168276   2.461   3.567  13.810  0.8528  2.2493 -1.2922
15595TIP3    H268277   2.328   3.606  13.873  0.3086 -2.0658  0.5895
15596TIP3   OH268278   0.596   6.664   3.758  0.1203 -0.4020 -0.3119
15596TIP3    H168279   0.512   6.661   3.804  1.3558 -0.1928  2.1476
15596TIP3    H268280   0.637   6.579   3.777  1.5166  0.4650  0.8018
15597TIP3   OH268281   2.168   2.936   2.948  0.2202  0.2838  0.1523
15597TIP3    H168282   2.109   2.884   3.002 -2.5732 -0.2731 -3.1006
15597TIP3    H268283   2.192   2.878   2.875  1.2651  1.9032 -0.8707
15598TIP3   OH268284   3.216   2.433   5.533  0.2559  0.1323 -0.1194
15598TIP3    H168285   3.198   2.392   5.617  0.5523  1.2932  0.5221
15598TIP3    H268286   3.164   2.514   5.534 -1.3701 -0.7889 -1.9039
15599TIP3   OH268287   5.963   4.319  11.915 -0.4873 -0.1178 -0.4765
15599TIP3    H168288   5.911   4.399  11.907  0.3500  0.8833  2.6828
15599TIP3    H268289   6.050   4.343  11.884 -0.6811 -0.3638 -1.2259
15600TIP3   OH268290   4.002   3.237  13.304 -0.2926 -0.9908  0.3566
15600TIP3    H168291   4.068   3.171  13.283  0.9629  0.2740  0.1620
15600TIP3    H268292   4.050   3.301  13.357 -1.0232  0.6117 -0.8484
15601TIP3   OH268293   2.653   0.365  16.588  0.0785 -0.0703  0.0362
15601TIP3    H168294   2.707   0.438  16.617 -2.0347  0.9214  1.7668
15601TIP3    H268295   2.713   0.291  16.583  1.3093  0.4552  3.8819
15602TIP3   OH268296   0.489   5.729   4.415  0.0785  0.5024 -0.0854
15602TIP3    H168297   0.526   5.782   4.485  1.7618  2.3319 -2.2116
15602TIP3    H268298   0.553   5.659   4.400  0.7041  1.2747 -1.0754
15603TIP3   OH268299   1.142   1.801  16.360 -0.1699 -0.0361  0.6421
15603TIP3    H168300   1.198   1.875  16.385  1.2733 -0.3336 -1.4503
15603TIP3    H268301   1.139   1.746  16.439  0.5103  1.1871  1.5547
15604TIP3   OH268302   1.760   6.127   5.138  0.2205  0.1548  0.5496
15604TIP3    H168303   1.793   6.173   5.061  1.9603 -0.7004  0.7457
15604TIP3    H268304   1.806   6.167   5.212  0.4448 -0.7092  0.8900
15605TIP3   OH268305   4.505   0.362  11.756 -0.3081  0.4860 -0.7736
15605TIP3    H168306   4.500   0.354  11.852  1.1802  1.0539 -0.6282
15605TIP3    H268307   4.422   0.403  11.732  0.0019  1.9943  0.4922
15606TIP3   OH268308   6.530   2.789  13.402 -0.1820 -0.3317  0.7672
15606TIP3    H168309   6.555   2.698  13.387  0.0314 -0.1488  0.0151
15606TIP3    H268310   6.611   2.833  13.428 -0.3091 -0.3751  1.2601
15607TIP3   OH268311   0.590   4.814  14.602 -0.4253  0.2680 -0.5849
15607TIP3    H168312   0.524   4.766  14.551 -0.5424 -0.7075  0.4543
15607TIP3    H268313   0.674   4.781  14.570 -0.5016 -0.4306 -0.0736
15608TIP3   OH268314   6.755   4.129  14.155  0.3984  0.4562  0.0187
15608TIP3    H168315   6.700   4.177  14.216 -1.6684  0.5509 -1.8074
15608TIP3    H268316   6.720   4.150  14.069  1.1887 -2.1443 -1.0405
15609TIP3   OH268317   5.251   0.305  13.818 -0.0916 -0.6034 -0.6377
15609TIP3    H168318   5.226   0.394  13.791 -1.4154 -1.0578 -0.9769
15609TIP3    H268319   5.209   0.248  13.755  0.5680 -1.5032 -0.2845
15610TIP3   OH268320   5.144   6.600  16.905 -1.1381 -0.2283 -0.2149
15610TIP3    H168321   5.100   6.680  16.878 -0.7931  0.2630  0.6320
15610TIP3    H268322   5.237   6.621  16.900 -1.0558 -0.0329  1.5025
15611TIP3   OH268323   0.671   1.180  14.883  0.4974 -0.5012  0.6670
15611TIP3    H168324   0.726   1.161  14.959 -0.1928 -3.1327  0.6147
15611TIP3    H268325   0.709   1.128  14.812 -0.1480  0.2048 -0.2302
15612TIP3   OH268326   0.028   1.786  15.877 -0.1963 -0.1484 -0.0513
15612TIP3    H168327   0.039   1.726  15.804  1.4128  0.4350 -0.3164
15612TIP3    H268328   0.099   1.849  15.868 -1.5618  1.5527  0.4770
15613TIP3   OH268329   6.735   6.536  16.748  0.8187  0.4439  0.3694
15613TIP3    H168330   6.701   6.624  16.731  1.5427  0.7710  0.5586
15613TIP3    H268331   6.706   6.516  16.837 -0.3210  0.0139 -0.0905
15614TIP3   OH268332   5.974   6.301  11.987 -0.0381 -0.0891  0.6516
15614TIP3    H168333   5.993   6.306  12.081  1.0287  0.4914  0.4181
15614TIP3    H268334   5.896   6.356  11.976 -0.8865 -1.1177  1.3647
15615TIP3   OH268335   0.233   4.482   0.016  0.0126 -0.7266 -0.2459
15615TIP3    H168336   0.231   4.485   0.112  0.2602 -0.4248 -0.2472
15615TIP3    H268337   0.326   4.487  -0.006 -0.0729 -0.1744 -0.5171
15616TIP3   OH268338   1.839   0.058   5.047  0.0848  0.1092  0.4982
15616TIP3    H168339   1.925   0.102   5.052  0.3834 -0.2068 -1.0951
15616TIP3    H268340   1.834   0.029   4.956 -1.7713  0.2009  0.5514
15617TIP3   OH268341   3.078   0.676  15.900 -0.1126  0.7646  0.1138
15617TIP3    H168342   3.087   0.587  15.866  1.0808  0.5153  0.9857
15617TIP3    H268343   3.035   0.664  15.985  2.6624  0.6383  1.6098
15618TIP3   OH268344   1.417   1.241   4.906  0.4680 -0.1045  0.0068
15618TIP3    H168345   1.449   1.170   4.961  3.6715  1.7475  0.7606
15618TIP3    H268346   1.395   1.311   4.967 -1.5342  0.0599 -0.8058
15619TIP3   OH268347   5.214   2.548  15.799 -0.1128 -0.3289  0.0826
15619TIP3    H168348   5.174   2.628  15.831 -2.3420 -0.3733 -2.2377
15619TIP3    H268349   5.302   2.575  15.772 -0.1237  0.8522  1.1159
15620TIP3   OH268350   0.101   6.285   0.092  0.1243 -0.1078  0.3576
15620TIP3    H168351   0.047   6.261   0.016 -0.2412  1.7155  0.0009
15620TIP3    H268352   0.178   6.229   0.085 -1.5660 -2.7035  0.7868
15621TIP3   OH268353   3.398   1.740  11.786 -0.3296 -0.4449  0.0277
15621TIP3    H168354   3.322   1.739  11.844 -0.5331 -0.7901 -0.2375
15621TIP3    H268355   3.469   1.704  11.838 -0.4909 -0.6742  0.0899
15622TIP3   OH268356   6.249   1.765   5.558 -0.2913 -0.3404  0.5291
15622TIP3    H168357   6.197   1.845   5.553 -2.3224 -1.6599 -2.2725
15622TIP3    H268358   6.188   1.698   5.589 -0.0805 -1.7070 -1.7612
15623TIP3   OH268359   0.891   0.902  16.301 -0.1302 -0.5982 -0.2543
15623TIP3    H168360   0.849   0.816  16.306 -0.2380 -0.5476 -0.2791
15623TIP3    H268361   0.819   0.963  16.285 -0.1939 -0.3651  0.8662
15624TIP3   OH268362   2.580   5.339   0.967 -0.9115 -0.0698 -0.1881
15624TIP3    H168363   2.500   5.364   1.012  0.2873  0.4227  1.8062
15624TIP3    H268364   2.627   5.284   1.031  0.2850 -0.4458 -1.3387
15625TIP3   OH268365   1.840   0.610   2.483 -0.1235 -0.0411  0.4765
15625TIP3    H168366   1.746   0.625   2.471 -0.3897 -2.0596 -0.3100
15625TIP3    H268367   1.878   0.698   2.488 -2.0659  0.8194  1.1047
15626TIP3   OH268368   5.044   5.464  12.550 -0.5037  0.0215  0.2573
15626TIP3    H168369   4.953   5.496  12.555 -0.7156 -0.3953 -0.7398
15626TIP3    H268370   5.086   5.523  12.487 -0.3463 -0.3786 -0.0144
15627TIP3   OH268371   1.186   4.063  12.100  0.3829 -0.0375 -0.0631
15627TIP3    H168372   1.157   4.074  12.010  1.1040  0.9243 -0.1965
15627TIP3    H268373   1.271   4.019  12.093 -0.0444 -0.9333  0.2132
15628TIP3   OH268374   4.068   0.535   2.875  0.1341  0.0875  0.2252
15628TIP3    H168375   3.974   0.554   2.875  0.0675 -0.1308  1.7108
15628TIP3    H268376   4.077   0.456   2.823 -0.6330 -0.4227  0.8525
15629TIP3   OH268377   2.405   3.159  11.610  0.2959  0.2562 -0.0598
15629TIP3    H168378   2.423   3.066  11.626  0.7614  0.6600  2.1188
15629TIP3    H268379   2.492   3.200  11.605  0.0833  0.6956 -0.2107
15630TIP3   OH268380   1.192   1.168   2.397  0.4083  0.6248 -0.0426
15630TIP3    H168381   1.215   1.260   2.386  1.9857  0.1685 -0.7347
15630TIP3    H268382   1.211   1.150   2.489 -0.1915  1.0528  0.1733
15631TIP3   OH268383   6.325   2.214  16.617  0.2484 -0.3334 -0.3646
15631TIP3    H168384   6.357   2.304  16.604 -0.1133 -0.1183  0.1844
15631TIP3    H268385   6.298   2.212  16.709  0.2956 -1.0214 -0.3598
15632TIP3   OH268386   4.778   5.291  15.762 -0.0071  0.2525  0.1344
15632TIP3    H168387   4.789   5.203  15.726  0.0914 -0.0984  1.0025
15632TIP3    H268388   4.823   5.289  15.846  0.5987  1.3489 -0.1462
15633TIP3   OH268389   4.257   0.644   4.941 -0.0258 -0.3507  0.4040
15633TIP3    H168390   4.322   0.674   4.877  0.1637  1.5416  1.4253
15633TIP3    H268391   4.263   0.548   4.937  2.5043 -0.2546  0.1405
15634TIP3   OH268392   5.383   3.361   3.982  0.6232  0.2040  0.4328
15634TIP3    H168393   5.385   3.372   4.077  1.3210 -0.3349  0.4880
15634TIP3    H268394   5.413   3.271   3.968  0.1656  0.1581 -0.2759
15635TIP3   OH268395   2.085   2.617   4.616  0.5875  0.4615 -0.7230
15635TIP3    H168396   2.116   2.528   4.634  0.7406  0.4489 -1.0302
15635TIP3    H268397   2.119   2.669   4.688  0.0182  0.1730 -0.2397
15636TIP3   OH268398   3.787   6.578  11.141  0.4859  0.3567 -0.0874
15636TIP3    H168399   3.725   6.569  11.213 -0.1572 -0.3297 -0.7241
15636TIP3    H268400   3.734   6.575  11.062  1.2930  0.0773 -0.6312
15637TIP3   OH268401   5.320   1.114   4.096  0.4231  0.4276  0.3674
15637TIP3    H168402   5.351   1.163   4.172 -0.9801  0.5586  0.8812
15637TIP3    H268403   5.389   1.050   4.080  0.6645  0.2586  1.8779
15638TIP3   OH268404   2.431   3.608   3.365 -0.0854  0.2668  0.2564
15638TIP3    H168405   2.368   3.541   3.340 -0.1000  0.8297 -1.2934
15638TIP3    H268406   2.410   3.626   3.457 -1.9603  0.1757 -0.1024
15639TIP3   OH268407   4.625   0.745   1.337  0.3709 -0.0368 -0.1087
15639TIP3    H168408   4.621   0.661   1.383 -0.3003  0.3464  0.5438
15639TIP3    H268409   4.563   0.801   1.383  0.5280  0.7062 -0.7796
15640TIP3   OH268410   5.884   1.560  11.750  0.0172 -0.0653 -0.2194
15640TIP3    H168411   5.890   1.654  11.765  0.8063  0.2045 -2.0619
15640TIP3    H268412   5.914   1.521  11.832  1.7377  1.2904 -0.1620
15641TIP3   OH268413   4.256   2.381  16.299  0.2222  0.2267  0.5383
15641TIP3    H168414   4.296   2.295  16.283 -0.3087  0.0162  0.2813
15641TIP3    H268415   4.275   2.400  16.390 -0.8085 -0.8072  1.0108
15642TIP3   OH268416   0.075   2.672  13.714  0.2560 -0.4449 -1.0349
15642TIP3    H168417   0.156   2.673  13.766 -0.1164 -0.8662 -0.4268
15642TIP3    H268418   0.088   2.601  13.651 -0.1046 -1.3143 -0.1539
15643TIP3   OH268419   6.240   5.780  13.029  0.0064  0.0430  0.5620
15643TIP3    H168420   6.147   5.757  13.036 -0.1446  0.6667  0.6629
15643TIP3    H268421   6.276   5.759  13.115 -0.5858  2.1254  1.3750
15644TIP3   OH268422   2.876   0.951   2.031  0.5074 -0.3005 -0.2857
15644TIP3    H168423   2.783   0.965   2.011  0.8522  0.2170 -1.6584
15644TIP3    H268424   2.920   0.959   1.946  1.7027 -1.5535  0.1852
15645TIP3   OH268425   3.922   2.222  15.470  0.3345  0.2862 -0.2034
15645TIP3    H168426   3.917   2.184  15.558 -0.5222 -0.3166 -0.5014
15645TIP3    H268427   3.911   2.316  15.484 -2.1685  0.0022  0.1704
15646TIP3   OH268428   6.414   4.293  15.268 -0.2595  0.0472 -0.8778
15646TIP3    H168429   6.403   4.264  15.358 -0.3749  1.3900 -0.4475
15646TIP3    H268430   6.326   4.293  15.231 -0.0852 -1.6886 -1.4023
15647TIP3   OH268431   1.728   2.496  11.377 -0.5982  0.0655 -0.7065
15647TIP3    H168432   1.649   2.468  11.423  0.0369 -0.7755 -0.0892
15647TIP3    H268433   1.696   2.538  11.297 -1.6755  0.2401 -0.1978
15648TIP3   OH268434   5.854   3.524   4.068  0.4748  1.0242 -0.0739
15648TIP3    H168435   5.767   3.486   4.061 -0.1515  2.2407  0.7357
15648TIP3    H268436   5.903   3.487   3.994 -0.3633 -0.5526  0.1179
15649TIP3   OH268437   5.946   1.619  17.229  0.2460 -0.4549  0.6298
15649TIP3    H168438   5.850   1.627  17.231  0.1719 -0.8823 -0.5264
15649TIP3    H268439   5.967   1.608  17.136  1.3706 -0.9517  0.9315
15650TIP3   OH268440   0.012   3.144   3.430 -0.7864  0.0919 -0.1764
15650TIP3    H168441   0.061   3.119   3.352 -1.2020 -0.0191 -0.4053
15650TIP3    H268442  -0.023   3.231   3.410 -1.3805 -0.1801 -0.3505
15651TIP3   OH268443   4.247   0.301   4.193  0.0518 -0.4536  0.4698
15651TIP3    H168444   4.310   0.344   4.135 -1.0270 -1.1747 -1.3095
15651TIP3    H268445   4.234   0.215   4.155 -1.9165 -0.3573  0.8331
15652TIP3   OH268446   4.822   2.896  14.795 -0.2627  0.5589 -0.1441
15652TIP3    H168447   4.746   2.844  14.766  0.6478 -0.7589 -0.2804
15652TIP3    H268448   4.798   2.987  14.776 -1.3232  0.0669 -1.3256
15653TIP3   OH268449   3.433   0.235  16.854  1.2811 -0.3307 -0.0113
15653TIP3    H168450   3.455   0.289  16.930  0.7443  0.6223 -0.5119
15653TIP3    H268451   3.513   0.232  16.802  1.0300  0.8273 -0.4761
15654TIP3   OH268452   0.546   6.640  10.881  0.3730 -0.0952 -0.0531
15654TIP3    H168453   0.514   6.586  10.809 -0.6713  0.5320 -0.0770
15654TIP3    H268454   0.468   6.664  10.931  1.0277 -0.1774  1.0610
15655TIP3   OH268455   0.327   1.855  15.591  0.2628  0.0798  0.4344
15655TIP3    H168456   0.253   1.796  15.574  0.0377 -0.5684  3.1519
15655TIP3    H268457   0.402   1.810  15.553 -0.0569 -1.5911  1.6356
15656TIP3   OH268458   3.534   3.952  15.120  0.3035  0.2851  0.3793
15656TIP3    H168459   3.613   3.898  15.116 -0.0017 -0.0966 -1.1596
15656TIP3    H268460   3.497   3.946  15.032 -1.3219  0.6465  1.0130
15657TIP3   OH268461   5.822   0.547   0.940  0.3142  0.2469  0.3663
15657TIP3    H168462   5.772   0.540   1.021  0.1117  1.2972  0.3419
15657TIP3    H268463   5.756   0.547   0.871  0.5765 -3.7306 -0.0838
15658TIP3   OH268464   2.510   1.657  16.188  0.8108 -0.1545  0.4472
15658TIP3    H168465   2.488   1.745  16.219  1.4260 -0.5794  2.1879
15658TIP3    H268466   2.426   1.611  16.187  0.8273 -0.2778  2.0799
15659TIP3   OH268467   4.114   5.044  17.000 -0.3789 -0.3282  0.4502
15659TIP3    H168468   4.194   5.005  16.964 -0.4192 -0.5232  0.5706
15659TIP3    H268469   4.128   5.139  16.992 -1.6793 -0.3117 -2.9731
15660TIP3   OH268470   4.837   6.185  16.084  0.4530  0.2203 -0.2385
15660TIP3    H168471   4.873   6.100  16.110  1.6234  0.7922  0.0689
15660TIP3    H268472   4.758   6.195  16.136 -0.2387 -1.0908 -0.9657
15661TIP3   OH268473   5.877   0.619   4.402  0.1961 -0.0044  0.2170
15661TIP3    H168474   5.853   0.644   4.491 -0.6865  1.3537 -0.3652
15661TIP3    H268475   5.955   0.565   4.412  0.3019  0.4061  1.7860
15662TIP3   OH268476   2.392   1.484   2.123 -0.3180 -0.3916  0.5937
15662TIP3    H168477   2.407   1.577   2.142 -1.0462 -0.1351 -0.0479
15662TIP3    H268478   2.471   1.456   2.077  0.2034 -0.2754  1.3924
15663TIP3   OH268479   2.109   4.814  13.018 -0.1023 -0.2703 -0.1643
15663TIP3    H168480   2.150   4.732  12.990  1.7545  0.5541 -0.0145
15663TIP3    H268481   2.143   4.828  13.107 -1.3238  0.0960  0.2714
15664TIP3   OH268482   6.640   5.474  16.010  0.0055 -0.1349  0.5076
15664TIP3    H168483   6.701   5.547  16.007 -0.4234  0.2180 -0.0490
15664TIP3    H268484   6.556   5.514  16.034 -0.9892  0.1634 -2.8605
15665TIP3   OH268485   0.768   3.079   5.628 -0.0578  0.2570  0.7128
15665TIP3    H168486   0.812   3.017   5.570  1.9535  0.4851  1.8770
15665TIP3    H268487   0.689   3.034   5.657 -0.5944 -0.2388 -1.3720
15666TIP3   OH268488   5.234   6.719   2.698  0.1637  0.2579  0.1464
15666TIP3    H168489   5.208   6.647   2.640 -1.5791  0.1493  1.0178
15666TIP3    H268490   5.174   6.790   2.676  0.6494  0.8173  0.6064
15667TIP3   OH268491   4.741   2.158   4.292  0.1784  0.3405  0.5081
15667TIP3    H168492   4.816   2.165   4.350  0.5005  1.6764 -0.0493
15667TIP3    H268493   4.778   2.166   4.204 -0.4379 -0.5460  0.1501
15668TIP3   OH268494   1.129   1.432   1.530 -0.5242  0.2562 -0.0402
15668TIP3    H168495   1.134   1.512   1.477  1.6811  0.0078 -0.2975
15668TIP3    H268496   1.068   1.376   1.483  1.2645  0.0778 -2.3750
15669TIP3   OH268497   1.554   6.326   3.574 -0.6887  0.4035  0.0882
15669TIP3    H168498   1.587   6.382   3.645  2.3952 -1.6272  0.4533
15669TIP3    H268499   1.545   6.239   3.614 -0.0675 -0.5289 -1.6826
15670TIP3   OH268500   0.754   4.742   4.516 -0.3107 -0.1604 -0.1451
15670TIP3    H168501   0.669   4.747   4.474 -0.3998 -0.1540  0.0345
15670TIP3    H268502   0.763   4.650   4.542 -0.2915 -0.1470 -0.1046
15671TIP3   OH268503   3.076   4.602   2.061  0.4268  0.5111  0.2001
15671TIP3    H168504   3.008   4.582   2.125 -0.2789  0.0070 -0.6749
15671TIP3    H268505   3.143   4.534   2.074  0.0625  0.1262  0.0908
15672TIP3   OH268506   4.703   3.286  12.900 -0.3749 -0.2452  0.7853
15672TIP3    H168507   4.647   3.299  12.824  0.9410  0.9874 -0.0304
15672TIP3    H268508   4.737   3.373  12.920  3.2647 -1.2329 -0.3963
15673TIP3   OH268509   4.847   5.145   1.960  0.5866 -0.3694 -0.1507
15673TIP3    H168510   4.797   5.126   1.880  0.3078  0.4935 -0.1832
15673TIP3    H268511   4.810   5.086   2.026  0.2953 -0.5347 -0.4585
15674TIP3   OH268512   3.742   2.839  13.791 -0.1079  0.0463 -0.1350
15674TIP3    H168513   3.821   2.812  13.838 -2.4610 -3.3011  2.4072
15674TIP3    H268514   3.690   2.884  13.858 -2.4127 -2.4043 -0.1382
15675TIP3   OH268515   4.498   2.029   4.075 -0.0544  0.0621 -0.0485
15675TIP3    H168516   4.438   2.079   4.131 -1.2620  0.6151 -1.7602
15675TIP3    H268517   4.441   1.982   4.014  1.1876 -1.0529 -0.4020
15676TIP3   OH268518   3.318   0.147   1.085 -0.2807 -0.0240 -0.1068
15676TIP3    H168519   3.251   0.100   1.135 -0.4150 -0.0274 -0.2878
15676TIP3    H268520   3.270   0.215   1.039 -0.5226 -1.3348 -1.9139
15677TIP3   OH268521   1.518   2.702  12.600 -0.2508  0.0956 -0.0208
15677TIP3    H168522   1.444   2.749  12.640  0.3902  0.7639  0.4062
15677TIP3    H268523   1.483   2.616  12.578 -1.8801  1.1834 -2.0678
15678TIP3   OH268524   4.362   2.118  16.239  0.2998 -0.1466 -0.3618
15678TIP3    H168525   4.362   2.080  16.151  0.7662  0.8350 -0.8118
15678TIP3    H268526   4.437   2.077  16.283  3.2257  2.7940 -2.0763
15679TIP3   OH268527   2.854   4.512  10.439 -0.3640  0.4137 -0.0892
15679TIP3    H168528   2.937   4.560  10.445  0.8438 -1.2183 -2.2848
15679TIP3    H268529   2.866   4.436  10.497 -0.5905  0.5306  0.1100
15680TIP3   OH268530   6.777   0.898   3.681  0.0717 -0.2111 -0.2913
15680TIP3    H168531   6.749   0.979   3.722 -0.4214 -0.4483 -0.1556
15680TIP3    H268532   6.866   0.917   3.649  0.3868  0.0354  0.6920
15681TIP3   OH268533   5.602   3.151   3.405  0.9995  0.2535 -0.8533
15681TIP3    H168534   5.697   3.142   3.416  1.0112  0.3777 -0.8553
15681TIP3    H268535   5.567   3.149   3.494  1.1729  2.2206 -0.7144
15682TIP3   OH268536   4.106   1.440   1.049 -0.1226 -0.6558  0.1396
15682TIP3    H168537   4.121   1.472   1.138 -0.7951 -1.0157  0.3899
15682TIP3    H268538   4.174   1.482   0.996 -0.2156  0.1903  0.6813
15683TIP3   OH268539   1.302   4.532  15.128  0.0501  0.3433 -0.0595
15683TIP3    H168540   1.239   4.523  15.199 -0.4149 -1.7018 -0.6594
15683TIP3    H268541   1.386   4.543  15.173 -0.2275 -0.9746  0.8405
15684TIP3   OH268542   1.718   5.203  14.650  0.6522  0.2347 -0.2250
15684TIP3    H168543   1.746   5.195  14.741 -0.7630 -0.4566  0.1927
15684TIP3    H268544   1.622   5.200  14.655  0.5713 -1.3061 -1.8500
15685TIP3   OH268545   4.825   0.334  13.130 -0.3708  0.2728  0.1577
15685TIP3    H168546   4.836   0.250  13.173 -1.8994 -0.6595 -1.1581
15685TIP3    H268547   4.747   0.372  13.170 -0.7127  0.2565 -0.4890
15686TIP3   OH268548   0.092   0.802   5.409 -0.5844  0.3244 -0.0533
15686TIP3    H168549   0.076   0.736   5.342 -1.8218 -0.3733  0.8845
15686TIP3    H268550   0.033   0.874   5.386  0.2660  0.8499 -0.6805
15687TIP3   OH268551   6.355   1.276   3.203 -0.1260  0.7033 -0.6301
15687TIP3    H168552   6.406   1.198   3.223 -0.1081  1.1177  1.0805
15687TIP3    H268553   6.280   1.272   3.263  0.6220  2.6909  0.5449
15688TIP3   OH268554   5.362   4.810  17.096 -0.7598  0.0148 -0.4722
15688TIP3    H168555   5.392   4.720  17.108  0.0622  0.4107  0.6872
15688TIP3    H268556   5.271   4.802  17.069 -0.1106 -1.2032 -2.5433
15689TIP3   OH268557   6.012   6.299  14.548 -0.6339  0.1006  0.1759
15689TIP3    H168558   6.007   6.251  14.466  1.7687  0.6133 -0.3492
15689TIP3    H268559   6.027   6.390  14.522  0.1199  0.2800  1.1679
15690TIP3   OH268560   5.810   0.684  11.815 -0.0972  0.3646  0.4420
15690TIP3    H168561   5.834   0.620  11.748 -1.2369 -1.6524  1.8492
15690TIP3    H268562   5.893   0.712  11.852  0.5365  1.2501 -1.4850
15691TIP3   OH268563   4.728   1.270   1.794 -0.1115 -0.6743  0.6565
15691TIP3    H168564   4.657   1.227   1.841 -0.6439 -0.7837 -0.2093
15691TIP3    H268565   4.794   1.201   1.781  0.4854 -0.3918  2.0832
15692TIP3   OH268566   2.329   2.769  11.816 -0.5528 -0.2523 -0.3160
15692TIP3    H168567   2.303   2.810  11.733 -0.4844  0.3961 -0.0171
15692TIP3    H268568   2.277   2.813  11.882  1.1580  0.9558  0.2772
15693TIP3   OH268569   6.716   5.859  16.370  0.1347  0.2647  0.3126
15693TIP3    H168570   6.682   5.948  16.357  0.4048  0.3242 -0.0039
15693TIP3    H268571   6.804   5.872  16.407  1.0053  0.1978 -1.6065
15694TIP3   OH268572   6.114   1.842  10.928 -0.4064 -0.3006  0.7663
15694TIP3    H168573   6.118   1.863  11.022  1.2414 -0.0892  0.6857
15694TIP3    H268574   6.196   1.796  10.910 -1.0247 -0.9947 -0.4410
15695TIP3   OH268575   1.370   6.653   1.181 -0.1831  0.2660  0.6817
15695TIP3    H168576   1.345   6.569   1.143  0.8163 -0.3583  1.3477
15695TIP3    H268577   1.466   6.647   1.189 -0.2092  1.0683  1.6664
15696TIP3   OH268578   5.932   2.902   1.271 -0.2465  0.2572  0.5101
15696TIP3    H168579   5.869   2.844   1.229 -0.0590  0.4768 -0.0856
15696TIP3    H268580   6.018   2.864   1.251 -0.1720  0.0745  1.1420
15697TIP3   OH268581   2.209   4.471  14.335  0.1856  0.2375 -0.0479
15697TIP3    H168582   2.198   4.556  14.378 -1.1411 -0.1820  0.5020
15697TIP3    H268583   2.177   4.408  14.399 -0.5925 -0.5188 -1.1382
15698TIP3   OH268584   3.543   3.832   5.929  0.0991 -0.7013  0.2193
15698TIP3    H168585   3.562   3.738   5.935  3.0140 -0.2403 -0.4677
15698TIP3    H268586   3.629   3.874   5.925 -1.1319  1.8940 -1.3730
15699TIP3   OH268587   2.735   0.587  17.103  0.4181 -0.4782  0.5748
15699TIP3    H168588   2.751   0.508  17.051  1.6350 -0.9060  1.5605
15699TIP3    H268589   2.796   0.652  17.068  2.1570 -1.1368  2.2043
15700TIP3   OH268590   3.042   3.117  17.208  0.0357 -0.6074  0.0071
15700TIP3    H168591   3.115   3.064  17.240  0.5926  0.5410  0.6940
15700TIP3    H268592   3.083   3.182  17.150 -0.3798  0.2733  0.6799
15701TIP3   OH268593   0.872   1.266  15.796  0.4102  0.3965 -0.0788
15701TIP3    H168594   0.851   1.288  15.887  0.9581  1.0772 -0.1117
15701TIP3    H268595   0.967   1.254  15.796  0.4021  0.3311 -0.5505
15702TIP3   OH268596   6.126   3.192  13.576  0.2380  0.2738  0.0243
15702TIP3    H168597   6.200   3.165  13.631  0.4468  0.9015  0.0631
15702TIP3    H268598   6.167   3.214  13.492  0.0259  0.1306 -0.1175
15703TIP3   OH268599   3.848   0.267  11.522  0.1060 -0.3414  0.7821
15703TIP3    H168600   3.780   0.319  11.564 -0.2534 -0.0216 -0.1855
15703TIP3    H268601   3.924   0.325  11.517  0.2886 -0.5141  1.3316
15704TIP3   OH268602   2.633   0.930  15.543  0.6642 -0.1189  0.7512
15704TIP3    H168603   2.547   0.971  15.532  0.2181 -0.3586  2.9669
15704TIP3    H268604   2.630   0.852  15.488 -0.5165 -0.0887  0.7598
15705TIP3   OH268605   1.684   2.951   2.281  0.4116 -0.1770 -0.0616
15705TIP3    H168606   1.627   3.028   2.290  0.4370 -0.0417 -0.9498
15705TIP3    H268607   1.771   2.981   2.307  0.5135  0.2287 -0.8502
15706TIP3   OH268608   1.372   1.222  11.616  0.2202  0.0842 -0.3589
15706TIP3    H168609   1.452   1.262  11.650  0.7283 -0.4680 -0.8886
15706TIP3    H268610   1.370   1.246  11.523  0.3130 -0.7611 -0.5856
15707TIP3   OH268611   6.575   1.237  14.371 -0.2868  0.1149 -0.4680
15707TIP3    H168612   6.566   1.314  14.426  1.0717  0.2142 -0.3363
15707TIP3    H268613   6.486   1.210  14.352 -0.7906  0.5068  1.1697
15708TIP3   OH268614   3.930   0.989  12.888 -0.3686  0.4769  0.8412
15708TIP3    H168615   3.963   1.076  12.908 -0.8660  1.2263 -1.3092
15708TIP3    H268616   3.893   0.997  12.800 -0.2177 -1.9660  0.4821
15709TIP3   OH268617   5.352   6.552   4.927 -0.2529  0.6813  0.7855
15709TIP3    H168618   5.289   6.567   4.857  0.7488 -1.1901 -0.6079
15709TIP3    H268619   5.366   6.638   4.966 -0.4536  1.8969 -1.6601
15710TIP3   OH268620   2.569   1.331  13.455  0.4593  0.2131  0.3956
15710TIP3    H168621   2.480   1.362  13.440  0.0322 -1.3242 -0.3627
15710TIP3    H268622   2.618   1.356  13.377 -0.0790 -1.6305 -0.5811
15711TIP3   OH268623   0.522   1.884  15.320  0.7173 -0.2750  0.3333
15711TIP3    H168624   0.602   1.927  15.291 -0.5977  2.0257 -0.1070
15711TIP3    H268625   0.551   1.825  15.390  2.7313  0.8038  0.4913
15712TIP3   OH268626   2.826   5.675  10.473 -0.5365 -0.2599  0.8078
15712TIP3    H168627   2.852   5.618  10.401  0.4143 -0.5785  1.3937
15712TIP3    H268628   2.800   5.616  10.543  0.4478  0.0137  1.4172
15713TIP3   OH268629   3.652   4.493  12.239  0.5837  0.0262 -0.0347
15713TIP3    H168630   3.739   4.481  12.201  0.4170  0.6360 -0.6394
15713TIP3    H268631   3.609   4.556  12.181  0.0519  0.4140  0.7624
15714TIP3   OH268632   5.139   2.013   2.776  0.7189 -0.1974  0.1025
15714TIP3    H168633   5.203   2.006   2.847  0.6902  1.7407  0.3939
15714TIP3    H268634   5.081   1.938   2.787  2.0013 -1.1218  0.7930
15715TIP3   OH268635   4.953   3.106   1.853 -0.1386 -0.3056 -0.0790
15715TIP3    H168636   4.936   3.198   1.836 -0.0872 -0.0424  1.1646
15715TIP3    H268637   4.877   3.077   1.904  0.3966 -0.6402  0.5460
15716TIP3   OH268638   3.133   3.866   4.485  0.0305 -0.4976  0.4663
15716TIP3    H168639   3.149   3.773   4.499 -1.4218 -1.1210 -1.5964
15716TIP3    H268640   3.067   3.889   4.550  1.1615 -0.6046  1.6915
15717TIP3   OH268641   3.438   3.864   3.526  0.0121  0.2059  0.1602
15717TIP3    H168642   3.521   3.821   3.550  1.0565  0.5330 -2.5925
15717TIP3    H268643   3.456   3.957   3.535 -0.3687  0.2561  0.4235
15718TIP3   OH268644   1.853   1.689  13.368 -0.4148 -0.2084  0.3823
15718TIP3    H168645   1.780   1.636  13.334 -0.6602  0.1047  0.4182
15718TIP3    H268646   1.832   1.701  13.461 -0.4378  0.0735  0.3428
15719TIP3   OH268647   0.464   2.428   0.645 -0.3599 -0.1378 -0.4143
15719TIP3    H168648   0.392   2.431   0.582  2.0000  1.8671 -3.3175
15719TIP3    H268649   0.510   2.511   0.633  1.1803 -0.3362  2.9438
15720TIP3   OH268650   6.804   4.972  12.142 -0.4103 -0.2663 -0.5900
15720TIP3    H168651   6.737   4.911  12.172 -0.3672 -0.2176 -0.3968
15720TIP3    H268652   6.795   5.048  12.199 -0.4205 -0.1179 -0.7881
15721TIP3   OH268653   3.515   1.088   0.292 -0.0676 -0.2407 -0.2687
15721TIP3    H168654   3.467   1.171   0.283 -0.4795 -0.4727 -0.2505
15721TIP3    H268655   3.466   1.026   0.239 -0.6051 -0.8220  0.8537
15722TIP3   OH268656   6.230   3.623   0.781 -0.3422  0.1960 -0.2457
15722TIP3    H168657   6.235   3.644   0.688 -0.7295  0.9286 -0.1075
15722TIP3    H268658   6.142   3.587   0.792 -0.1197 -0.3526 -0.2525
15723TIP3   OH268659   0.535   5.591  12.512 -0.0371  0.1720  0.0695
15723TIP3    H168660   0.556   5.679  12.543  0.7421 -0.1693  0.5551
15723TIP3    H268661   0.440   5.591  12.500  0.0532  1.3498 -0.8235
15724TIP3   OH268662   6.511   0.464   4.339  0.5216 -0.0782 -0.2413
15724TIP3    H168663   6.546   0.407   4.270  1.6961  1.2831 -0.8324
15724TIP3    H268664   6.441   0.513   4.296  0.3179 -0.2259 -0.0768
15725TIP3   OH268665   2.599   3.646  12.372 -0.3059  0.1024 -0.0454
15725TIP3    H168666   2.669   3.624  12.434 -0.2108  2.1287  0.6397
15725TIP3    H268667   2.557   3.724  12.409 -0.8797  0.8030 -2.0242
15726TIP3   OH268668   2.980   1.728   5.808  0.0054  0.0918  0.4695
15726TIP3    H168669   3.043   1.678   5.861 -0.9722 -0.1403  1.4410
15726TIP3    H268670   2.903   1.738   5.865 -0.7213  0.6417 -0.5827
15727TIP3   OH268671   2.479   5.670  10.679 -0.5865  0.7719  0.0668
15727TIP3    H168672   2.493   5.759  10.647 -0.3626  0.7479  0.0976
15727TIP3    H268673   2.565   5.629  10.673 -0.6817  0.5700  0.0916
15728TIP3   OH268674   0.141   6.075   4.412  0.3849  0.5204 -0.5308
15728TIP3    H168675   0.058   6.027   4.409  1.4753 -1.4214 -1.3022
15728TIP3    H268676   0.138   6.123   4.495 -0.8611 -0.7442  0.2068
15729TIP3   OH268677   3.353   2.450  10.880  0.4852 -0.2155 -0.0051
15729TIP3    H168678   3.446   2.438  10.866  0.4336 -0.8160  0.1607
15729TIP3    H268679   3.311   2.384  10.825  0.0456  1.5487 -1.9674
15730TIP3   OH268680   3.059   2.549   3.348  0.3025  0.3798  0.4749
15730TIP3    H168681   2.997   2.510   3.286  0.1717  0.7818  0.3430
15730TIP3    H268682   3.118   2.478   3.372  0.4495  0.2509 -0.2380
15731TIP3   OH268683   3.485   2.463  16.516  0.2981  0.6103 -0.3641
15731TIP3    H168684   3.512   2.435  16.429  0.3790 -0.3363 -0.0510
15731TIP3    H268685   3.407   2.518  16.501  0.1190  0.1893 -1.0045
15732TIP3   OH268686   3.284   0.330   2.967  0.3257  0.2774 -0.0465
15732TIP3    H168687   3.346   0.292   3.029 -0.9117 -2.0260 -0.1515
15732TIP3    H268688   3.204   0.345   3.018 -0.3327 -0.5828 -0.7953
15733TIP3   OH268689   5.595   0.688  14.612  0.1981 -0.3606 -0.5762
15733TIP3    H168690   5.659   0.756  14.591 -2.4564  1.7645 -2.4468
15733TIP3    H268691   5.523   0.734  14.654 -0.9178 -2.3287 -0.1931
15734TIP3   OH268692   3.968   1.972   0.864 -0.3627  0.7059  0.5328
15734TIP3    H168693   3.966   2.034   0.936 -1.8042  1.2917  0.0319
15734TIP3    H268694   4.043   1.916   0.882 -1.3692  0.0695  3.1024
15735TIP3   OH268695   4.531   1.828   3.071 -0.7652  0.3228  0.0053
15735TIP3    H168696   4.476   1.756   3.040 -1.4732  1.1632 -0.7515
15735TIP3    H268697   4.593   1.842   3.000 -0.1350 -0.0322  0.4784
15736TIP3   OH268698   6.109   6.353  16.537  0.4265  0.2423 -0.6154
15736TIP3    H168699   6.194   6.309  16.543  0.2930 -0.0038 -0.5086
15736TIP3    H268700   6.130   6.447  16.543  0.6469  0.1620 -0.0804
15737TIP3   OH268701   1.840   1.347  12.072 -0.3011  0.1252 -0.4361
15737TIP3    H168702   1.874   1.351  12.161  3.3821 -1.6837 -1.5531
15737TIP3    H268703   1.777   1.275  12.074  0.3068 -0.4067  0.5896
15738TIP3   OH268704   4.642   2.101   3.000  0.3840 -0.2802 -0.0812
15738TIP3    H168705   4.593   2.181   2.982  1.5643  0.0824 -1.9901
15738TIP3    H268706   4.579   2.044   3.045 -1.3838  0.6317 -1.2624
15739TIP3   OH268707   3.682   1.380  17.083 -0.3200 -0.7336 -0.2201
15739TIP3    H168708   3.631   1.376  17.163  0.3733  2.0940  0.4701
15739TIP3    H268709   3.618   1.392  17.013 -0.7584  1.9576  0.5460
15740TIP3   OH268710   0.548   2.350  12.341  0.2951  0.2331  0.0046
15740TIP3    H168711   0.633   2.316  12.311  0.1571 -0.4422  0.3561
15740TIP3    H268712   0.502   2.273  12.375  1.0696  1.0985  3.4773
15741TIP3   OH268713   5.786   0.702  16.748 -0.2368 -0.4815  0.4187
15741TIP3    H168714   5.761   0.756  16.673  0.4129 -2.3279 -1.2068
15741TIP3    H268715   5.715   0.714  16.812  0.1276  2.6301  0.3831
15742TIP3   OH268716   2.381   5.518  12.609  0.4899  0.8163 -0.1842
15742TIP3    H168717   2.324   5.582  12.567 -0.7756 -1.0386 -1.4616
15742TIP3    H268718   2.469   5.541  12.581 -0.1189  0.9558 -2.1258
15743TIP3   OH268719   0.772   1.700   1.419  0.0314 -0.3465 -0.2122
15743TIP3    H168720   0.759   1.618   1.371  0.7400 -0.4017 -0.3148
15743TIP3    H268721   0.695   1.707   1.475 -0.2983 -0.8074 -0.5965
15744TIP3   OH268722   1.673   0.485   5.189 -0.4966  0.3653 -0.3513
15744TIP3    H168723   1.604   0.549   5.205 -2.1934 -1.0350 -1.7212
15744TIP3    H268724   1.644   0.436   5.112  1.8093 -0.6060 -0.6899
15745TIP3   OH268725   2.708   1.550  12.227 -0.4530  0.2530 -0.0331
15745TIP3    H168726   2.702   1.552  12.131  1.4420  0.0804 -0.1984
15745TIP3    H268727   2.737   1.638  12.251  1.5998 -0.4079  0.1074
15746TIP3   OH268728   1.878   5.687  10.720 -0.3062  0.3283 -0.6884
15746TIP3    H168729   1.837   5.601  10.727  2.2057 -1.0386 -1.4311
15746TIP3    H268730   1.823   5.744  10.773 -1.2456 -2.0360  1.0727
15747TIP3   OH268731   1.015   6.464   2.382  0.2653 -0.1657  0.3343
15747TIP3    H168732   1.097   6.438   2.423 -0.0151  0.3045  1.2060
15747TIP3    H268733   0.983   6.385   2.339  0.7858 -0.5491  0.6516
15748TIP3   OH268734   1.837   1.563   6.271 -0.5379  0.1416  0.1181
15748TIP3    H168735   1.819   1.637   6.212 -0.1978 -0.1978 -0.4215
15748TIP3    H268736   1.910   1.517   6.230 -1.4591 -1.1413 -0.1401
15749TIP3   OH268737   3.945   6.511  11.421  0.8959 -0.0993 -0.0368
15749TIP3    H168738   3.859   6.548  11.404  0.7000 -1.2167 -1.6832
15749TIP3    H268739   3.988   6.511  11.336  1.6871 -1.6423  0.3395
15750TIP3   OH268740   6.672   4.116   6.005  0.1891  0.1431 -0.3769
15750TIP3    H168741   6.653   4.052   6.073  1.0375 -1.0868 -1.2621
15750TIP3    H268742   6.730   4.180   6.047 -1.3704  0.8767  0.7640
15751TIP3   OH268743   4.217   2.247  14.960 -0.1837 -0.3751  0.3594
15751TIP3    H168744   4.224   2.280  14.870 -0.5480 -2.0018 -0.3001
15751TIP3    H268745   4.305   2.217  14.981 -0.1437 -0.1756  0.4816
15752TIP3   OH268746   1.437   1.018  16.392 -0.3714 -0.6511  0.2284
15752TIP3    H168747   1.461   0.928  16.372 -0.8575 -0.4093 -1.6819
15752TIP3    H268748   1.342   1.021  16.379 -0.1976  0.3994 -1.0898
15753TIP3   OH268749   6.384   1.005   0.287  0.3687 -0.4219 -0.0732
15753TIP3    H168750   6.325   1.003   0.362 -1.2486  4.3442 -0.8773
15753TIP3    H268751   6.326   0.999   0.211  1.7583 -2.7820 -1.0646
15754TIP3   OH268752   2.893   0.755   3.900  0.1475  0.4085 -0.3431
15754TIP3    H168753   2.822   0.717   3.849 -0.2262  0.9583 -0.2298
15754TIP3    H268754   2.858   0.762   3.989 -0.1697  2.0137 -0.5692
15755TIP3   OH268755   2.892   0.112  13.834  0.3660 -0.1716  0.0645
15755TIP3    H168756   2.961   0.071  13.885 -1.1159  0.1702  2.4806
15755TIP3    H268757   2.813   0.062  13.855 -1.2431  2.8822  2.0635
15756TIP3   OH268758   2.816   3.585  14.312 -0.1500  0.2939  0.2383
15756TIP3    H168759   2.892   3.551  14.265  1.8900  0.5542  3.0760
15756TIP3    H268760   2.756   3.511  14.317  1.9410 -1.4009  1.8198
15757TIP3   OH268761   1.626   5.039  16.416 -0.3876 -0.2967  0.1240
15757TIP3    H168762   1.657   4.949  16.421 -1.3890 -0.6307  0.5458
15757TIP3    H268763   1.704   5.090  16.395  0.3833 -1.1335  0.8709
15758TIP3   OH268764   2.100   2.362  15.771  0.0586 -0.2841  0.0564
15758TIP3    H168765   2.163   2.309  15.821 -1.3698 -1.2851  0.8589
15758TIP3    H268766   2.087   2.314  15.690  2.7270  1.5713 -1.6395
15759TIP3   OH268767   4.650   4.312   0.264  0.0591 -0.0966  0.4629
15759TIP3    H168768   4.701   4.354   0.334 -0.6942 -1.5567  1.9761
15759TIP3    H268769   4.610   4.236   0.307 -2.9685  0.6694 -0.7627
15760TIP3   OH268770   4.530   1.414  14.066 -0.8578  0.0619 -0.4951
15760TIP3    H168771   4.487   1.333  14.094  0.4157  0.1068  1.8678
15760TIP3    H268772   4.465   1.483  14.081 -1.1193 -0.2539 -0.1599
15761TIP3   OH268773   3.735   3.268   5.042  0.3309  0.1460  0.1558
15761TIP3    H168774   3.700   3.213   4.971  0.8311  1.4622 -1.1681
15761TIP3    H268775   3.671   3.259   5.113  0.2807 -1.9420 -0.0825
15762TIP3   OH268776   5.544   5.497   0.897 -0.0720 -0.1250 -0.5352
15762TIP3    H168777   5.569   5.442   0.822 -0.9032 -1.2242 -0.0453
15762TIP3    H268778   5.450   5.514   0.884 -0.1018  0.1120 -0.0300
15763TIP3   OH268779   2.771   0.580  12.751 -0.0578 -0.2638  0.0087
15763TIP3    H168780   2.820   0.659  12.776  0.4966  0.0187 -1.8506
15763TIP3    H268781   2.702   0.612  12.693 -1.0262 -0.9547  0.7485
15764TIP3   OH268782   2.912   3.438   4.069 -0.1827  0.6021 -0.2420
15764TIP3    H168783   2.894   3.351   4.105  1.7981  0.1958 -0.1293
15764TIP3    H268784   2.864   3.440   3.987  0.8347 -1.1541 -0.9304
15765TIP3   OH268785   6.055   1.877   3.466  0.4792 -0.2971 -0.1653
15765TIP3    H168786   6.003   1.817   3.412  0.2363  0.0657 -0.3313
15765TIP3    H268787   6.142   1.836   3.470 -0.9189 -3.6954  4.2665
15766TIP3   OH268788   2.557   2.887  17.007 -0.8133 -0.4334 -0.5411
15766TIP3    H168789   2.593   2.800  16.989  0.6181 -0.1762  0.7906
15766TIP3    H268790   2.563   2.933  16.924  1.5490 -0.5893 -0.5270
15767TIP3   OH268791   3.501   2.147  10.911 -0.4882  0.4231 -0.1403
15767TIP3    H168792   3.418   2.146  10.960 -0.9319  1.8255 -0.8134
15767TIP3    H268793   3.525   2.239  10.907  0.7118  0.1047 -0.6534
15768TIP3   OH268794   2.704   5.699   5.938 -0.0520  0.4333  0.2510
15768TIP3    H168795   2.627   5.747   5.907 -1.8810 -1.5962  1.3904
15768TIP3    H268796   2.672   5.647   6.011  2.0216 -1.7082 -0.2451
15769TIP3   OH268797   4.144   4.861   3.569 -0.5532 -0.2631  0.1578
15769TIP3    H168798   4.090   4.923   3.618  0.3102  1.4685 -1.0144
15769TIP3    H268799   4.234   4.890   3.583 -0.2369 -0.2489 -1.7350
15770TIP3   OH268800   4.289   3.696   3.528  0.1352 -0.1498  0.0121
15770TIP3    H168801   4.290   3.615   3.478 -1.0518  1.0179 -2.0053
15770TIP3    H268802   4.360   3.748   3.491  2.2643 -0.9170  2.6523
15771TIP3   OH268803   1.058   1.790  15.931  0.7020  0.1981  0.1962
15771TIP3    H168804   1.042   1.695  15.932 -0.1141  0.3207  1.6066
15771TIP3    H268805   1.058   1.813  15.838 -1.4419 -0.8106 -0.1126
15772TIP3   OH268806   0.619   1.429   5.163  0.0164  0.1010  0.6915
15772TIP3    H168807   0.628   1.524   5.168 -1.0472  0.2148  0.6837
15772TIP3    H268808   0.580   1.413   5.077  2.0674 -0.5253 -0.2012
15773TIP3   OH268809   5.345   4.794  11.727  0.0724  0.4771  0.3784
15773TIP3    H168810   5.405   4.775  11.655  1.7079 -0.5684  1.9315
15773TIP3    H268811   5.259   4.764  11.696  0.9591 -1.0917 -0.6963
15774TIP3   OH268812   4.060   3.900  11.990 -0.5283  0.0072  0.6894
15774TIP3    H168813   4.084   3.991  12.003 -0.1708 -0.0257  0.2917
15774TIP3    H268814   4.101   3.853  12.063  2.0582 -0.2799 -0.8044
15775TIP3   OH268815   1.078   3.101  16.217  0.1177  0.6568  0.0706
15775TIP3    H168816   1.096   3.143  16.301  1.7478  0.8776 -0.3523
15775TIP3    H268817   1.163   3.100  16.173 -0.3966 -0.8669 -0.9386
15776TIP3   OH268818   0.618   0.342  15.434  0.2700 -0.2175 -0.2985
15776TIP3    H168819   0.553   0.281  15.401  0.6273 -2.3733  2.5791
15776TIP3    H268820   0.695   0.289  15.451 -0.4166  0.0018  5.4377
15777TIP3   OH268821   1.163   0.931   0.550 -0.1902  0.1141  0.2841
15777TIP3    H168822   1.160   0.879   0.470 -0.6349  0.0932  0.3116
15777TIP3    H268823   1.127   0.874   0.618 -0.6653  0.4421  0.3172
15778TIP3   OH268824   4.038   4.486   0.019 -0.2685 -0.5539 -0.5709
15778TIP3    H168825   3.997   4.549   0.078  0.4648 -0.3291 -0.2865
15778TIP3    H268826   4.032   4.402   0.065 -1.7166 -0.8081 -1.1798
15779TIP3   OH268827   5.448   0.039  12.300  0.1999 -0.1947 -0.0878
15779TIP3    H168828   5.507   0.109  12.275 -0.2796  0.8521  1.5287
15779TIP3    H268829   5.494  -0.042  12.278  2.4184  0.5677  1.4725
15780TIP3   OH268830   2.425   6.102  17.250  0.2313 -0.3120  0.2603
15780TIP3    H168831   2.379   6.059  17.178  1.9413 -0.2325 -0.9137
15780TIP3    H268832   2.410   6.195  17.235  1.5295 -0.2344 -0.6854
15781TIP3   OH268833   5.061   5.290  16.217  0.3617 -0.6056 -0.0529
15781TIP3    H168834   4.974   5.284  16.256 -0.5086  0.3958 -1.7211
15781TIP3    H268835   5.109   5.351  16.273 -0.3094 -0.4719  0.3870
15782TIP3   OH268836   2.507   6.514  12.882 -0.0667 -0.1919  0.0214
15782TIP3    H168837   2.576   6.568  12.922 -0.3385 -0.2405  0.5694
15782TIP3    H268838   2.431   6.573  12.878 -0.9359 -1.0364  2.3559
15783TIP3   OH268839   5.752   2.867  14.578 -0.6619 -0.1793 -0.3729
15783TIP3    H168840   5.722   2.951  14.613 -0.1956 -0.2935  0.3248
15783TIP3    H268841   5.785   2.820  14.655  3.2789  0.7394 -1.2774
15784TIP3   OH268842   2.725   1.368  16.784  0.4498 -0.1016 -0.1626
15784TIP3    H168843   2.693   1.286  16.747 -0.1676  0.1109 -0.1183
15784TIP3    H268844   2.646   1.413  16.814  0.7698  0.5488 -0.2665
15785TIP3   OH268845   2.958   4.083   3.322 -0.3289 -0.2857  0.1341
15785TIP3    H168846   2.869   4.059   3.295 -0.2819  0.8142 -1.1049
15785TIP3    H268847   3.001   4.110   3.241  0.7186  0.4793  0.9138
15786TIP3   OH268848   6.798   2.556   5.039 -0.1705  0.3235 -0.3002
15786TIP3    H168849   6.833   2.608   4.967  1.2898 -0.3453 -0.1097
15786TIP3    H268850   6.849   2.475   5.038 -1.0611 -0.2807  0.6289
15787TIP3   OH268851   0.695   0.181  15.835 -0.2052 -0.2567 -0.0751
15787TIP3    H168852   0.681   0.273  15.860  1.0700 -0.3351  1.0321
15787TIP3    H268853   0.653   0.130  15.903  0.3877 -0.4847  0.1259
15788TIP3   OH268854   5.111   5.781   0.804 -0.0788 -0.3417  0.1864
15788TIP3    H168855   5.198   5.800   0.768  0.3988 -1.5741  0.6310
15788TIP3    H268856   5.122   5.793   0.899 -0.9370  1.4322  0.1063
15789TIP3   OH268857   0.286   4.453  11.775  0.4312  0.1287  0.0855
15789TIP3    H168858   0.361   4.395  11.766  2.2636  2.3715 -0.0902
15789TIP3    H268859   0.285   4.477  11.868 -0.6406 -0.5546  0.2657
15790TIP3   OH268860   2.008   5.059  16.231 -0.0482 -0.2396 -0.4487
15790TIP3    H168861   2.019   5.154  16.235 -0.3785 -0.1931 -0.6126
15790TIP3    H268862   1.913   5.046  16.227 -0.0032 -0.5757 -0.4434
15791TIP3   OH268863   4.765   3.091   1.379  0.2692  0.1927  0.4465
15791TIP3    H168864   4.736   3.182   1.369 -1.0223 -0.1541  0.7544
15791TIP3    H268865   4.749   3.050   1.294  0.8443  0.2529  0.3093
15792TIP3   OH268866   3.875   5.898  10.695 -0.0400 -0.5339  0.1231
15792TIP3    H168867   3.814   5.837  10.653  0.5992 -1.7160  0.8523
15792TIP3    H268868   3.823   5.941  10.762 -0.9635  1.0637 -1.5259
15793TIP3   OH268869   0.846   5.273  13.587  0.8587 -0.0363 -0.8413
15793TIP3    H168870   0.821   5.230  13.505  0.2870  0.0208 -0.6999
15793TIP3    H268871   0.897   5.207  13.633 -1.3110 -1.1894  0.0682
15794TIP3   OH268872   5.959   4.142  14.387  0.1063 -0.3941  0.3063
15794TIP3    H168873   5.890   4.099  14.337  0.7891 -1.4277  0.2350
15794TIP3    H268874   5.931   4.233  14.393 -0.8041 -0.6096 -0.5199
15795TIP3   OH268875   5.535   1.249  12.963  0.0465  0.4082  0.8058
15795TIP3    H168876   5.613   1.238  12.909 -0.0655  3.1028 -0.0828
15795TIP3    H268877   5.462   1.240  12.902 -0.1027  2.7943  0.5412
15796TIP3   OH268878   6.319   2.623  12.901  0.1109  0.2419  0.3652
15796TIP3    H168879   6.252   2.600  12.836 -1.6666  0.5468  2.0016
15796TIP3    H268880   6.278   2.603  12.985  1.1788  2.6597  1.5406
15797TIP3   OH268881   5.131   2.561  12.087  0.2465  0.1077  0.0683
15797TIP3    H168882   5.131   2.467  12.103  0.1843  0.0676 -0.1631
15797TIP3    H268883   5.139   2.600  12.174  2.0711 -0.1231  0.0535
15798TIP3   OH268884   3.145   0.564   3.830 -0.4302  0.3225  0.1275
15798TIP3    H168885   3.075   0.500   3.836 -0.2335  0.0106 -0.7844
15798TIP3    H268886   3.100   0.646   3.805 -0.5022  0.1732 -0.2444
15799TIP3   OH268887   4.653   3.791   6.089 -0.5940  0.8815  0.0503
15799TIP3    H168888   4.663   3.756   6.000 -0.4297 -1.4739  0.9328
15799TIP3    H268889   4.741   3.786   6.127 -1.0743 -0.2921  1.0609
15800TIP3   OH268890   3.644   0.762   2.976  0.0958 -0.2683  0.1209
15800TIP3    H168891   3.647   0.850   2.938  0.0195 -0.5917 -0.6754
15800TIP3    H268892   3.551   0.740   2.976  0.1426 -0.4690  0.0207
15801TIP3   OH268893   1.900   3.649   6.365 -0.9644  0.2205  0.3436
15801TIP3    H168894   1.870   3.701   6.290  0.4660  1.8790  0.8571
15801TIP3    H268895   1.826   3.653   6.427 -1.1548  1.0611  0.0787
15802TIP3   OH268896   6.777   0.052   2.091  0.2997  0.2133 -0.6815
15802TIP3    H168897   6.795  -0.037   2.122  1.2670  0.5349 -0.2755
15802TIP3    H268898   6.797   0.049   1.997 -0.3342 -0.1617 -0.8117
15803TIP3   OH268899   1.558   1.116  14.608 -0.2682  0.2861 -0.0589
15803TIP3    H168900   1.643   1.144  14.575 -0.4664  0.9663 -0.0033
15803TIP3    H268901   1.578   1.071  14.690  0.1043 -0.2497 -0.4360
15804TIP3   OH268902   6.319   2.862  14.368  0.1865  0.6250  0.6426
15804TIP3    H168903   6.280   2.777  14.349 -1.5559  1.1866  1.5468
15804TIP3    H268904   6.412   2.843  14.378  0.1215 -0.8652 -0.9696
15805TIP3   OH268905   5.034   0.324   3.405 -0.1625  0.3900 -0.4134
15805TIP3    H168906   4.977   0.392   3.440 -2.7740 -1.7789 -0.1286
15805TIP3    H268907   5.066   0.277   3.482 -0.5645 -0.3395 -0.6850
15806TIP3   OH268908   3.802   5.145  12.592 -0.5358  0.0604  0.3565
15806TIP3    H168909   3.864   5.085  12.551 -0.6825 -0.1824  0.4845
15806TIP3    H268910   3.716   5.105  12.578 -0.5303 -0.4042  1.5248
15807TIP3   OH268911   5.026   5.698   2.967  0.0012  0.3191  0.5270
15807TIP3    H168912   4.981   5.650   2.898  2.4214  0.8168 -1.5708
15807TIP3    H268913   5.056   5.631   3.028 -0.3037 -0.3870 -0.0846
15808TIP3   OH268914   0.645   5.218   2.709  0.7593  0.2983 -0.5480
15808TIP3    H168915   0.662   5.172   2.792 -0.0201  1.2253  0.1523
15808TIP3    H268916   0.614   5.150   2.650  0.4295 -0.2309  0.2128
15809TIP3   OH268917   1.583   6.689   3.295  0.5901  0.1240  0.6722
15809TIP3    H168918   1.488   6.685   3.310  0.6768 -0.4536  1.0705
15809TIP3    H268919   1.604   6.608   3.250  0.7471  0.6919 -0.3098
15810TIP3   OH268920   2.874   2.223   5.825  0.0560 -0.4193  0.2153
15810TIP3    H168921   2.900   2.143   5.780 -0.7696  0.5922 -2.2172
15810TIP3    H268922   2.782   2.210   5.846  0.5360 -1.0567  2.1366
15811TIP3   OH268923   0.364   5.850  10.976  0.3197  0.5205  0.1449
15811TIP3    H168924   0.317   5.845  10.893  1.5735  0.9314 -0.6184
15811TIP3    H268925   0.451   5.813  10.957  0.3269 -0.2417  1.5150
15812TIP3   OH268926   5.132   4.018   3.458 -0.4313  0.3450  0.4730
15812TIP3    H168927   5.091   4.094   3.417 -0.7470  0.0523  0.2318
15812TIP3    H268928   5.202   4.054   3.512  0.1867  0.7330 -0.5396
15813TIP3   OH268929   2.372   4.674   1.542 -0.1162 -0.1831 -0.4144
15813TIP3    H168930   2.341   4.738   1.606 -1.4011  1.2124 -2.2972
15813TIP3    H268931   2.325   4.594   1.564  0.6591 -0.1998  1.3035
15814TIP3   OH268932   0.234   0.330  11.238  0.8656 -0.7344  0.5897
15814TIP3    H168933   0.256   0.423  11.240  1.5559 -0.8885  0.3663
15814TIP3    H268934   0.158   0.322  11.296 -0.1241  0.1951 -0.5258
15815TIP3   OH268935   0.224   0.288  13.690  0.2900 -0.0279 -0.5417
15815TIP3    H168936   0.176   0.370  13.677  1.1244  0.4313 -0.7421
15815TIP3    H268937   0.185   0.251  13.769 -0.5065  0.2516 -0.7836
15816TIP3   OH268938   1.639   0.810  12.923  0.4048  0.4384 -0.3935
15816TIP3    H168939   1.674   0.811  12.834 -0.5020 -0.2544 -0.7712
15816TIP3    H268940   1.557   0.760  12.916  1.5144 -1.8027  1.2745
15817TIP3   OH268941   2.336   2.700  13.856  0.1914 -0.0132 -0.1329
15817TIP3    H168942   2.276   2.766  13.823 -1.0540 -1.2346 -0.4138
15817TIP3    H268943   2.367   2.653  13.778  0.8860  0.0712  0.0783
15818TIP3   OH268944   5.374   4.670   1.691  0.7647 -0.2056  0.2125
15818TIP3    H168945   5.470   4.669   1.689  0.7779  0.7361 -1.0287
15818TIP3    H268946   5.349   4.651   1.600 -0.2067  0.1282  0.4078
15819TIP3   OH268947   3.539   2.363   3.962 -0.4691 -0.3515  0.6510
15819TIP3    H168948   3.473   2.295   3.954 -1.1021  0.3251 -0.0966
15819TIP3    H268949   3.559   2.388   3.872  0.7739 -0.4928  0.8611
15820TIP3   OH268950   0.655   2.498  12.632  0.1938  0.7475 -0.1398
15820TIP3    H168951   0.643   2.550  12.712 -1.0263  1.4001 -0.7232
15820TIP3    H268952   0.677   2.411  12.664  0.1775  1.1007  0.8989
15821TIP3   OH268953   1.836   5.777  15.272 -0.0507 -0.7199  0.2623
15821TIP3    H168954   1.890   5.766  15.350 -0.1215 -5.4190 -0.0947
15821TIP3    H268955   1.746   5.761  15.301 -0.3088 -0.7171 -0.4933
15822TIP3   OH268956   0.592   6.781   5.075 -0.1324 -0.4573  0.0875
15822TIP3    H168957   0.545   6.698   5.070 -1.4413  0.3106 -1.2133
15822TIP3    H268958   0.581   6.810   5.165 -2.9718  0.0780 -0.3246
15823TIP3   OH268959   1.082   3.007   5.747 -0.3342 -0.3190  0.7253
15823TIP3    H168960   1.095   2.967   5.833  0.8004 -1.0630  0.2367
15823TIP3    H268961   1.039   3.091   5.765 -2.1219 -1.4274  1.8342
15824TIP3   OH268962   5.429   0.235   4.034  0.3737 -0.1928 -0.0908
15824TIP3    H168963   5.336   0.219   4.020  0.1907 -0.6967  1.5416
15824TIP3    H268964   5.440   0.329   4.018 -0.4787 -0.0738  0.0047
15825TIP3   OH268965   2.129   1.560   1.747  0.1382 -0.4118 -0.7338
15825TIP3    H168966   2.125   1.616   1.670 -0.1521  0.1217 -0.3425
15825TIP3    H268967   2.193   1.493   1.725  2.0785  1.2335 -0.4811
15826TIP3   OH268968   2.976   2.635   2.467 -0.4786 -0.4370 -0.3488
15826TIP3    H168969   2.935   2.673   2.545  0.2884  2.3428 -1.2038
15826TIP3    H268970   3.061   2.603   2.499  1.6352  4.2327 -0.5227
15827TIP3   OH268971   3.756   6.326  16.889 -0.5330  0.4290 -0.1742
15827TIP3    H168972   3.847   6.320  16.916 -1.0281  0.6577  1.6517
15827TIP3    H268973   3.730   6.236  16.868  0.4568  0.5328 -2.0462
15828TIP3   OH268974   2.021   4.476  15.031 -0.6366 -0.0107 -0.2453
15828TIP3    H168975   1.993   4.459  15.121 -1.5488  2.9994  0.1677
15828TIP3    H268976   1.940   4.478  14.980 -0.2055 -0.8160 -0.9834
15829TIP3   OH268977   1.476   3.080   3.511  0.2266 -0.0362  0.4804
15829TIP3    H168978   1.418   3.151   3.481 -1.5275  0.1216  3.8169
15829TIP3    H268979   1.417   3.012   3.541  1.8805 -1.5473  0.4626
15830TIP3   OH268980   5.738   5.445   0.107 -0.2398 -0.0970 -0.8706
15830TIP3    H168981   5.714   5.499   0.183 -2.6150  0.8743 -2.1739
15830TIP3    H268982   5.786   5.372   0.144  0.2163  1.2190  1.3663
15831TIP3   OH268983   4.305   4.195  12.502  0.6770 -0.0600 -0.2895
15831TIP3    H168984   4.340   4.248  12.574  0.1092 -0.3641  0.2270
15831TIP3    H268985   4.211   4.187  12.522  0.8045 -1.5134 -0.1833
15832TIP3   OH268986   3.328   5.894   4.606  0.1159 -0.0965  0.0039
15832TIP3    H168987   3.339   5.839   4.684 -3.0798 -0.0686  0.6058
15832TIP3    H268988   3.401   5.956   4.610 -0.0959  0.1191  3.1725
15833TIP3   OH268989   0.875   1.444  15.590  0.4190 -0.2523 -0.3387
15833TIP3    H168990   0.874   1.397  15.674  1.1287 -0.0192 -0.1880
15833TIP3    H268991   0.966   1.438  15.561 -0.1545 -1.8288 -1.9776
15834TIP3   OH268992   0.558   2.526  16.025  0.8064 -0.0112 -0.2609
15834TIP3    H168993   0.620   2.478  16.079  0.2734 -1.4489 -0.8752
15834TIP3    H268994   0.589   2.513  15.935 -0.3486 -0.7444 -0.5744
15835TIP3   OH268995   4.105   6.352   4.366  0.5074  0.2635  0.9667
15835TIP3    H168996   4.011   6.351   4.348  0.3666  1.6152  1.4540
15835TIP3    H268997   4.134   6.439   4.338  2.2224 -1.1018 -1.9133
15836TIP3   OH268998   4.794   1.499  13.592 -0.0963 -0.2329  0.1456
15836TIP3    H168999   4.714   1.526  13.637  1.1014  1.4714  1.3786
15836TIP3    H269000   4.837   1.581  13.567  1.6206 -1.0675  0.1843
15837TIP3   OH269001   4.088   4.572  15.583 -0.2672 -0.2489 -0.6571
15837TIP3    H169002   4.057   4.484  15.562 -2.3629  0.3146 -0.1723
15837TIP3    H269003   4.066   4.625  15.506  2.5817 -0.4161 -1.7018
15838TIP3   OH269004   4.404   2.200   1.142  0.2186 -0.0544  0.1500
15838TIP3    H169005   4.396   2.273   1.204  1.3418  1.5516 -1.5060
15838TIP3    H269006   4.496   2.201   1.115 -0.5246  0.2679 -2.6477
15839TIP3   OH269007   1.245   3.063   3.107 -0.3217 -0.4561 -0.3794
15839TIP3    H169008   1.326   3.015   3.126  0.8873  0.9484 -1.6619
15839TIP3    H269009   1.263   3.153   3.135 -0.8430  0.2132 -2.0375
15840TIP3   OH269010   6.199   4.297   0.378  0.3797  0.2632  0.0748
15840TIP3    H169011   6.249   4.270   0.454  1.1129  1.5934  0.0974
15840TIP3    H269012   6.108   4.275   0.400  0.8263 -1.4039  0.3788
15841TIP3   OH269013   0.763   0.269   4.106 -0.5001 -0.3663  0.2064
15841TIP3    H169014   0.798   0.343   4.157  0.0657  1.3369 -2.4656
15841TIP3    H269015   0.801   0.192   4.148  1.2952  1.0356  1.3442
15842TIP3   OH269016   5.367   0.379   5.485  0.0560  0.1334  0.0611
15842TIP3    H169017   5.422   0.305   5.510 -1.6455  0.0006  4.3109
15842TIP3    H269018   5.410   0.455   5.525  0.5268  1.1661 -2.2421
15843TIP3   OH269019   0.665   2.713  11.214 -0.4923  0.4473  0.1566
15843TIP3    H169020   0.677   2.652  11.287  1.3733  0.3880 -0.1415
15843TIP3    H269021   0.626   2.790  11.254  0.3374  0.3518  1.2244
15844TIP3   OH269022   2.485   3.948  12.253  0.5660  0.4148  0.0219
15844TIP3    H169023   2.571   3.927  12.289  0.7866 -2.6316 -1.9211
15844TIP3    H269024   2.503   3.973  12.162 -0.5597  0.2907 -0.2493
15845TIP3   OH269025   3.279   0.108   6.245 -0.2002  0.2878  0.0155
15845TIP3    H169026   3.280   0.158   6.163  0.4939  1.4854  0.7193
15845TIP3    H269027   3.345   0.039   6.232 -1.4682 -0.7607 -1.1248
15846TIP3   OH269028   4.037   0.203   1.559  0.1960  0.1899  0.4829
15846TIP3    H169029   3.949   0.200   1.597  0.4290  0.6577  1.0801
15846TIP3    H269030   4.024   0.180   1.467 -0.9496  2.7251 -0.0908
15847TIP3   OH269031   6.375   0.935  13.019 -0.2561 -0.1453 -0.1347
15847TIP3    H169032   6.315   0.895  12.957 -1.0766 -0.7094  1.0004
15847TIP3    H269033   6.455   0.882  13.013 -1.3094 -2.0094  1.3201
15848TIP3   OH269034   6.210   3.254  17.180  0.3380 -0.4453 -0.2796
15848TIP3    H169035   6.217   3.178  17.123  1.6491 -1.0413  0.6425
15848TIP3    H269036   6.174   3.220  17.262  0.5373  0.0018 -0.0013
15849TIP3   OH269037   2.157   1.325  16.900  0.0800 -0.6902  0.1106
15849TIP3    H169038   2.198   1.390  16.958 -0.8765 -1.2208  1.4462
15849TIP3    H269039   2.110   1.267  16.960 -1.1049 -1.1601 -1.2300
15850TIP3   OH269040   0.931   1.434   3.671 -0.6475  0.2412 -0.4207
15850TIP3    H169041   0.848   1.453   3.628 -0.2699  1.7621 -0.5333
15850TIP3    H269042   0.921   1.345   3.703 -1.7791 -0.1214 -1.6785
15851TIP3   OH269043   2.430   3.557  11.985 -0.2173  0.4379  0.2267
15851TIP3    H169044   2.436   3.517  11.898  1.6129 -0.3527  0.6777
15851TIP3    H269045   2.365   3.503  12.031 -1.0957  0.7765 -0.5828
15852TIP3   OH269046   3.337   3.465   1.492  0.0426 -0.2891 -0.4699
15852TIP3    H169047   3.384   3.469   1.575  1.1334  0.4589 -1.1096
15852TIP3    H269048   3.380   3.396   1.443  0.2246  0.1254 -0.9022
15853TIP3   OH269049   4.164   1.195   3.001  0.1306  0.1293  0.1405
15853TIP3    H169050   4.213   1.272   2.974 -0.9618  1.0327  0.6621
15853TIP3    H269051   4.203   1.171   3.086  0.0366  0.5092  0.2937
15854TIP3   OH269052   2.833   4.527   2.200  0.1334 -0.0927 -0.7999
15854TIP3    H169053   2.778   4.591   2.156  0.2171 -0.6830 -1.7696
15854TIP3    H269054   2.796   4.521   2.289 -1.0085 -0.0745 -1.2605
15855TIP3   OH269055   3.808   6.109   3.438  0.6951  0.1618  0.5060
15855TIP3    H169056   3.873   6.073   3.378 -0.8334 -2.8985  0.5076
15855TIP3    H269057   3.859   6.163   3.499  2.6770  0.8257 -1.6054
15856TIP3   OH269058   1.905   6.489   4.409  0.3539 -0.3210 -0.0826
15856TIP3    H169059   1.825   6.473   4.459  0.3999 -0.2705  0.0076
15856TIP3    H269060   1.962   6.416   4.431 -0.2219 -1.1726 -1.3055
15857TIP3   OH269061   4.876   5.617   3.294  0.2783 -0.4100  0.0134
15857TIP3    H169062   4.851   5.621   3.386  1.5788 -0.7511  0.3937
15857TIP3    H269063   4.839   5.534   3.262  1.6260 -1.3387  0.7949
15858TIP3   OH269064   0.998   2.652   0.166  0.4797 -0.6703 -0.3327
15858TIP3    H169065   1.035   2.609   0.089 -1.4393 -2.4462 -0.3400
15858TIP3    H269066   0.916   2.691   0.135  0.0689 -0.7363  0.6321
15859TIP3   OH269067   2.011   4.349   5.716  0.0747 -1.1309  0.0439
15859TIP3    H169068   1.936   4.289   5.710  0.8062 -2.0479 -0.2571
15859TIP3    H269069   2.074   4.303   5.771  0.0106  0.1026  1.1985
15860TIP3   OH269070   5.344   0.785  15.318  0.0068  0.0941  0.5295
15860TIP3    H169071   5.413   0.786  15.251  0.7706  0.0688  1.2852
15860TIP3    H269072   5.288   0.712  15.293  0.8960 -0.6067  0.4982
15861TIP3   OH269073   4.967   2.404  13.576  0.4751 -0.3397 -0.1928
15861TIP3    H169074   4.947   2.316  13.546  1.0388 -0.9158  1.0510
15861TIP3    H269075   4.892   2.428  13.632  0.8029 -0.4450  0.2971
15862TIP3   OH269076   6.127   5.900   3.063  0.2743 -0.3499  0.0406
15862TIP3    H169077   6.073   5.854   2.999 -0.1816  0.4285 -0.1423
15862TIP3    H269078   6.153   5.832   3.125 -1.6856 -0.6109  0.6609
15863TIP3   OH269079   4.311   2.417  16.953  0.1485  0.2357  0.1030
15863TIP3    H169080   4.361   2.486  16.997  1.1872 -0.2707 -0.2648
15863TIP3    H269081   4.221   2.450  16.953  0.6922  1.8183 -0.5012
15864TIP3   OH269082   5.473   4.902   4.443  0.0462 -0.6006 -0.2788
15864TIP3    H169083   5.510   4.976   4.491 -0.7897  0.3532 -1.0814
15864TIP3    H269084   5.539   4.833   4.451  0.8390  0.2252  0.4682
15865TIP3   OH269085   6.607   4.157  17.189 -0.1060  0.2483 -0.3877
15865TIP3    H169086   6.552   4.207  17.129  0.8319  0.8348 -0.7900
15865TIP3    H269087   6.696   4.174  17.159  0.2743 -1.3086 -0.2491
15866TIP3   OH269088   5.553   0.611  16.361  0.2935  0.2079  0.1939
15866TIP3    H169089   5.613   0.559  16.414  2.1134  1.0630 -0.9387
15866TIP3    H269090   5.576   0.590  16.271 -1.4552  0.2271 -0.2998
15867TIP3   OH269091   2.146   5.642  16.587  0.4781 -0.3802 -0.1167
15867TIP3    H169092   2.237   5.662  16.611  0.1863  0.9552  0.0026
15867TIP3    H269093   2.110   5.727  16.562 -0.3877 -1.1033 -1.3935
15868TIP3   OH269094   1.433   6.646  13.540  0.1779 -0.5368 -0.0780
15868TIP3    H169095   1.353   6.698  13.542 -0.3359 -1.2396 -1.1961
15868TIP3    H269096   1.447   6.619  13.631 -1.7969 -1.7523 -0.0677
15869TIP3   OH269097   2.172   2.272   0.411 -0.1146  0.9131  0.4395
15869TIP3    H169098   2.232   2.341   0.384 -0.4371  0.2264 -2.2673
15869TIP3    H269099   2.085   2.305   0.389 -0.2304 -0.5305 -1.4619
15870TIP3   OH269100   1.992   6.233   3.756  0.4046  0.0529 -0.0261
15870TIP3    H169101   2.071   6.202   3.800  0.4696  0.7950  0.3958
15870TIP3    H269102   1.948   6.153   3.726  2.8877 -0.3204 -3.1532
15871TIP3   OH269103   2.556   0.340  12.421  0.4706  0.5557 -0.1332
15871TIP3    H169104   2.476   0.301  12.455  2.5992 -2.7020  1.6914
15871TIP3    H269105   2.555   0.320  12.328 -0.0260 -1.0579  0.1992
15872TIP3   OH269106   6.267   3.516  13.441 -0.1116 -0.0274 -0.7358
15872TIP3    H169107   6.279   3.565  13.359  1.1200  0.1530 -0.4633
15872TIP3    H269108   6.172   3.510  13.451 -0.3196 -0.9838 -2.7259
15873TIP3   OH269109   2.884   1.044  11.803  0.5556  0.5620  0.5351
15873TIP3    H169110   2.815   0.991  11.763 -1.4039  2.1499  1.6343
15873TIP3    H269111   2.840   1.123  11.833  2.6460  1.1661  2.3101
15874TIP3   OH269112   5.234   1.855  16.450  0.6486 -0.7442  0.1739
15874TIP3    H169113   5.149   1.877  16.488  0.3479  1.9541 -1.7350
15874TIP3    H269114   5.290   1.929  16.474  1.7568 -1.2846 -0.6424
15875TIP3   OH269115   4.185   3.500   1.191 -0.2967 -0.3962 -0.3971
15875TIP3    H169116   4.177   3.430   1.126 -2.3544 -0.4474 -0.1588
15875TIP3    H269117   4.178   3.581   1.141  0.4179 -0.3810 -0.4816
15876TIP3   OH269118   2.333   3.113   4.420  0.0186 -0.1537  0.0605
15876TIP3    H169119   2.367   3.203   4.425  0.7810 -0.4128 -0.3242
15876TIP3    H269120   2.244   3.123   4.387  0.2930  0.4228 -0.5175
15877TIP3   OH269121   5.015   6.493  15.360  0.2047  0.1473  0.4716
15877TIP3    H169122   5.077   6.564  15.376 -1.1748  1.6177 -0.4840
15877TIP3    H269123   5.059   6.415  15.394  2.9426  0.9745 -0.8681
15878TIP3   OH269124   6.552   1.575  16.556 -0.5798  0.1958  0.5513
15878TIP3    H169125   6.507   1.541  16.479  0.1036  0.4948  0.0076
15878TIP3    H269126   6.640   1.598  16.525  0.6900 -2.2461  2.0036
15879TIP3   OH269127   3.859   1.363  12.433  0.6270  0.2991  0.3853
15879TIP3    H169128   3.823   1.281  12.401  0.9127  0.5879 -0.7443
15879TIP3    H269129   3.953   1.357  12.416  0.7882  0.4926  1.1489
15880TIP3   OH269130   2.641   3.246   6.005 -0.2650 -0.1328  0.4738
15880TIP3    H169131   2.716   3.198   6.038  0.9097 -0.4514 -2.3266
15880TIP3    H269132   2.582   3.179   5.972 -0.2678  0.2078 -0.2377
15881TIP3   OH269133   2.377   0.042  15.829  0.7960  0.7264  0.2876
15881TIP3    H169134   2.341   0.130  15.812 -1.0309 -0.0929 -0.3873
15881TIP3    H269135   2.443   0.056  15.896  0.2218  2.5684  0.5357
15882TIP3   OH269136   2.181   0.819  16.155  0.5037 -0.1248 -1.0875
15882TIP3    H169137   2.194   0.907  16.190  0.1397 -0.8205  0.9168
15882TIP3    H269138   2.105   0.827  16.097 -1.9627  0.2250  1.9723
15883TIP3   OH269139   5.798   3.065  15.537 -0.1403 -0.6463 -0.4675
15883TIP3    H169140   5.809   3.160  15.538 -1.5837 -0.4449  0.5616
15883TIP3    H269141   5.793   3.042  15.444  1.6492  0.0604 -0.7805
15884TIP3   OH269142   1.689   6.314   1.740 -0.3555  0.2031  0.4633
15884TIP3    H169143   1.702   6.392   1.794  1.8456 -0.0165  0.3315
15884TIP3    H269144   1.595   6.313   1.722 -0.4433  2.8531  0.4000
15885TIP3   OH269145   2.606   4.033  16.752  0.3973 -0.6030 -0.3159
15885TIP3    H169146   2.637   4.017  16.663 -0.0082  1.7288 -0.9335
15885TIP3    H269147   2.681   4.011  16.808  0.0700 -3.9090 -0.9946
15886TIP3   OH269148   5.144   4.892   4.924  0.1097  0.1342 -0.1118
15886TIP3    H169149   5.177   4.919   5.009  0.1800  1.9690 -0.6837
15886TIP3    H269150   5.051   4.873   4.939 -0.1484  1.5432  0.1739
15887TIP3   OH269151   4.625   5.742   3.865  0.2299  1.0260  0.3655
15887TIP3    H169152   4.631   5.670   3.928  0.2482 -0.7949 -1.5775
15887TIP3    H269153   4.538   5.732   3.826  0.9996  0.7078 -1.3690
15888TIP3   OH269154   2.783   2.899  15.608  0.2457  0.3889 -0.2690
15888TIP3    H169155   2.739   2.900  15.524 -1.4711 -2.3497  0.4561
15888TIP3    H269156   2.874   2.878  15.588 -0.1968 -0.4687 -1.4474
15889TIP3   OH269157   1.863   0.317  13.447  0.1814 -0.0354 -0.4154
15889TIP3    H169158   1.911   0.326  13.364 -2.0912 -1.1893 -1.9414
15889TIP3    H269159   1.827   0.404  13.462  0.8646  0.2643 -0.4408
15890TIP3   OH269160   5.565   5.914   3.171  0.1304 -0.4086 -0.3588
15890TIP3    H169161   5.653   5.906   3.208 -0.2750 -1.5824  0.4166
15890TIP3    H269162   5.566   5.998   3.125  0.8691  0.8590  1.8187
15891TIP3   OH269163   4.766   4.624  16.116 -0.1156  0.0942  0.4021
15891TIP3    H169164   4.792   4.620  16.208 -3.1555  1.3469  1.4446
15891TIP3    H269165   4.826   4.564  16.071  2.9291  1.1234  2.7692
15892TIP3   OH269166   3.591   6.811   5.869 -0.0430  0.6493  0.7150
15892TIP3    H169167   3.654   6.780   5.935 -1.0612 -0.7114  1.1077
15892TIP3    H269168   3.570   6.900   5.896  0.9633  0.7730  1.1399
15893TIP3   OH269169   2.341   5.489   1.112 -0.0696  0.3555 -0.3781
15893TIP3    H169170   2.380   5.576   1.119  0.5181  0.4246 -3.1203
15893TIP3    H269171   2.340   5.471   1.018  0.0395 -2.7107  0.0988
15894TIP3   OH269172   3.362   3.527  13.558 -0.2688 -0.7757  0.3829
15894TIP3    H169173   3.416   3.453  13.529 -1.3426 -1.8232  0.9780
15894TIP3    H269174   3.361   3.519  13.654  1.4822  1.3830  0.6509
15895TIP3   OH269175   0.270   3.730   1.879  0.1604  0.3094 -0.4050
15895TIP3    H169176   0.270   3.785   1.957  0.7145  0.6847 -0.6621
15895TIP3    H269177   0.259   3.641   1.912  1.6714  0.3233  0.2208
15896TIP3   OH269178   6.673   2.377   0.045 -0.4800 -0.5375 -0.0743
15896TIP3    H169179   6.749   2.391   0.102 -0.9252 -0.6142  0.5467
15896TIP3    H269180   6.613   2.325   0.097 -1.6432  0.8611  0.0360
15897TIP3   OH269181   2.624   0.091  15.959 -0.6830 -0.3173 -0.2630
15897TIP3    H169182   2.655   0.149  15.889  0.2836  1.6352  1.6641
15897TIP3    H269183   2.703   0.051  15.994 -1.0453 -0.5174  0.3489
15898TIP3   OH269184   4.332   5.776   5.852  0.0843  0.6149 -0.1664
15898TIP3    H169185   4.339   5.681   5.866  3.0390  0.9802  1.3849
15898TIP3    H269186   4.326   5.785   5.756  0.2375 -1.1028 -0.3726
15899TIP3   OH269187   2.582   6.043  13.671 -0.0771  0.6107  0.1835
15899TIP3    H169188   2.646   5.988  13.716 -1.4372 -1.6141 -0.3931
15899TIP3    H269189   2.617   6.132  13.677  1.1893  0.0370  3.0949
15900TIP3   OH269190   6.504   2.725  16.422 -0.0316  0.0302  0.3847
15900TIP3    H169191   6.510   2.807  16.471  4.1086  0.4572 -0.4646
15900TIP3    H269192   6.583   2.724  16.368 -0.3933 -4.0888 -0.3770
15901TIP3   OH269193   6.827   3.832   5.315  0.3091  0.0792 -0.5133
15901TIP3    H169194   6.750   3.778   5.301  0.6142 -0.5780  0.2801
15901TIP3    H269195   6.801   3.896   5.380  0.0277  0.7357 -1.2592
15902TIP3   OH269196   2.910   3.011  13.786  0.3766 -0.5691  0.3559
15902TIP3    H169197   2.856   2.937  13.757 -2.5833  1.6080 -0.1886
15902TIP3    H269198   3.000   2.982  13.770 -0.6853 -2.3783 -4.2234
15903TIP3   OH269199   0.943   4.319   1.194  0.4313  0.0367  0.1513
15903TIP3    H169200   0.879   4.384   1.221 -1.0496  0.4214 -3.7418
15903TIP3    H269201   0.906   4.235   1.221 -0.2172  0.4478  0.5495
15904TIP3   OH269202   3.171   5.676   5.695  0.2587  0.0459 -0.0929
15904TIP3    H169203   3.208   5.629   5.770  0.8543  2.5135  1.2761
15904TIP3    H269204   3.085   5.704   5.724  0.1202  0.2713 -0.7014
15905TIP3   OH269205   0.462   0.358  13.086 -0.2885  0.0308 -0.5516
15905TIP3    H169206   0.384   0.321  13.044 -0.4174  0.6593 -0.8847
15905TIP3    H269207   0.535   0.327  13.033 -0.2701 -0.8664 -0.0211
15906TIP3   OH269208   4.794   4.280   5.882 -0.4737 -0.2490 -0.0467
15906TIP3    H169209   4.826   4.236   5.961 -1.0947 -1.7716 -0.6222
15906TIP3    H269210   4.701   4.258   5.878 -0.5487  0.2110 -0.9630
15907TIP3   OH269211   0.191   1.879  10.729 -0.0770  0.4431  0.2911
15907TIP3    H169212   0.114   1.924  10.763 -0.4195  2.1342 -2.4228
15907TIP3    H269213   0.264   1.937  10.749  0.6238 -1.2060  2.9516
15908TIP3   OH269214   5.795   5.324  10.745 -0.1358  0.0778 -0.7671
15908TIP3    H169215   5.867   5.314  10.807 -1.6245  0.7282  1.1772
15908TIP3    H269216   5.761   5.412  10.762  0.1990  0.8193 -3.4748
15909TIP3   OH269217   1.480   4.104  15.175  0.8547  0.4088  0.1375
15909TIP3    H169218   1.492   4.159  15.253  0.4795 -1.8825  1.9197
15909TIP3    H269219   1.566   4.105  15.132  0.6173  3.0586 -0.4569
15910TIP3   OH269220   1.388   3.024  12.120 -0.2494  0.5442  0.1172
15910TIP3    H169221   1.442   3.103  12.121 -1.0049  1.0822  1.3794
15910TIP3    H269222   1.415   2.975  12.197 -0.2720 -0.0931 -0.2769
15911TIP3   OH269223   2.233   1.255  13.284  0.8594  0.0276 -0.0288
15911TIP3    H169224   2.219   1.283  13.194  0.5952 -0.9380 -0.3040
15911TIP3    H269225   2.256   1.335  13.331  0.9319  0.5517 -0.9363
15912TIP3   OH269226   0.606   5.200  11.690  0.2794  0.1767  0.4068
15912TIP3    H169227   0.593   5.294  11.687 -0.8936  0.1647  2.6605
15912TIP3    H269228   0.549   5.170  11.761 -2.5898 -2.8246 -2.7307
15913TIP3   OH269229   6.255   4.558  10.299 -0.2630  0.0992 -0.1693
15913TIP3    H169230   6.164   4.561  10.329 -0.0410 -0.7196  0.6409
15913TIP3    H269231   6.253   4.600  10.214 -1.6299 -0.9425 -0.7064
15914TIP3   OH269232   6.733   0.879   3.013 -0.1015 -0.1371 -0.1550
15914TIP3    H169233   6.745   0.914   2.925 -1.6747  0.3838 -0.1869
15914TIP3    H269234   6.638   0.873   3.024  0.0370  0.4984  1.7638
15915TIP3   OH269235   6.047   3.453   5.926 -0.0096  0.2203 -0.3940
15915TIP3    H169236   6.103   3.382   5.894  0.4720 -0.1579  1.1720
15915TIP3    H269237   6.092   3.486   6.004 -0.4770  1.9494 -0.8228
15916TIP3   OH269238   4.080   0.582   6.304 -0.2504  0.4629 -0.8452
15916TIP3    H169239   4.152   0.635   6.270  1.6559  0.4851  2.7965
15916TIP3    H269240   4.024   0.643   6.351 -0.0447 -0.2076  0.3060
15917TIP3   OH269241   2.353   2.668   0.951 -0.1187  0.0257 -0.0530
15917TIP3    H169242   2.439   2.690   0.988  0.0394  0.4014 -0.6308
15917TIP3    H269243   2.355   2.573   0.941  0.9231  0.1966 -1.7283
15918TIP3   OH269244   6.269   6.476   5.250  0.4117 -0.3722 -0.0991
15918TIP3    H169245   6.205   6.407   5.263  0.1174 -0.0362  0.2821
15918TIP3    H269246   6.221   6.546   5.206  0.6923 -0.3899 -0.4398
15919TIP3   OH269247   3.277   4.761  15.638  0.6523 -0.0968 -0.3326
15919TIP3    H169248   3.264   4.856  15.631  1.0577  0.1106  1.3719
15919TIP3    H269249   3.189   4.724  15.627  0.1985  0.6034  0.8178
15920TIP3   OH269250   2.911   0.068   5.104  0.3604  0.9158  0.2171
15920TIP3    H169251   2.941   0.019   5.028  2.4576  1.0466  0.9071
15920TIP3    H269252   2.950   0.155   5.094 -0.5610  1.3986  0.7029
15921TIP3   OH269253   6.073   6.656   5.143  0.2170  0.6633 -0.0928
15921TIP3    H169254   6.034   6.625   5.061  0.5186 -1.0614  0.3972
15921TIP3    H269255   5.999   6.680   5.198 -0.0419  0.1647 -0.2242
15922TIP3   OH269256   0.907   3.217  12.612 -0.2375 -0.0076 -0.7418
15922TIP3    H169257   0.820   3.180  12.599  0.0027 -1.1834  0.6947
15922TIP3    H269258   0.895   3.288  12.675 -0.0984 -0.5928 -0.0353
15923TIP3   OH269259   6.414   3.285   0.341 -0.1895 -0.4288 -0.5171
15923TIP3    H169260   6.496   3.252   0.378  0.0180 -0.9784 -1.4327
15923TIP3    H269261   6.402   3.234   0.260 -0.7852  0.5308 -1.0492
15924TIP3   OH269262   5.157   6.138  12.889  0.7408  0.5230  0.1168
15924TIP3    H169263   5.192   6.198  12.822 -1.5161  0.6590 -1.0205
15924TIP3    H269264   5.203   6.056  12.873 -1.3049 -0.1783 -3.2637
15925TIP3   OH269265   5.758   5.999  12.499 -0.6299  0.2746  0.3421
15925TIP3    H169266   5.741   6.082  12.543  0.7291  1.1216 -0.6770
15925TIP3    H269267   5.708   6.004  12.418 -3.2220 -1.3314  1.6707
15926TIP3   OH269268   0.832   0.819   3.701 -0.0727  0.3392 -0.1344
15926TIP3    H169269   0.779   0.876   3.645 -1.8361 -0.5740  0.5419
15926TIP3    H269270   0.817   0.731   3.666  1.4717  0.1002 -0.2650
15927TIP3   OH269271   4.205   3.542   2.971  0.3129 -0.6589  0.2303
15927TIP3    H169272   4.158   3.587   3.041 -0.8102  0.3408 -1.1062
15927TIP3    H269273   4.297   3.565   2.986 -0.0846  0.9783  0.4057
15928TIP3   OH269274   4.192   5.777  13.346  0.2861 -0.2846  0.0670
15928TIP3    H169275   4.280   5.739  13.340 -0.8842 -3.2695  0.2816
15928TIP3    H269276   4.134   5.702  13.360 -2.1934  1.7077  1.2533
15929TIP3   OH269277   3.260   0.938  11.534 -0.1989  0.0540 -0.0889
15929TIP3    H169278   3.292   0.955  11.446  1.6979  1.5059  0.8064
15929TIP3    H269279   3.172   0.975  11.536 -0.3719 -0.2605 -1.4432
15930TIP3   OH269280   0.932   6.618  15.950 -0.2162 -0.2605  0.1337
15930TIP3    H169281   0.948   6.524  15.947  0.2024 -0.2636  1.5952
15930TIP3    H269282   0.945   6.642  16.042 -1.1148  1.0858 -0.0558
15931TIP3   OH269283   2.962   0.708  16.137 -0.7205  0.0617 -0.1137
15931TIP3    H169284   2.929   0.695  16.226 -1.8035 -1.8974 -0.7392
15931TIP3    H269285   2.949   0.801  16.120 -1.2757  0.2992  1.4733
15932TIP3   OH269286   2.880   3.600  12.502 -0.4841 -0.4268  0.1714
15932TIP3    H169287   2.888   3.530  12.567  1.4887 -0.1408  0.3172
15932TIP3    H269288   2.889   3.681  12.553  1.0584 -0.2024 -0.3831
15933TIP3   OH269289   6.298   1.160   0.678  0.2740 -0.7380 -0.5061
15933TIP3    H169290   6.287   1.160   0.583  0.4968 -0.5986 -0.5329
15933TIP3    H269291   6.262   1.244   0.707 -0.6253 -1.1585 -0.3637
15934TIP3   OH269292   5.911   1.580   4.088 -0.7678  0.4554  0.4050
15934TIP3    H169293   5.946   1.654   4.137  1.2707  1.7519 -2.6690
15934TIP3    H269294   5.985   1.519   4.081 -0.3559  1.1260 -2.3333
15935TIP3   OH269295   2.008   4.422   4.285  0.4850 -0.6254  0.0584
15935TIP3    H169296   1.936   4.463   4.238 -1.3386 -0.3029  2.8817
15935TIP3    H269297   2.087   4.462   4.248 -0.9225  1.1384 -1.2141
15936TIP3   OH269298   5.950   2.262   3.519  0.3455 -0.0233 -0.2804
15936TIP3    H169299   5.957   2.348   3.560  2.9733 -0.5724  0.6678
15936TIP3    H269300   5.951   2.200   3.592  0.5349 -0.8934 -0.9964
15937TIP3   OH269301   4.898   2.712   0.696 -0.0757 -0.5163 -0.1469
15937TIP3    H169302   4.866   2.622   0.690 -0.4761 -0.3823 -0.0507
15937TIP3    H269303   4.824   2.765   0.665  0.4081 -0.2635 -0.8961
15938TIP3   OH269304   1.565   6.696   1.615 -0.3140  0.0342 -0.2197
15938TIP3    H169305   1.548   6.645   1.694 -0.2086 -1.6601 -1.2373
15938TIP3    H269306   1.512   6.775   1.625 -1.4814 -0.8493  0.8463
15939TIP3   OH269307   4.479   6.495  13.474 -0.7025  0.7423  0.4542
15939TIP3    H169308   4.495   6.491  13.569 -1.7077  0.0602  0.6099
15939TIP3    H269309   4.503   6.408  13.443  0.7648  1.3204 -0.1335
15940TIP3   OH269310   6.490   2.726   1.841  0.6942 -0.0430  0.0956
15940TIP3    H169311   6.465   2.650   1.893  0.4095 -0.1161 -0.1456
15940TIP3    H269312   6.481   2.800   1.901 -0.2777 -0.0433 -0.0267
15941TIP3   OH269313   1.267   2.628  11.438 -0.8694  0.4433  0.0781
15941TIP3    H169314   1.326   2.670  11.501 -1.0390 -0.9788  1.2416
15941TIP3    H269315   1.181   2.633  11.479 -1.1097  0.1119 -0.3791
15942TIP3   OH269316   1.088   6.490  14.710 -0.1561  0.0418  0.2148
15942TIP3    H169317   1.104   6.545  14.634 -0.0953 -0.1241  0.1081
15942TIP3    H269318   1.156   6.423  14.707  1.2009  1.2704  1.5944
15943TIP3   OH269319   4.120   4.527   5.534  0.2782 -0.1443  0.2523
15943TIP3    H169320   4.159   4.538   5.621  1.9720  1.2370 -0.6160
15943TIP3    H269321   4.142   4.438   5.509 -0.1713 -0.5373  1.1935
15944TIP3   OH269322   4.200   1.224   1.978  0.0372  0.6578  0.1635
15944TIP3    H169323   4.148   1.291   1.933 -0.3974 -0.4195 -1.0034
15944TIP3    H269324   4.148   1.145   1.971  2.2515 -0.7656 -2.0981
15945TIP3   OH269325   1.651   3.664   0.862 -0.1658 -0.5694  0.0034
15945TIP3    H169326   1.633   3.590   0.805  1.0251 -0.7215 -0.2160
15945TIP3    H269327   1.567   3.707   0.873 -0.5281 -0.8260 -1.4680
15946TIP3   OH269328   2.029   2.741   4.387  0.1526 -0.0979 -0.2019
15946TIP3    H169329   1.979   2.789   4.454  0.3537  1.2441 -0.9830
15946TIP3    H269330   2.065   2.666   4.434 -0.2682  0.4467  1.0491
15947TIP3   OH269331   2.621   3.034  13.401  0.2271 -0.5745  0.4568
15947TIP3    H169332   2.641   3.051  13.493  0.6251 -1.5162  0.5580
15947TIP3    H269333   2.695   3.072  13.353 -0.6318  1.1273  0.4028
15948TIP3   OH269334   1.974   5.914   0.873 -0.6259 -0.3352 -0.1309
15948TIP3    H169335   1.922   5.937   0.950 -0.7740 -0.5775 -0.1591
15948TIP3    H269336   2.019   5.833   0.898  0.7107  0.5212  0.3549
15949TIP3   OH269337   2.401   3.288  15.516  0.2620  0.5116  0.4584
15949TIP3    H169338   2.357   3.231  15.579  0.0845 -0.9059 -0.8810
15949TIP3    H269339   2.449   3.351  15.570  1.0734 -1.3558  2.0266
15950TIP3   OH269340   1.110   2.658   4.829 -0.5713  0.0761 -0.0183
15950TIP3    H169341   1.096   2.564   4.837 -0.0815 -0.0350 -0.3821
15950TIP3    H269342   1.150   2.669   4.743 -0.2033  0.5642  0.2063
15951TIP3   OH269343   6.221   1.496   2.078 -0.0945 -0.1049  0.0490
15951TIP3    H169344   6.157   1.533   2.019 -1.1430 -2.0977 -0.1607
15951TIP3    H269345   6.267   1.429   2.026  2.4677  1.4763  0.0815
15952TIP3   OH269346   1.712   2.395  16.132  0.0332 -0.0112 -0.1380
15952TIP3    H169347   1.757   2.323  16.088 -0.8486 -1.1890  0.8267
15952TIP3    H269348   1.683   2.453  16.061  1.6739 -0.0408 -0.8537
15953TIP3   OH269349   5.151   3.476  15.415  0.0494  0.7758  0.7899
15953TIP3    H169350   5.115   3.548  15.363 -1.8121 -0.8701 -0.3260
15953TIP3    H269351   5.232   3.512  15.451 -0.0681  2.9616 -0.8685
15954TIP3   OH269352   1.847   4.205  13.830  0.2597  0.0985 -0.1315
15954TIP3    H169353   1.792   4.280  13.853  0.7998  0.1540  1.0779
15954TIP3    H269354   1.898   4.189  13.909  0.1286 -1.5658 -0.3568
15955TIP3   OH269355   1.720   3.700  10.986  0.2162 -0.2420  0.0479
15955TIP3    H169356   1.729   3.676  10.894  0.1401 -0.6018  0.1355
15955TIP3    H269357   1.810   3.703  11.019  0.1694 -1.7170  0.3728
15956TIP3   OH269358   6.093   5.486  17.063 -0.1920 -0.5164  0.3444
15956TIP3    H169359   6.009   5.527  17.046 -0.4708 -1.7949 -1.6833
15956TIP3    H269360   6.128   5.533  17.139 -1.6630  1.5757 -0.1979
15957TIP3   OH269361   0.840   1.939  16.893 -0.4710  0.7775  0.3322
15957TIP3    H169362   0.895   1.928  16.815  0.6164  0.0745  1.1748
15957TIP3    H269363   0.751   1.918  16.863 -0.0629  0.4710 -0.7082
15958TIP3   OH269364   3.783   3.250   0.792  0.6837  0.0434  0.1796
15958TIP3    H169365   3.806   3.341   0.774  1.3666 -0.2487 -0.4280
15958TIP3    H269366   3.741   3.253   0.878  1.7463  0.7729  0.6938
15959TIP3   OH269367   0.489   4.368  11.478  0.2722 -0.0229 -0.0293
15959TIP3    H169368   0.516   4.337  11.564  2.3278 -0.0054 -0.6151
15959TIP3    H269369   0.524   4.302  11.417 -2.7768 -1.0894 -0.8061
15960TIP3   OH269370   6.251   5.027  11.763 -0.3010 -0.1008  0.3294
15960TIP3    H169371   6.259   5.122  11.768  2.1917 -0.1720 -0.6529
15960TIP3    H269372   6.173   5.006  11.813 -1.3778  2.5219 -0.1199
15961TIP3   OH269373   6.140   3.890   2.168  0.3216 -0.4259 -0.1330
15961TIP3    H169374   6.217   3.947   2.173 -0.2193  0.3389 -0.2834
15961TIP3    H269375   6.078   3.928   2.230 -0.4010 -0.3009 -0.9171
15962TIP3   OH269376   2.633   4.654  15.932 -0.4924 -0.5808 -0.3140
15962TIP3    H169377   2.566   4.589  15.951 -0.5666 -0.4989 -0.2916
15962TIP3    H269378   2.587   4.738  15.939 -0.4295 -0.5325 -0.4718
15963TIP3   OH269379   2.896   0.181   6.784 -1.1106 -0.0119  0.6692
15963TIP3    H169380   2.862   0.155   6.699 -0.5999 -1.0399  0.7605
15963TIP3    H269381   2.879   0.275   6.789  0.1337  0.3886 -1.1922
15964TIP3   OH269382   5.382   3.298  14.064  0.5066  0.2394  0.7100
15964TIP3    H169383   5.357   3.376  14.013  1.4149  0.8614  1.1818
15964TIP3    H269384   5.417   3.237  13.999  0.1569  0.3804  0.3832
15965TIP3   OH269385   5.802   0.243   4.508 -0.4680 -0.3503 -0.8556
15965TIP3    H169386   5.719   0.285   4.483 -0.1854  0.5531 -0.3338
15965TIP3    H269387   5.868   0.284   4.452 -0.0675  0.5345  0.2093
15966TIP3   OH269388   1.245   4.141  14.563 -0.0382 -0.2457 -0.0745
15966TIP3    H169389   1.177   4.120  14.499 -1.3597 -1.2999  1.6115
15966TIP3    H269390   1.217   4.225  14.601  0.8169  0.4491 -0.9155
15967TIP3   OH269391   1.220   6.232  13.512 -0.2946  0.3814  0.1205
15967TIP3    H169392   1.136   6.274  13.530 -1.8911 -2.1705 -0.9564
15967TIP3    H269393   1.283   6.283  13.564 -2.5732  1.9033  1.5739
15968TIP3   OH269394   5.950   4.754  16.382  0.2255  0.2081 -0.2198
15968TIP3    H169395   5.933   4.671  16.428  1.1734  0.6079  0.9052
15968TIP3    H269396   5.948   4.820  16.451  0.4955  0.9868 -0.9524
15969TIP3   OH269397   1.590   0.909  13.529 -0.0062 -0.6439 -0.3838
15969TIP3    H169398   1.573   0.875  13.441 -0.1347  0.1961 -0.6869
15969TIP3    H269399   1.504   0.906  13.572 -0.3102  0.5846 -0.8681
15970TIP3   OH269400   3.671   5.708  17.011 -0.4156  0.2834  0.5172
15970TIP3    H169401   3.731   5.633  17.007 -0.8123 -0.0437  0.5270
15970TIP3    H269402   3.601   5.679  17.070 -1.0782  0.2798 -0.2563
15971TIP3   OH269403   2.259   5.126   6.495  0.4739  0.4313 -0.2499
15971TIP3    H169404   2.252   5.039   6.535 -0.0273 -0.8711 -2.9532
15971TIP3    H269405   2.169   5.149   6.472  0.7669  1.0451 -0.7943
15972TIP3   OH269406   4.138   1.735   0.926  0.4993  0.2455  0.4499
15972TIP3    H169407   4.225   1.761   0.955  0.2799 -0.2131  1.6012
15972TIP3    H269408   4.079   1.770   0.994 -0.7481  4.2230 -2.2892
15973TIP3   OH269409   2.003   5.817  15.846 -0.1578 -0.2935 -0.1616
15973TIP3    H169410   2.016   5.752  15.915 -0.8797 -0.1683  0.1022
15973TIP3    H269411   1.950   5.772  15.781  2.0614 -1.0280 -1.5541
15974TIP3   OH269412   2.008   3.157  15.487  0.5946  0.2876  0.4554
15974TIP3    H169413   1.988   3.174  15.395  0.3572  1.6188  0.7345
15974TIP3    H269414   1.925   3.131  15.526 -0.4261  4.1195  1.2316
15975TIP3   OH269415   5.601   6.251   1.513 -0.1549  0.1924  0.2858
15975TIP3    H169416   5.551   6.256   1.431 -0.8953 -3.5961  0.3521
15975TIP3    H269417   5.538   6.276   1.580 -0.6918 -0.4147  0.0125
15976TIP3   OH269418   3.104   0.456  14.869  0.5909 -0.5467  0.3500
15976TIP3    H169419   3.128   0.407  14.791  0.5416  0.8172 -0.5582
15976TIP3    H269420   3.170   0.525  14.875  0.3639 -0.3962  1.2876
15977TIP3   OH269421   2.388   5.560  13.833 -0.0760  0.3452 -0.2782
15977TIP3    H169422   2.374   5.594  13.745  1.9348  1.6375 -0.1554
15977TIP3    H269423   2.468   5.507  13.826 -0.1059  0.1539  0.6829
15978TIP3   OH269424   4.299   2.332   0.296 -0.4715  0.3854  0.2413
15978TIP3    H169425   4.349   2.307   0.373  1.9058 -0.9556 -1.6225
15978TIP3    H269426   4.230   2.266   0.290 -0.4454  0.2802  0.9971
15979TIP3   OH269427   1.874   5.353  12.923  0.2615  0.1740  0.3328
15979TIP3    H169428   1.948   5.292  12.927  1.1398  0.6514 -4.1274
15979TIP3    H269429   1.912   5.438  12.946  0.6641  0.0955 -0.0233
15980TIP3   OH269430   5.362   3.306   3.613  0.5149  0.0931 -0.5986
15980TIP3    H169431   5.271   3.320   3.587  0.3167  1.4802  0.7472
15980TIP3    H269432   5.410   3.382   3.579  0.4681  1.3089  1.8407
15981TIP3   OH269433   2.308   3.480   5.508 -0.4602  0.6559  0.2911
15981TIP3    H169434   2.377   3.437   5.457 -2.7274 -1.1722 -1.4158
15981TIP3    H269435   2.327   3.574   5.499  1.7689  0.2164 -0.1345
15982TIP3   OH269436   0.205   0.263   5.952  0.4016 -0.3583 -0.6946
15982TIP3    H169437   0.219   0.189   5.893 -1.3848 -0.4091 -1.1053
15982TIP3    H269438   0.111   0.263   5.969  0.6065  0.8005  0.6716
15983TIP3   OH269439   3.021   1.118   5.822 -0.1863  0.2508 -0.0262
15983TIP3    H169440   2.971   1.174   5.882 -0.2188 -3.8680  4.3223
15983TIP3    H269441   3.089   1.177   5.787 -2.3175  3.7796  1.1909
15984TIP3   OH269442   3.332   0.797  12.230 -0.4129  0.3669  0.4237
15984TIP3    H169443   3.359   0.878  12.187 -1.4004 -1.1680 -3.5281
15984TIP3    H269444   3.239   0.811  12.250 -0.8832 -0.0380 -1.2598
15985TIP3   OH269445   6.684   4.690   2.686 -0.2656 -0.3084 -0.6909
15985TIP3    H169446   6.753   4.744   2.647  2.1249 -2.7378 -0.1243
15985TIP3    H269447   6.727   4.646   2.759 -2.2369 -2.4173 -0.6908
15986TIP3   OH269448   4.569   1.893   2.344  0.5906  0.1517 -0.0960
15986TIP3    H169449   4.559   1.881   2.438 -0.7885 -2.2597 -0.4794
15986TIP3    H269450   4.480   1.907   2.311  0.6768 -1.6684 -1.2886
15987TIP3   OH269451   6.248   6.443   0.952  0.3161 -0.0252 -0.4339
15987TIP3    H169452   6.258   6.371   0.891 -0.1904  1.3730 -2.2355
15987TIP3    H269453   6.295   6.415   1.031  0.4608 -2.1229 -1.2237
15988TIP3   OH269454   0.777   4.662  14.443  0.3425  0.4810  0.2526
15988TIP3    H169455   0.790   4.601  14.515 -0.1177 -0.2507 -0.2771
15988TIP3    H269456   0.850   4.644  14.383  0.0568  0.2676 -0.0305
15989TIP3   OH269457   0.139   0.751  11.541  0.1819 -0.0701 -0.3284
15989TIP3    H169458   0.118   0.746  11.448  0.9966 -1.9009 -0.4599
15989TIP3    H269459   0.078   0.690  11.583 -0.6856  1.2952  0.4643
15990TIP3   OH269460   2.495   0.239  15.419  0.1011 -0.3604 -0.1941
15990TIP3    H169461   2.533   0.161  15.459  0.8490  0.5522  0.9621
15990TIP3    H269462   2.471   0.295  15.493 -0.0565  0.6679 -0.9904
15991TIP3   OH269463   3.450   5.636  15.641  0.9460  0.4937 -0.5968
15991TIP3    H169464   3.454   5.552  15.687 -3.8920 -1.0868 -2.4711
15991TIP3    H269465   3.511   5.626  15.567  2.2283 -0.3200  0.5277
15992TIP3   OH269466   4.695   5.337   0.931 -0.3708 -0.0708  0.6409
15992TIP3    H169467   4.614   5.371   0.971 -1.4970 -1.4672 -0.3515
15992TIP3    H269468   4.669   5.310   0.843  1.3745  0.1236  0.0286
15993TIP3   OH269469   1.453   6.047  12.678  0.0956 -0.2997  0.7753
15993TIP3    H169470   1.440   6.050  12.772 -0.9528  0.1368  0.6299
15993TIP3    H269471   1.533   5.996  12.666  1.5218  1.4803  2.0168
15994TIP3   OH269472   0.477   3.348  16.512  0.1205 -0.2727 -0.1819
15994TIP3    H169473   0.385   3.374  16.507  0.6068  1.4235 -2.3517
15994TIP3    H269474   0.525   3.431  16.502  1.8415 -1.3544 -1.4650
15995TIP3   OH269475   1.148   3.982  16.938  0.3984  0.1215  0.3181
15995TIP3    H169476   1.053   3.977  16.952  0.4142 -2.0910  0.0838
15995TIP3    H269477   1.178   4.051  16.997 -1.4062  1.2140  0.0305
15996TIP3   OH269478   3.235   3.807  12.669 -0.8324 -0.1302 -0.5165
15996TIP3    H169479   3.302   3.844  12.726 -1.9884 -0.4072  1.1032
15996TIP3    H269480   3.159   3.865  12.681 -1.3069 -0.5754 -1.2754
15997TIP3   OH269481   2.034   2.497   3.982  0.4637 -0.1345  0.0440
15997TIP3    H169482   1.964   2.491   3.917  0.3379 -0.3857  0.1991
15997TIP3    H269483   2.091   2.567   3.950 -0.1741  0.4795  0.2205
15998TIP3   OH269484   2.697   6.729   0.442  0.2518 -0.0840 -0.1189
15998TIP3    H169485   2.677   6.813   0.400  0.2086  0.0172  0.1021
15998TIP3    H269486   2.627   6.671   0.412  0.2858 -0.0418 -0.2790
15999TIP3   OH269487   3.863   3.340  17.130  0.6930  0.3201  0.0625
15999TIP3    H169488   3.817   3.408  17.177  0.6596  0.0952  0.3542
15999TIP3    H269489   3.921   3.387  17.069 -0.6775  0.6127 -1.0712
16000TIP3   OH269490   5.032   5.083  12.108 -0.3009  0.2222  0.5052
16000TIP3    H169491   5.093   5.056  12.039  0.2891  0.4582  0.9292
16000TIP3    H269492   5.063   5.040  12.187 -1.3285 -0.5284  0.5295
16001TIP3   OH269493   0.348   5.578   1.555  0.1548 -0.0776  0.0795
16001TIP3    H169494   0.380   5.638   1.487  0.7033 -0.6257 -0.1585
16001TIP3    H269495   0.259   5.606   1.572 -0.1354 -0.1710 -1.1706
16002TIP3   OH269496   3.889   6.345   3.145  0.1542  0.2175 -1.0402
16002TIP3    H169497   3.810   6.324   3.096 -0.4971  0.6039 -0.1788
16002TIP3    H269498   3.929   6.260   3.165 -1.0544 -0.1197  0.1351
16003TIP3   OH269499   0.861   2.639  16.047  0.1097  0.3129  0.5366
16003TIP3    H169500   0.802   2.653  16.121 -0.3062  1.2881  0.0359
16003TIP3    H269501   0.836   2.553  16.013 -0.0725  0.1053  1.1768
16004TIP3   OH269502   2.912   4.877  11.997  0.0450  0.1888  0.2127
16004TIP3    H169503   2.850   4.821  11.952 -0.6993 -1.2222  2.7864
16004TIP3    H269504   2.980   4.818  12.029 -0.1673  0.8513  2.0487
16005TIP3   OH269505   4.545   4.938   1.938 -0.1661  0.2760 -0.6080
16005TIP3    H169506   4.584   4.942   2.026  0.6288 -0.6388 -0.9086
16005TIP3    H269507   4.593   5.004   1.888  0.6707 -0.4905 -0.8385
16006TIP3   OH269508   3.770   3.028  15.127  0.1014  0.3518  0.8508
16006TIP3    H169509   3.774   3.119  15.155 -2.5420  0.9141 -0.2959
16006TIP3    H269510   3.680   3.001  15.144  0.8913 -2.2012  1.4996
16007TIP3   OH269511   4.572   3.831  11.567 -0.5739 -0.1333 -0.2158
16007TIP3    H169512   4.593   3.925  11.564  2.2014 -0.6562 -0.0536
16007TIP3    H269513   4.557   3.813  11.660 -1.6921  0.2314 -0.3142
16008TIP3   OH269514   2.599   1.318   1.383  0.0366 -0.7556  0.3762
16008TIP3    H169515   2.522   1.365   1.414  1.1037  1.8789 -0.6065
16008TIP3    H269516   2.673   1.359   1.428  1.0014 -2.0681  0.0642
16009TIP3   OH269517   3.018   4.092  14.334 -0.3199  0.0180  0.1505
16009TIP3    H169518   3.065   4.027  14.280 -1.0986 -0.6482  0.2526
16009TIP3    H269519   3.048   4.075  14.423 -0.4948 -0.1892  0.1726
16010TIP3   OH269520   0.767   1.206  13.469 -0.2418 -0.1758 -0.8411
16010TIP3    H169521   0.704   1.137  13.492 -0.0454  0.3460  1.5572
16010TIP3    H269522   0.728   1.286  13.503  0.3651  0.6300 -1.9951
16011TIP3   OH269523   3.608   2.716  10.793 -0.2158 -0.3472  0.2814
16011TIP3    H169524   3.674   2.784  10.783  0.3240 -1.0744 -1.6897
16011TIP3    H269525   3.533   2.760  10.831 -0.6184  1.8855 -2.7775
16012TIP3   OH269526   5.343   1.155   6.336 -0.0885 -0.5684  0.0430
16012TIP3    H169527   5.302   1.233   6.373 -0.6051 -0.6054 -0.4407
16012TIP3    H269528   5.347   1.093   6.408  0.4133 -0.0621  0.4559
16013TIP3   OH269529   3.326   5.254   4.838  0.5328  0.0535 -0.0512
16013TIP3    H169530   3.237   5.250   4.873  0.0226 -1.6407 -1.4059
16013TIP3    H269531   3.346   5.163   4.814  1.9185  0.7039 -1.4933
16014TIP3   OH269532   1.788   2.075   3.266  0.2833 -0.0941 -0.3222
16014TIP3    H169533   1.879   2.063   3.293  0.2641  0.6864  0.1011
16014TIP3    H269534   1.791   2.070   3.170  1.3043  3.1453 -0.5684
16015TIP3   OH269535   3.288   3.946   0.308  0.6025 -0.5112  0.0471
16015TIP3    H169536   3.307   3.924   0.400  0.5506 -0.5201  0.0556
16015TIP3    H269537   3.193   3.940   0.301  0.6999 -1.8544 -0.3541
16016TIP3   OH269538   5.141   1.343   4.714 -0.2265 -0.0822 -0.2938
16016TIP3    H169539   5.174   1.310   4.797  0.9821 -0.3326 -0.8454
16016TIP3    H269540   5.149   1.270   4.653 -0.6234  0.2466 -0.7573
16017TIP3   OH269541   0.560   6.716   1.159  0.1590 -0.1235 -0.6540
16017TIP3    H169542   0.552   6.710   1.254  0.5093  0.5698 -0.5781
16017TIP3    H269543   0.603   6.634   1.134  0.4525 -0.1199 -0.1730
16018TIP3   OH269544   4.553   4.324   2.479  0.2084 -0.1874  0.1449
16018TIP3    H169545   4.497   4.338   2.403  0.9180  1.0634 -0.1732
16018TIP3    H269546   4.505   4.260   2.532 -0.6701 -0.4806 -0.9570
16019TIP3   OH269547   6.799   2.797   1.734 -0.1621 -0.0209  0.0415
16019TIP3    H169548   6.862   2.812   1.664  0.0922 -2.2898 -0.3101
16019TIP3    H269549   6.847   2.744   1.798 -1.4748 -1.2404  0.0726
16020TIP3   OH269550   4.596   3.620   0.202  0.1781  0.1133 -0.2267
16020TIP3    H169551   4.510   3.585   0.226 -0.2747  1.1050 -0.3821
16020TIP3    H269552   4.584   3.714   0.199  1.0905  0.2214 -0.9786
16021TIP3   OH269553   1.227   6.827   5.228  0.2405 -0.1794 -0.5163
16021TIP3    H169554   1.306   6.809   5.280 -1.2293  0.5525  2.1385
16021TIP3    H269555   1.173   6.749   5.239  0.0275 -0.1461 -1.2601
16022TIP3   OH269556   1.702   5.929   0.202  0.1692  0.4154 -0.0770
16022TIP3    H169557   1.788   5.898   0.173 -0.4124  0.3599 -1.8855
16022TIP3    H269558   1.674   5.989   0.134 -1.4137  0.0841  0.2410
16023TIP3   OH269559   0.522   0.356  11.752 -0.2096  0.0715 -0.1601
16023TIP3    H169560   0.479   0.272  11.765  0.7920 -0.2530  1.2996
16023TIP3    H269561   0.473   0.397  11.680 -0.8327 -1.6516 -0.7803
16024TIP3   OH269562   1.560   1.943   0.425  0.1809  0.3966 -0.2346
16024TIP3    H169563   1.595   1.855   0.434 -0.4222 -0.0995 -2.1640
16024TIP3    H269564   1.586   1.988   0.505 -0.6035 -1.8902  1.3966
16025TIP3   OH269565   1.628   1.221  13.351 -0.0758  0.7060 -0.0787
16025TIP3    H169566   1.612   1.128  13.333 -1.4123  0.5943  1.4049
16025TIP3    H269567   1.723   1.230  13.349  0.0944 -0.7541 -0.0352
16026TIP3   OH269568   6.247   1.874   4.761 -0.5783  0.4997  0.2240
16026TIP3    H169569   6.280   1.813   4.695 -0.8323 -0.4413  0.9509
16026TIP3    H269570   6.321   1.932   4.779 -0.6404  1.0933 -1.2192
16027TIP3   OH269571   0.545   5.082  15.033  0.4939 -0.6339 -0.2011
16027TIP3    H169572   0.635   5.049  15.026  0.6646 -0.3388  0.5125
16027TIP3    H269573   0.554   5.173  15.062 -0.0173 -0.3630 -0.8577
16028TIP3   OH269574   3.423   0.377  15.513  0.2345  0.5328 -0.1414
16028TIP3    H169575   3.378   0.425  15.583  0.0635  0.5997 -0.2952
16028TIP3    H269576   3.516   0.395  15.527  0.4234 -1.5588  1.6403
16029TIP3   OH269577   0.886   3.914  16.682  0.3957  0.0054 -0.0204
16029TIP3    H169578   0.874   3.869  16.765 -2.2110  0.7221  0.0528
16029TIP3    H269579   0.895   3.844  16.617 -0.2345 -0.5744  0.5139
16030TIP3   OH269580   2.209   1.042  15.333  0.2073 -0.5063 -0.1632
16030TIP3    H169581   2.247   1.130  15.325 -1.1529  0.3481  1.8423
16030TIP3    H269582   2.285   0.985  15.346  1.0132  0.9472  2.3330
16031TIP3   OH269583   1.982   4.032   1.705 -0.4306 -0.8243 -0.0548
16031TIP3    H169584   1.932   4.110   1.728  1.3929  0.1679  0.7747
16031TIP3    H269585   1.926   3.984   1.643 -1.9355  0.6946  0.0659
16032TIP3   OH269586   5.237   3.687   1.352 -0.0221 -0.0011 -0.3711
16032TIP3    H169587   5.325   3.708   1.384  0.1888 -0.2166 -0.8042
16032TIP3    H269588   5.201   3.772   1.326  0.3581 -0.0116 -0.9431
16033TIP3   OH269589   6.062   6.100   2.529 -0.0028 -0.8233  0.2985
16033TIP3    H169590   6.037   6.094   2.621  0.2265 -0.5836  0.3788
16033TIP3    H269591   6.082   6.010   2.503 -0.5445 -0.9605  0.3445
16034TIP3   OH269592   2.480   3.260  13.357 -0.0916 -0.2995  0.5275
16034TIP3    H169593   2.521   3.303  13.282 -0.4274 -1.5244 -0.3813
16034TIP3    H269594   2.521   3.173  13.360  0.1105 -0.1778  1.9350
16035TIP3   OH269595   0.617   4.441   2.236  0.6978 -0.2372  0.1614
16035TIP3    H169596   0.704   4.458   2.274  0.2588  0.2101  0.9950
16035TIP3    H269597   0.603   4.347   2.251  1.2387 -0.4184 -0.4181
16036TIP3   OH269598   6.815   3.259   4.418  0.0096  0.2194  0.0835
16036TIP3    H169599   6.864   3.249   4.337 -1.0796  2.2892 -0.9116
16036TIP3    H269600   6.729   3.222   4.400  0.2650 -0.7604  0.8419
16037TIP3   OH269601   4.338   5.065  12.364  0.2981  0.5136 -0.2176
16037TIP3    H169602   4.358   5.156  12.342 -1.8228  1.5342  1.7489
16037TIP3    H269603   4.390   5.048  12.443 -1.3709  0.9762  1.0174
16038TIP3   OH269604   2.369   3.509   1.449 -0.0801  0.0257  0.4291
16038TIP3    H169605   2.321   3.461   1.382 -0.0430  0.1972  0.2795
16038TIP3    H269606   2.390   3.444   1.516  0.0334 -0.1781  0.1922
16039TIP3   OH269607   3.038   0.705   6.331  0.5466 -0.1766 -0.3501
16039TIP3    H169608   3.037   0.789   6.284  0.9627 -0.2590 -0.5042
16039TIP3    H269609   2.964   0.657   6.294  0.0482  0.2841  0.0338
16040TIP3   OH269610   6.550   2.804  11.406 -0.4718 -0.0022  0.3588
16040TIP3    H169611   6.646   2.810  11.398 -0.6197  1.4244 -0.5194
16040TIP3    H269612   6.520   2.779  11.319 -1.0524  1.9335 -0.0423
16041TIP3   OH269613   6.201   5.799   5.525 -0.3902  0.3899  0.3451
16041TIP3    H169614   6.155   5.883   5.530  1.1781  1.2982  0.2951
16041TIP3    H269615   6.179   5.765   5.439 -2.3687 -0.0772  1.0007
16042TIP3   OH269616   0.541   0.416  15.709  0.0357 -0.0501 -1.0542
16042TIP3    H169617   0.585   0.385  15.630 -0.0552 -2.9718 -0.1113
16042TIP3    H269618   0.474   0.350  15.726  0.4814  0.1141  1.7787
16043TIP3   OH269619   3.073   4.020  11.527  0.3000  0.6427 -0.5428
16043TIP3    H169620   3.033   4.105  11.509  0.5292  1.2917  1.7019
16043TIP3    H269621   3.158   4.041  11.567  2.1287 -0.7073 -3.4337
16044TIP3   OH269622   1.454   4.625  13.391 -0.1933  0.3443  0.0550
16044TIP3    H169623   1.527   4.574  13.426 -0.5556 -1.6270 -1.8925
16044TIP3    H269624   1.386   4.561  13.372 -0.6645  1.4740 -2.5386
16045TIP3   OH269625   5.039   3.278  11.374  0.1259  0.4239  0.1688
16045TIP3    H169626   4.997   3.222  11.309  0.2554 -1.0549  1.3053
16045TIP3    H269627   5.114   3.227  11.405 -0.3261  0.7592  1.9652
16046TIP3   OH269628   4.433   5.037  11.086 -0.1007  0.1253  0.6729
16046TIP3    H169629   4.499   4.969  11.087 -0.7045 -0.4723  1.3093
16046TIP3    H269630   4.483   5.119  11.090  0.6172 -0.2853  0.2544
16047TIP3   OH269631   1.632   4.652   0.553 -0.2937  0.3563 -0.5863
16047TIP3    H169632   1.703   4.717   0.550 -1.0588  1.1811 -1.4329
16047TIP3    H269633   1.672   4.572   0.521  0.2137  0.8703 -1.2693
16048TIP3   OH269634   5.377   3.571  13.924  0.2512 -0.0449 -0.3405
16048TIP3    H169635   5.390   3.616  13.840 -0.4581  1.3600  0.2745
16048TIP3    H269636   5.285   3.586  13.945  0.4595 -0.2672  0.7626
16049TIP3   OH269637   2.878   0.793   4.182 -0.2211 -0.3083  0.0045
16049TIP3    H169638   2.953   0.804   4.241  0.2273  0.2646 -0.6477
16049TIP3    H269639   2.838   0.710   4.209 -1.1408  0.8143  2.3108
16050TIP3   OH269640   1.667   6.098  13.730 -0.3112 -0.2925 -0.3671
16050TIP3    H169641   1.621   6.014  13.728  0.0027 -0.4766  0.0252
16050TIP3    H269642   1.731   6.089  13.801 -2.5039  1.4848  2.0052
16051TIP3   OH269643   1.744   0.089  13.711 -0.3408  0.6943  0.1633
16051TIP3    H169644   1.748  -0.003  13.736  0.6833  0.9103  0.8424
16051TIP3    H269645   1.686   0.090  13.634  2.0707 -0.9667 -1.8421
16052TIP3   OH269646   0.559   0.104   1.749 -0.3436  0.3385 -0.4596
16052TIP3    H169647   0.629   0.076   1.807  0.4231 -1.8149 -2.3020
16052TIP3    H269648   0.497   0.150   1.806  0.9623 -0.5668  1.7993
16053TIP3   OH269649   1.032   2.346   6.567 -0.2041  0.0788  0.1842
16053TIP3    H169650   1.081   2.270   6.536 -0.1880 -0.1718  0.8131
16053TIP3    H269651   0.943   2.333   6.532 -0.0568  0.0683 -0.1904
16054TIP3   OH269652   1.276   1.775  16.611 -0.0278  0.0405 -0.1971
16054TIP3    H169653   1.318   1.856  16.641  4.5079 -1.9751 -0.3017
16054TIP3    H269654   1.236   1.738  16.689  1.0941  0.6308  0.6828
16055TIP3   OH269655   6.117   1.554   0.180  1.4517 -0.6679  0.6693
16055TIP3    H169656   6.123   1.483   0.116  0.5562 -1.3697  1.3405
16055TIP3    H269657   6.059   1.520   0.248 -2.3458  2.0378 -0.8406
16056TIP3   OH269658   5.425   4.455  12.189 -0.0411 -0.2890 -0.6550
16056TIP3    H169659   5.519   4.452  12.172  0.2466  0.3814  0.6897
16056TIP3    H269660   5.385   4.439  12.104  1.2872  0.0540 -1.3743
16057TIP3   OH269661   3.849   6.704   3.667  0.7583  0.1515  0.0365
16057TIP3    H169662   3.790   6.637   3.631  0.6851 -0.6011  1.4653
16057TIP3    H269663   3.793   6.758   3.722  1.0724  0.5672 -0.0481
16058TIP3   OH269664   2.181   4.898   4.069  0.3860 -0.0917 -0.2783
16058TIP3    H169665   2.154   4.837   4.001 -0.5499 -0.2001  0.1677
16058TIP3    H269666   2.258   4.858   4.109 -0.2731 -1.0417  0.0705
16059TIP3   OH269667   5.629   3.381  12.369 -0.3220  0.4610 -0.2170
16059TIP3    H169668   5.662   3.301  12.411 -0.5865  1.4750  2.1179
16059TIP3    H269669   5.706   3.435  12.355 -0.2826  0.2866 -0.6906
16060TIP3   OH269670   2.895   4.584  14.232 -0.8627 -0.2142 -0.7049
16060TIP3    H169671   2.874   4.644  14.160 -0.1106  1.6467  0.5503
16060TIP3    H269672   2.975   4.539  14.204  0.3054  1.6111 -0.4575
16061TIP3   OH269673   5.684   2.723  12.434 -0.2035 -0.2137  0.0833
16061TIP3    H169674   5.763   2.676  12.462 -0.5932 -0.3161  1.0737
16061TIP3    H269675   5.716   2.809  12.406  0.1689  0.1263  1.4654
16062TIP3   OH269676   2.772   3.817   5.044  0.0172  0.1320  0.1893
16062TIP3    H169677   2.766   3.722   5.034  2.3699 -0.2099  1.3896
16062TIP3    H269678   2.731   3.852   4.965  0.8004 -1.9271 -1.2097
16063TIP3   OH269679   2.394   4.393  13.650  0.2898  0.1877  0.0022
16063TIP3    H169680   2.394   4.390  13.745  1.0524  0.6539  0.0262
16063TIP3    H269681   2.423   4.482  13.629  0.6081 -0.0683 -0.6609
16064TIP3   OH269682   1.562   1.808   0.131 -0.0396 -0.2493  0.2200
16064TIP3    H169683   1.525   1.723   0.105  0.5114 -0.2626 -0.5381
16064TIP3    H269684   1.575   1.800   0.225  1.8481 -1.7507 -0.0986
16065TIP3   OH269685   0.567   2.723  15.706  0.0138  0.2719  0.0874
16065TIP3    H169686   0.613   2.643  15.733 -1.3394 -0.9650 -1.0926
16065TIP3    H269687   0.636   2.781  15.675  1.0018 -0.5684  0.6384
16066TIP3   OH269688   3.691   5.965  14.652  0.2395 -0.3585  0.1981
16066TIP3    H169689   3.743   6.031  14.605 -0.7550  0.6593  0.4680
16066TIP3    H269690   3.710   5.980  14.744 -1.2493  0.7343  0.3821
16067TIP3   OH269691   6.653   2.562  16.170  0.0888 -0.0280  0.3256
16067TIP3    H169692   6.708   2.576  16.092 -1.1385  0.5264 -0.4579
16067TIP3    H269693   6.683   2.629  16.232 -1.6558  2.3011 -1.1898
16068TIP3   OH269694   0.758   6.049   4.483  0.1141 -0.5820  0.0641
16068TIP3    H169695   0.802   6.043   4.568  0.2767 -0.4839 -0.0118
16068TIP3    H269696   0.830   6.048   4.419 -0.0218 -0.9568 -0.0860
16069TIP3   OH269697   3.274   3.562  15.094 -0.6973  0.6090  0.0126
16069TIP3    H169698   3.255   3.484  15.041 -1.5014  0.6715  0.1941
16069TIP3    H269699   3.214   3.628  15.061 -1.3008  0.6180  1.0689
16070TIP3   OH269700   2.932   6.140  11.682  0.5225 -0.0140 -0.2324
16070TIP3    H169701   3.025   6.155  11.665  0.1757  0.8637 -1.4780
16070TIP3    H269702   2.915   6.053  11.645  0.6978  0.1200 -0.6296
16071TIP3   OH269703   2.482   4.720   6.050  0.2056 -0.4695  0.3523
16071TIP3    H169704   2.435   4.762   6.122  2.4410  0.6810  1.2551
16071TIP3    H269705   2.526   4.645   6.091  0.9770 -0.1768  0.0926
16072TIP3   OH269706   6.810   3.640   5.614 -0.3642  0.9866 -0.1966
16072TIP3    H169707   6.882   3.633   5.551 -0.5009  1.1172 -0.3703
16072TIP3    H269708   6.733   3.662   5.560 -1.5250 -3.3232 -0.6899
16073TIP3   OH269709   0.047   4.326   5.110 -0.8535  0.4675  0.4757
16073TIP3    H169710   0.003   4.409   5.093 -2.1075 -0.5573 -1.6481
16073TIP3    H269711   0.089   4.303   5.027  1.1317 -0.1137  1.5700
16074TIP3   OH269712   3.340   6.493  11.719 -0.0145 -0.1481  0.8595
16074TIP3    H169713   3.334   6.588  11.728  0.1132 -0.0503 -0.0147
16074TIP3    H269714   3.413   6.479  11.660 -0.6075 -0.7522  0.2548
16075TIP3   OH269715   3.411   3.519  15.685 -0.1428 -0.2581 -0.6047
16075TIP3    H169716   3.332   3.570  15.704  0.0967 -0.6107  1.5459
16075TIP3    H269717   3.468   3.579  15.637 -0.8874  0.6686 -0.3509
16076TIP3   OH269718   5.703   3.986   6.202 -0.0679  0.1081 -0.2211
16076TIP3    H169719   5.614   3.956   6.216 -0.1038 -0.1533 -0.9395
16076TIP3    H269720   5.695   4.061   6.143  0.1729  0.1319 -0.2274
16077TIP3   OH269721   4.822   1.976   5.346 -0.1940 -0.2075 -0.9668
16077TIP3    H169722   4.863   2.031   5.279  0.1588  0.1583 -0.4602
16077TIP3    H269723   4.737   2.017   5.362 -1.4392 -1.7595 -3.0345
16078TIP3   OH269724   6.413   3.698  10.621  0.5644 -0.3750  0.3656
16078TIP3    H169725   6.448   3.787  10.619  0.3273 -0.1577 -4.1520
16078TIP3    H269726   6.488   3.644  10.646  1.4728  0.8360  0.3674
16079TIP3   OH269727   5.180   2.854  11.099 -0.6272 -0.6499  0.4664
16079TIP3    H169728   5.100   2.805  11.116 -1.2352  0.6028  1.3070
16079TIP3    H269729   5.164   2.898  11.015 -1.3630  0.6454  1.2639
16080TIP3   OH269730   2.517   0.770  13.740  0.3477 -0.0069 -0.0298
16080TIP3    H169731   2.502   0.678  13.760 -0.9102 -0.4194 -2.4962
16080TIP3    H269732   2.430   0.809  13.738  0.6090  0.5960 -1.6246
16081TIP3   OH269733   5.613   2.954  17.035  0.0721  0.0092 -0.2999
16081TIP3    H169734   5.700   2.993  17.032  0.3423 -0.3637  1.5051
16081TIP3    H269735   5.554   3.030  17.035  0.3490  0.2548 -1.9143
16082TIP3   OH269736   6.143   2.766   1.706  0.1616 -0.4175  0.0516
16082TIP3    H169737   6.050   2.743   1.716  0.0826  0.6551  2.1709
16082TIP3    H269738   6.186   2.724   1.780  1.3962 -0.7766 -0.8253
16083TIP3   OH269739   2.828   5.425  12.729 -0.0289  0.2483 -0.1636
16083TIP3    H169740   2.851   5.505  12.777  0.8028 -0.8285  1.2871
16083TIP3    H269741   2.910   5.398  12.688  0.1762 -0.9430  1.0014
16084TIP3   OH269742   1.039   6.587  14.963  0.2073  0.1712  0.0770
16084TIP3    H169743   1.034   6.544  14.878 -1.9702 -2.6067  1.4434
16084TIP3    H269744   1.128   6.568  14.993  0.4770 -0.1936 -0.9055
16085TIP3   OH269745   2.245   1.046  14.494 -0.0411  0.2885  0.3759
16085TIP3    H169746   2.180   0.976  14.498 -1.5975  1.6081 -0.4435
16085TIP3    H269747   2.201   1.121  14.534  0.6619  1.4379 -0.9261
16086TIP3   OH269748   5.154   3.862   3.853 -0.4656  0.2608  0.3008
16086TIP3    H169749   5.130   3.794   3.791  0.8979  0.2428 -0.2492
16086TIP3    H269750   5.082   3.925   3.849 -1.3359 -0.7167  0.1974
16087TIP3   OH269751   1.052   2.456  14.507  0.0991 -0.7516  0.3682
16087TIP3    H169752   0.982   2.483  14.566 -0.5867 -3.0229  0.6745
16087TIP3    H269753   1.010   2.449  14.421  0.1818 -1.1899  0.3634
16088TIP3   OH269754   3.773   4.750   5.863 -0.0241  0.2067  0.0571
16088TIP3    H169755   3.699   4.749   5.923 -0.1388  0.3606 -0.0792
16088TIP3    H269756   3.840   4.802   5.907  0.2819 -0.5399  0.5027
16089TIP3   OH269757   2.907   0.631   1.917  0.2767  0.1373 -0.6255
16089TIP3    H169758   2.951   0.588   1.991 -0.6879  1.9970  1.1173
16089TIP3    H269759   2.904   0.564   1.849 -0.6800 -2.3849  1.7359
16090TIP3   OH269760   6.236   5.026  12.890  0.3255 -0.3195 -0.1470
16090TIP3    H169761   6.142   5.044  12.889  0.2858 -0.4003  0.9129
16090TIP3    H269762   6.276   5.110  12.910  0.3580 -0.6195  1.1487
16091TIP3   OH269763   2.809   3.082  11.073 -0.3222 -0.6006  0.0370
16091TIP3    H169764   2.897   3.070  11.038  0.0648  0.5068  0.5977
16091TIP3    H269765   2.754   3.024  11.020  0.3025  0.6816 -2.0972
16092TIP3   OH269766   0.746   4.271   1.880  0.4326 -0.4439  0.0454
16092TIP3    H169767   0.729   4.238   1.968  0.3989 -0.0268  0.1974
16092TIP3    H269768   0.762   4.192   1.828 -1.8170 -0.8844 -0.0966
16093TIP3   OH269769   5.170   4.746   5.484  0.0421 -0.0319 -0.0274
16093TIP3    H169770   5.162   4.840   5.471 -1.4653 -0.4722 -3.5413
16093TIP3    H269771   5.085   4.720   5.520  0.3669 -0.1164  0.6984
16094TIP3   OH269772   0.691   0.656  12.846 -0.0925 -0.8663  0.0080
16094TIP3    H169773   0.765   0.681  12.789  1.4490 -0.0187  2.2350
16094TIP3    H269774   0.726   0.587  12.902 -0.6172  0.2888  1.8240
16095TIP3   OH269775   1.168   0.111  15.052  0.4628  0.0523 -0.2513
16095TIP3    H169776   1.086   0.144  15.017  0.7936  0.1662 -0.9360
16095TIP3    H269777   1.212   0.189  15.086 -0.5728 -0.2697  1.9748
16096TIP3   OH269778   1.213   6.072   3.977  0.0209  0.2917  0.2151
16096TIP3    H169779   1.271   6.004   4.013  1.8346  1.1414 -0.9504
16096TIP3    H269780   1.201   6.047   3.885 -0.6346  0.6837  0.1915
16097TIP3   OH269781   5.578   4.058   4.966  0.5934 -0.1846 -0.2538
16097TIP3    H169782   5.510   4.008   5.011  0.0592  1.3568  0.7087
16097TIP3    H269783   5.548   4.149   4.970  1.6267  0.2603 -1.8010
16098TIP3   OH269784   3.798   4.909   4.155 -0.1173  0.0547  0.2224
16098TIP3    H169785   3.840   4.871   4.232  0.5186 -0.7657 -0.5168
16098TIP3    H269786   3.816   5.003   4.162  1.6364 -0.2390  0.0606
16099TIP3   OH269787   6.498   5.010  14.082  0.0165 -0.7453 -0.2257
16099TIP3    H169788   6.482   5.010  14.177  0.0910 -0.4792 -0.2135
16099TIP3    H269789   6.593   5.019  14.074 -0.1965  2.3310 -0.3675
16100TIP3   OH269790   0.438   2.264  14.278  0.3039 -0.3987  0.1646
16100TIP3    H169791   0.349   2.298  14.267  0.4453 -0.5850 -1.9175
16100TIP3    H269792   0.484   2.332  14.327 -0.5357  0.4693 -0.2316
16101TIP3   OH269793   1.836   2.461   3.806  0.1883  0.4251 -0.1738
16101TIP3    H169794   1.883   2.411   3.740 -1.8675 -2.0376  0.1064
16101TIP3    H269795   1.772   2.400   3.842 -2.1580  3.1237  0.5721
16102TIP3   OH269796   6.690   0.439  12.753 -0.3318 -0.3178  0.4403
16102TIP3    H169797   6.597   0.414  12.753 -0.3263 -0.5672 -1.8561
16102TIP3    H269798   6.716   0.433  12.661  0.8881  3.7582  0.3516
16103TIP3   OH269799   0.472   0.974   2.273 -0.0001 -0.0186 -0.4235
16103TIP3    H169800   0.446   1.042   2.212  0.6446  0.2380 -0.4218
16103TIP3    H269801   0.567   0.967   2.262  0.1407  0.1022  0.6210
16104TIP3   OH269802   2.882   0.183   6.164 -0.3161 -0.1502 -0.3660
16104TIP3    H169803   2.822   0.254   6.142 -0.2757  0.6103  1.8054
16104TIP3    H269804   2.837   0.132   6.230  1.2566  0.2483  1.0865
16105TIP3   OH269805   3.489   5.645   4.438  0.3566  0.1354  0.3506
16105TIP3    H169806   3.419   5.581   4.422 -0.4177  1.4124 -1.7447
16105TIP3    H269807   3.448   5.713   4.492  0.1304  0.5964 -0.3914
16106TIP3   OH269808   0.367   1.915  14.828  0.3782  0.7123  0.6009
16106TIP3    H169809   0.275   1.942  14.828  0.5672  1.3605  0.4625
16106TIP3    H269810   0.364   1.822  14.852 -0.3610  0.5397 -0.1154
16107TIP3   OH269811   0.683   4.337   4.873 -0.4257  0.2271 -0.2636
16107TIP3    H169812   0.701   4.354   4.966  0.2161  0.8026 -0.4848
16107TIP3    H269813   0.714   4.248   4.859 -0.0052  0.3337 -0.0464
16108TIP3   OH269814   1.160   5.235  10.981  0.1544 -0.3560 -0.4431
16108TIP3    H169815   1.218   5.165  10.951 -1.1950 -2.4067  1.5208
16108TIP3    H269816   1.076   5.217  10.939 -0.1188  0.3121 -0.2052
16109TIP3   OH269817   2.800   6.583   4.302  0.3343 -0.7097 -0.1926
16109TIP3    H169818   2.893   6.563   4.311  0.4380 -0.9033 -1.4084
16109TIP3    H269819   2.763   6.570   4.389  1.4657 -0.5082  0.3315
16110TIP3   OH269820   3.558   4.844  15.933  0.3289  0.0955  0.0253
16110TIP3    H169821   3.578   4.756  15.964  0.6938  0.8984  2.2785
16110TIP3    H269822   3.463   4.843  15.919  0.1607 -0.3945  1.0677
16111TIP3   OH269823   5.224   3.492   4.428 -0.1840 -0.1425  0.5267
16111TIP3    H169824   5.186   3.504   4.515  0.3652 -0.8999  0.8824
16111TIP3    H269825   5.257   3.579   4.404 -0.6339  0.1454  0.9279
16112TIP3   OH269826   6.562   0.534  16.172 -0.5097  0.1737  0.0802
16112TIP3    H169827   6.604   0.608  16.215 -0.0941  0.2401 -0.4316
16112TIP3    H269828   6.471   0.538  16.201 -0.6561  1.3012 -0.4761
16113TIP3   OH269829   1.871   1.828   5.394  0.2342 -0.0641  0.6052
16113TIP3    H169830   1.834   1.815   5.481 -1.1894 -1.3769 -0.1403
16113TIP3    H269831   1.962   1.798   5.402 -0.1971 -1.2582  1.3852
16114TIP3   OH269832   4.621   2.438   0.200 -0.5980 -0.8413  0.0156
16114TIP3    H169833   4.567   2.427   0.121 -1.7404  0.6133  0.5354
16114TIP3    H269834   4.557   2.452   0.270  0.4344 -0.4361  0.8928
16115TIP3   OH269835   5.019   5.663   1.876  0.8043  0.4248 -0.1280
16115TIP3    H169836   5.076   5.602   1.922  1.4136  0.3609 -0.9558
16115TIP3    H269837   5.064   5.682   1.794  0.6855  2.0566  0.1352
16116TIP3   OH269838   4.240   2.383   3.736 -0.0856 -0.2901  0.6885
16116TIP3    H169839   4.222   2.429   3.818 -0.4101 -1.1640  1.1287
16116TIP3    H269840   4.298   2.311   3.762  0.2818 -0.2252  0.0488
16117TIP3   OH269841   0.619   1.044  16.388 -0.0448 -0.0333  0.1682
16117TIP3    H169842   0.547   1.094  16.428 -0.0142 -0.2419  0.4843
16117TIP3    H269843   0.638   0.975  16.451 -0.6885 -0.9981 -0.6548
16118TIP3   OH269844   6.221   6.418   3.701 -0.3061  0.2139  0.5907
16118TIP3    H169845   6.289   6.425   3.634 -1.0290 -1.1204 -0.3091
16118TIP3    H269846   6.139   6.428   3.653 -0.8048  0.3660  1.4551
16119TIP3   OH269847   6.420   6.730   4.932  0.0147  0.4602 -0.2700
16119TIP3    H169848   6.485   6.791   4.897  1.5598 -2.1453 -2.3834
16119TIP3    H269849   6.470   6.675   4.993 -0.7796 -0.1029 -0.1205
16120TIP3   OH269850   6.672   5.765  13.781  0.8722  0.1869  0.0123
16120TIP3    H169851   6.684   5.810  13.864 -1.4211  2.1136 -0.6079
16120TIP3    H269852   6.717   5.819  13.717  1.7390 -0.7358 -0.1895
16121TIP3   OH269853   3.512   0.842  15.706  0.2205  0.2169  0.4761
16121TIP3    H169854   3.490   0.857  15.798 -1.3661 -1.1812  0.3775
16121TIP3    H269855   3.463   0.910  15.659 -0.7517 -0.4062  0.5482
16122TIP3   OH269856   2.987   2.534   2.860 -0.3510  0.2622 -0.3203
16122TIP3    H169857   2.903   2.513   2.819 -0.4661 -2.3274  1.0331
16122TIP3    H269858   2.963   2.586   2.938 -0.9024 -1.6077  0.8213
16123TIP3   OH269859   5.959   4.349  14.660  0.2046 -0.0085  0.0586
16123TIP3    H169860   5.870   4.368  14.629  0.4725  0.1439 -0.6250
16123TIP3    H269861   6.016   4.401  14.604  0.8215 -1.2640 -0.5173
16124TIP3   OH269862   4.339   5.314   2.644 -0.4722  0.2436 -0.4460
16124TIP3    H169863   4.401   5.241   2.648 -1.3791 -0.4912  2.7374
16124TIP3    H269864   4.390   5.385   2.605  1.6435 -0.9792 -0.1249
16125TIP3   OH269865   1.628   2.975  12.499 -0.1821  0.2152  0.2852
16125TIP3    H169866   1.644   2.943  12.588 -1.2648  2.1272  1.2144
16125TIP3    H269867   1.679   3.056  12.493 -0.8221  0.5712 -0.5197
16126TIP3   OH269868   5.779   4.427   3.868  0.4487  0.0043  0.8310
16126TIP3    H169869   5.727   4.402   3.791 -0.7343 -1.1650  1.9542
16126TIP3    H269870   5.768   4.522   3.874  0.8759  0.1671 -0.6439
16127TIP3   OH269871   6.293   0.781  13.978 -0.3066  0.5354 -0.3440
16127TIP3    H169872   6.349   0.858  13.979 -1.3086  1.3298 -1.8700
16127TIP3    H269873   6.294   0.751  13.887  1.0497 -2.0372  0.4298
16128TIP3   OH269874   6.394   5.235  12.943 -0.6140 -0.0455  0.5749
16128TIP3    H169875   6.342   5.310  12.916 -1.8212 -1.3582 -0.9926
16128TIP3    H269876   6.467   5.233  12.882 -0.8146 -0.3652  0.3395
16129TIP3   OH269877   3.724   1.593   0.749 -0.4348  0.2302  0.9072
16129TIP3    H169878   3.775   1.571   0.827 -0.8280 -1.9782  0.5990
16129TIP3    H269879   3.637   1.614   0.783 -0.7336 -1.1730  1.0675
16130TIP3   OH269880   1.428   1.319  17.260 -0.1490  0.4204  0.1904
16130TIP3    H169881   1.472   1.237  17.284  0.6842  0.7972 -0.0031
16130TIP3    H269882   1.336   1.305  17.283 -0.0879 -0.7114 -0.2294
16131TIP3   OH269883   0.064   4.912   2.348  0.3169 -0.3576  0.3891
16131TIP3    H169884   0.116   4.833   2.334 -0.0733 -0.3843 -1.0109
16131TIP3    H269885   0.057   4.952   2.262 -0.2735  0.7248  0.9202
16132TIP3   OH269886   2.630   5.641  11.915 -0.4880 -0.4934  0.3638
16132TIP3    H169887   2.608   5.733  11.896  0.3405 -0.2855  0.3787
16132TIP3    H269888   2.595   5.626  12.003 -2.0667 -0.6920 -0.2594
16133TIP3   OH269889   3.699   1.243   3.021  0.9509 -0.8056  0.6923
16133TIP3    H169890   3.696   1.322   2.965  0.3039 -0.3172  1.3993
16133TIP3    H269891   3.781   1.251   3.068  0.3064  0.1409  1.7164
16134TIP3   OH269892   1.646   6.381   2.883 -0.3970  0.3253  0.0191
16134TIP3    H169893   1.691   6.308   2.926  0.7578  1.7365  1.3001
16134TIP3    H269894   1.713   6.425   2.832 -1.0556  0.5892 -0.6414
16135TIP3   OH269895   3.581   6.359  14.916 -0.7003  0.0836  0.6251
16135TIP3    H169896   3.509   6.411  14.952 -0.7478  1.4054 -1.2210
16135TIP3    H269897   3.541   6.275  14.894 -1.4848  0.4849  0.4792
16136TIP3   OH269898   0.312   2.280  17.077  0.2074 -0.1764 -0.1881
16136TIP3    H169899   0.223   2.258  17.048  0.5421 -0.7236 -0.8344
16136TIP3    H269900   0.350   2.197  17.104 -0.0095  0.2914  1.6704
16137TIP3   OH269901   1.517   6.050  16.407  0.1013 -0.6362 -0.4524
16137TIP3    H169902   1.467   6.124  16.373  0.1485 -0.5676 -0.3743
16137TIP3    H269903   1.499   6.050  16.501  0.9709 -0.0456 -0.2702
16138TIP3   OH269904   5.595   4.641   4.292  0.0360 -0.1717 -0.6097
16138TIP3    H169905   5.603   4.686   4.208  1.3332 -2.8433 -2.0367
16138TIP3    H269906   5.651   4.691   4.351 -0.1046  1.1745 -1.5644
16139TIP3   OH269907   0.610   3.836   2.192  0.3814  0.4367  0.5897
16139TIP3    H169908   0.631   3.840   2.286  0.0767  2.0113  0.6066
16139TIP3    H269909   0.675   3.775   2.156  0.6722  0.0160  1.7694
16140TIP3   OH269910   0.909   6.648  16.742  0.1631 -0.2262  0.5396
16140TIP3    H169911   0.891   6.678  16.831 -1.6115 -0.6022  0.3318
16140TIP3    H269912   0.903   6.726  16.688 -0.5759 -0.2896  0.5193
16141TIP3   OH269913   3.282   5.496  14.298  0.1342  0.1776  0.0442
16141TIP3    H169914   3.290   5.576  14.247 -1.2849 -0.0372 -0.5507
16141TIP3    H269915   3.196   5.503  14.339  0.1953 -0.8349  0.3551
16142TIP3   OH269916   5.909   0.841   3.703 -0.4680  0.3949 -0.1461
16142TIP3    H169917   5.947   0.924   3.672  2.0201 -1.2270 -1.8279
16142TIP3    H269918   5.927   0.779   3.633 -0.4055 -2.0440  1.8946
16143TIP3   OH269919   2.258   2.792  16.079 -0.1209 -0.2777 -0.1587
16143TIP3    H169920   2.270   2.702  16.050  0.0829 -0.3672  0.1985
16143TIP3    H269921   2.173   2.792  16.123  0.1174 -0.4155  0.3045
16144TIP3   OH269922   2.471   0.904  13.370  0.1355  0.3890 -0.7638
16144TIP3    H169923   2.390   0.947  13.344 -2.0037 -2.1596  1.1229
16144TIP3    H269924   2.491   0.939  13.456 -0.7463 -1.1149  0.0971
16145TIP3   OH269925   3.451   5.184  11.548 -0.0123  0.4453  0.5205
16145TIP3    H169926   3.365   5.144  11.534 -0.0378  0.5785  0.2946
16145TIP3    H269927   3.485   5.140  11.626 -1.0822  1.6977  1.7391
16146TIP3   OH269928   1.694   5.149   4.908  0.6439  0.2390 -0.0092
16146TIP3    H169929   1.719   5.223   4.852 -0.5804  0.3927 -0.3972
16146TIP3    H269930   1.682   5.076   4.848  1.4266 -0.1729  0.3240
16147TIP3   OH269931   1.336   1.950  11.462  0.2075 -0.3955 -0.1305
16147TIP3    H169932   1.287   2.029  11.484 -1.7279 -1.3175 -0.9027
16147TIP3    H269933   1.427   1.971  11.484  0.1333  2.7781 -2.2297
16148TIP3   OH269934   0.994   6.088   4.342  0.1878 -0.7034  0.7156
16148TIP3    H169935   0.954   6.104   4.257  0.0513  2.0449  1.2026
16148TIP3    H269936   1.081   6.054   4.323  0.5142  0.7663 -0.5793
16149TIP3   OH269937   6.053   4.148  13.145 -0.2102 -0.3317 -0.2054
16149TIP3    H169938   6.063   4.208  13.072  2.2403 -0.1585  0.1899
16149TIP3    H269939   6.127   4.087  13.137 -1.0248 -1.5532  1.0073
16150TIP3   OH269940   3.029   1.731  14.814  0.0774  0.3486  0.5377
16150TIP3    H169941   3.046   1.819  14.847 -0.1370  0.0336  1.5305
16150TIP3    H269942   3.065   1.731  14.726 -1.6806  2.0608 -0.2600
16151TIP3   OH269943   6.295   1.207   5.177  0.2647 -0.1887 -0.1113
16151TIP3    H169944   6.284   1.279   5.239  1.0696  1.7223 -2.0606
16151TIP3    H269945   6.389   1.199   5.165  0.1271 -0.5430 -1.0616
16152TIP3   OH269946   3.413   4.984   4.796  0.3794  0.5712  0.1270
16152TIP3    H169947   3.433   4.999   4.704  1.1512  0.0898  0.2099
16152TIP3    H269948   3.325   4.945   4.794  0.2147  0.9510 -0.3705
16153TIP3   OH269949   3.895   5.863   3.754  0.1925 -0.2180 -0.0127
16153TIP3    H169950   3.931   5.820   3.832 -0.7544  0.1053  0.6113
16153TIP3    H269951   3.968   5.916   3.721  1.1809 -1.7540 -0.4246
16154TIP3   OH269952   5.674   5.223  14.168 -0.2515  0.1510  0.0766
16154TIP3    H169953   5.685   5.317  14.183  1.0480 -0.0591  0.6005
16154TIP3    H269954   5.700   5.183  14.251 -0.7041 -0.6706 -0.1736
16155TIP3   OH269955   0.305   0.811  15.735 -0.3015 -0.3282 -0.4455
16155TIP3    H169956   0.228   0.756  15.751 -1.3098  1.0920 -0.1986
16155TIP3    H269957   0.272   0.883  15.682  1.2818 -0.6436 -1.9574
16156TIP3   OH269958   4.948   1.846  16.430  0.5724 -0.0352  0.1615
16156TIP3    H169959   4.938   1.807  16.343 -1.2232 -1.8841  1.1091
16156TIP3    H269960   4.868   1.898  16.442  0.1505 -0.8881  1.1956
16157TIP3   OH269961   2.059   2.410  17.286 -0.1538  0.2680 -0.1995
16157TIP3    H169962   2.061   2.436  17.194 -1.9240  0.6589 -0.1536
16157TIP3    H269963   2.029   2.319  17.284  1.0023 -0.1298 -0.0610
16158TIP3   OH269964   0.168   1.185   2.045  0.2776 -0.6974 -0.2501
16158TIP3    H169965   0.157   1.131   1.967 -1.8775 -0.5869 -0.0896
16158TIP3    H269966   0.244   1.241   2.025  0.0016 -0.9169 -2.1161
16159TIP3   OH269967   4.792   5.289  15.370 -0.1514 -0.3605 -0.1470
16159TIP3    H169968   4.830   5.239  15.299  1.0666  0.8915 -0.4215
16159TIP3    H269969   4.737   5.227  15.418  1.6548 -2.0552 -0.1819
16160TIP3   OH269970   0.163   4.614   5.244  0.3578  0.2731  0.4150
16160TIP3    H169971   0.157   4.685   5.308 -0.0638  0.6756 -0.0673
16160TIP3    H269972   0.147   4.535   5.295  1.7495  0.4235  1.1365
16161TIP3   OH269973   4.915   3.830   2.146 -0.4032 -0.3972  0.3773
16161TIP3    H169974   4.869   3.880   2.214 -1.4802  0.1242 -0.6894
16161TIP3    H269975   4.876   3.860   2.064  1.0497 -0.8110 -0.5040
16162TIP3   OH269976   5.410   6.118  13.099  0.0731  0.0827  0.0843
16162TIP3    H169977   5.325   6.114  13.055  1.2734  2.2468 -2.7250
16162TIP3    H269978   5.427   6.212  13.108  2.7257 -0.2506 -0.7332
16163TIP3   OH269979   5.349   6.746   5.383 -0.3004  0.1701  0.2646
16163TIP3    H169980   5.411   6.710   5.446 -1.5282 -1.3924  0.6276
16163TIP3    H269981   5.280   6.785   5.438  0.1504  1.6227 -0.1375
16164TIP3   OH269982   3.994   0.003  11.491 -0.0728  0.3262 -0.4979
16164TIP3    H169983   3.982  -0.080  11.445 -0.2436  0.3024 -0.4151
16164TIP3    H269984   4.086   0.024  11.480  0.1190 -0.2144  0.0534
16165TIP3   OH269985   0.536   5.583  16.753  0.0292  0.3398 -0.0811
16165TIP3    H169986   0.625   5.550  16.750 -0.4502 -1.0464  0.3252
16165TIP3    H269987   0.481   5.506  16.765 -1.2378  1.1553 -0.3420
16166TIP3   OH269988   2.446   4.391   5.006  0.4117 -0.1836  0.3817
16166TIP3    H169989   2.491   4.454   5.062 -0.7398  0.0139  1.1071
16166TIP3    H269990   2.486   4.307   5.027  1.0882  0.1126  0.3135
16167TIP3   OH269991   1.464   0.718   6.018  0.2801  0.7104  0.0210
16167TIP3    H169992   1.441   0.800   5.975 -1.7559 -0.4363 -1.2109
16167TIP3    H269993   1.499   0.745   6.103 -0.2718  2.8361 -0.3653
16168TIP3   OH269994   3.640   1.278  16.577  0.1390 -0.3714  0.3475
16168TIP3    H169995   3.652   1.367  16.546 -1.4331 -0.0824  0.4528
16168TIP3    H269996   3.611   1.230  16.499  1.4060 -0.9124  0.1890
16169TIP3   OH269997   2.468   0.725  15.805 -0.3546  0.0866 -0.5271
16169TIP3    H169998   2.380   0.719  15.768 -0.7534  1.2124  0.1925
16169TIP3    H269999   2.489   0.818  15.804  0.5530 -0.0975 -0.0494
16170TIP3   OH270000   1.476   4.518  17.299  0.1730 -0.3493  0.5085
16170TIP3    H170001   1.553   4.574  17.306  0.2473 -0.3469 -0.2889
16170TIP3    H270002   1.508   4.437  17.258 -0.1154 -0.6158  0.8005
16171TIP3   OH270003   3.440   1.083  12.944  0.0767 -0.1051 -0.2654
16171TIP3    H170004   3.473   0.997  12.969  0.3727 -0.4883 -1.9172
16171TIP3    H270005   3.358   1.064  12.898  0.1932  0.4933 -0.7213
16172TIP3   OH270006   2.960   5.400  15.963 -0.5123  0.0185 -0.4329
16172TIP3    H170007   2.869   5.392  15.994 -0.6605  0.3259 -0.7812
16172TIP3    H270008   2.978   5.494  15.965 -0.2654 -0.0261 -0.5524
16173TIP3   OH270009   6.206   1.948  13.854  0.0137 -0.0456 -0.3741
16173TIP3    H170010   6.123   1.901  13.851  0.4118 -0.9144  0.9771
16173TIP3    H270011   6.213   1.990  13.769 -1.6355 -0.2390 -0.6455
16174TIP3   OH270012   2.842   5.297   0.043 -0.4385  1.1554 -0.4960
16174TIP3    H170013   2.835   5.204   0.024 -1.7750  1.2537 -0.5481
16174TIP3    H270014   2.928   5.306   0.085  0.4451  0.1785 -2.0015
16175TIP3   OH270015   5.184   6.203  13.327 -0.3931  0.2481 -0.6760
16175TIP3    H170016   5.122   6.131  13.337  0.2469 -0.2415 -0.1338
16175TIP3    H270017   5.257   6.181  13.386  0.2104  0.9034 -1.1532
16176TIP3   OH270018   6.184   4.951  14.330  0.3967  0.0180  0.0760
16176TIP3    H170019   6.110   4.994  14.287 -0.7400 -2.3285 -0.5049
16176TIP3    H270020   6.153   4.931  14.418  0.5014 -0.5453 -0.0116
16177TIP3   OH270021   5.849   5.517   0.924 -1.2487  0.7312  0.4822
16177TIP3    H170022   5.841   5.607   0.956 -2.8577  0.0895  2.0342
16177TIP3    H270023   5.759   5.490   0.906 -0.5648  0.5655 -3.5181
16178TIP3   OH270024   0.937   1.903  16.618  0.0837  0.6658  0.5568
16178TIP3    H170025   1.026   1.937  16.625  0.6339 -0.9120  1.7905
16178TIP3    H270026   0.884   1.980  16.597  1.8882  1.4146 -1.6674
16179TIP3   OH270027   4.458   1.754  16.806  0.0121  0.5533  0.3743
16179TIP3    H170028   4.397   1.825  16.789  0.8002  1.1694  0.0507
16179TIP3    H270029   4.545   1.794  16.797  0.4677 -0.3575  0.5716
16180TIP3   OH270030   2.253   5.156  14.906  0.5840 -0.0467  0.0767
16180TIP3    H170031   2.324   5.204  14.947 -2.9398  4.8861  1.3440
16180TIP3    H270032   2.206   5.116  14.979 -0.7164  1.1502 -0.0648
16181TIP3   OH270033   3.155   3.422   1.936  0.1967  0.0208 -0.4245
16181TIP3    H170034   3.174   3.503   1.983  0.8802  0.4795 -1.4573
16181TIP3    H270035   3.102   3.449   1.861  0.0035 -0.5592 -0.5041
16182TIP3   OH270036   3.139   4.853   4.801  0.2092 -0.1233 -0.8684
16182TIP3    H170037   3.137   4.781   4.738  2.7526 -0.5676 -0.5434
16182TIP3    H270038   3.182   4.817   4.878  0.0337  1.2933 -0.0710
16183TIP3   OH270039   6.524   2.897   1.461  0.5974 -0.0865  0.2271
16183TIP3    H170040   6.554   2.987   1.453 -2.6955  1.0914 -0.8334
16183TIP3    H270041   6.428   2.905   1.468  0.3339 -3.2617  4.7313
16184TIP3   OH270042   3.663   3.475   2.607 -0.5745  0.2295  0.1926
16184TIP3    H170043   3.590   3.453   2.550  1.0651  0.1707 -1.9774
16184TIP3    H270044   3.707   3.392   2.624 -1.5834  0.0706  2.4615
16185TIP3   OH270045   0.945   0.137  12.428 -0.3900 -0.7119  0.2196
16185TIP3    H170046   0.915   0.209  12.372  0.4875  0.8138  1.5964
16185TIP3    H270047   0.874   0.123  12.490 -0.9538 -1.7215 -0.6296
16186TIP3   OH270048   5.274   0.946   2.720  0.2791  0.0201 -0.3172
16186TIP3    H170049   5.257   1.023   2.774  0.1517 -0.4083  0.2645
16186TIP3    H270050   5.208   0.882   2.748  0.8509 -0.5557 -0.2605
16187TIP3   OH270051   1.140   2.110  11.861 -0.0014  0.3700  0.0008
16187TIP3    H170052   1.211   2.145  11.914 -0.7952 -0.6844  1.8558
16187TIP3    H270053   1.138   2.016  11.882 -1.2841  0.1875 -0.8024
16188TIP3   OH270054   3.409   0.737   4.173  0.3533  0.4308  0.0648
16188TIP3    H170055   3.440   0.676   4.106  0.0075 -0.0613  0.3464
16188TIP3    H270056   3.321   0.762   4.145  0.5632  0.9492 -0.1457
16189TIP3   OH270057   2.004   3.278   2.035 -0.0032  0.1851 -0.5496
16189TIP3    H170058   1.916   3.303   2.008 -0.2816 -0.2368 -0.0592
16189TIP3    H270059   2.060   3.300   1.961 -0.2009  2.3950 -0.1069
16190TIP3   OH270060   5.153   4.554  13.888  0.4858 -0.3232  0.2639
16190TIP3    H170061   5.128   4.608  13.963 -0.0146 -0.2245  0.0313
16190TIP3    H270062   5.125   4.605  13.812 -1.3901 -1.5607  0.0643
16191TIP3   OH270063   5.536   3.691  11.288 -0.5628  0.0897 -0.3264
16191TIP3    H170064   5.570   3.775  11.318  0.4179 -0.9899  1.7972
16191TIP3    H270065   5.610   3.649  11.244 -0.3931 -0.5244  0.5240
16192TIP3   OH270066   6.724   5.072  16.386 -0.0115  0.2782  0.1972
16192TIP3    H170067   6.716   5.141  16.321 -1.6565  1.3146  1.4259
16192TIP3    H270068   6.818   5.056  16.394  0.2832  1.1511 -1.3477
16193TIP3   OH270069   6.206   3.882   5.527  0.2971  0.4957 -0.1108
16193TIP3    H170070   6.278   3.911   5.582  1.2271 -0.4493 -0.7786
16193TIP3    H270071   6.243   3.878   5.439 -0.1262 -1.3565 -0.2629
16194TIP3   OH270072   2.966   2.550  13.226 -0.3041  0.7519 -0.6228
16194TIP3    H170073   2.941   2.468  13.269  1.3115 -0.7936 -2.4719
16194TIP3    H270074   2.884   2.598  13.217 -0.9808  0.4525  2.5672
16195TIP3   OH270075   4.753   6.809  15.422  0.5902 -0.1469 -0.0498
16195TIP3    H170076   4.661   6.798  15.445 -0.0687  1.6181 -1.6144
16195TIP3    H270077   4.757   6.793  15.328  1.8767 -0.0697 -0.0321
16196TIP3   OH270078   0.693   1.686   3.759  0.4260  0.4262 -0.1203
16196TIP3    H170079   0.688   1.636   3.678 -0.6702  0.8272 -0.3217
16196TIP3    H270080   0.614   1.661   3.807  2.5179 -2.2328  2.3266
16197TIP3   OH270081   6.643   6.227  13.957 -0.2059 -0.1362 -0.0731
16197TIP3    H170082   6.558   6.183  13.958  0.3859 -1.4031  2.1879
16197TIP3    H270083   6.706   6.156  13.967  1.2267  0.6984 -2.4156
16198TIP3   OH270084   6.532   0.219  10.817  0.0319 -0.7248  0.3465
16198TIP3    H170085   6.454   0.175  10.785  1.3556 -1.7031 -1.7245
16198TIP3    H270086   6.507   0.312  10.821 -1.4120 -1.0982  0.3580
16199TIP3   OH270087   3.770   1.826  13.107 -0.3191  0.2615 -0.0272
16199TIP3    H170088   3.847   1.784  13.069 -0.9328 -1.9108  0.9913
16199TIP3    H270089   3.806   1.899  13.158  1.2148 -1.2495  1.1659
16200TIP3   OH270090   4.433   0.390   5.800  0.2604 -0.4007  0.1909
16200TIP3    H170091   4.354   0.354   5.841 -0.4940  1.6820  0.7256
16200TIP3    H270092   4.402   0.467   5.753  1.9253  0.2775  0.1323
16201TIP3   OH270093   3.028   2.014   0.584 -0.6985 -0.4104  0.1199
16201TIP3    H170094   2.949   2.061   0.611 -0.4861  0.5585 -0.8612
16201TIP3    H270095   3.055   1.966   0.662 -0.7460  1.3674  1.2836
16202TIP3   OH270096   0.616   0.574   5.169  0.6028  0.3210  0.0027
16202TIP3    H170097   0.548   0.577   5.237 -0.5549 -1.2709 -1.0003
16202TIP3    H270098   0.572   0.609   5.091  1.4296  0.6966 -0.3006
16203TIP3   OH270099   5.778   0.151  11.038  0.0358  0.7009 -0.1781
16203TIP3    H170100   5.746   0.210  10.970  0.4018 -0.5134 -1.4618
16203TIP3    H270101   5.822   0.081  10.990  1.2370  0.3407  1.3685
16204TIP3   OH270102   2.002   2.284  14.852  0.6105  0.2047 -0.2815
16204TIP3    H170103   2.012   2.235  14.771  1.3424  1.5572 -1.0467
16204TIP3    H270104   2.085   2.330  14.863  0.2420  0.6459  0.8249
16205TIP3   OH270105   1.072   2.768   1.560 -0.0282 -0.4660 -0.3562
16205TIP3    H170106   1.070   2.860   1.534  0.9835 -0.1141  0.7030
16205TIP3    H270107   0.986   2.752   1.597 -0.1063  0.1529 -0.2583
16206TIP3   OH270108   4.017   4.728  11.089  0.2320  0.1421  0.8764
16206TIP3    H170109   4.087   4.669  11.061 -0.6203 -0.0671 -0.9349
16206TIP3    H270110   3.945   4.669  11.114 -0.3133  0.3667 -0.1064
16207TIP3   OH270111   4.188   3.169   4.171 -0.0065  0.6533  0.2948
16207TIP3    H170112   4.159   3.158   4.262 -0.9860  1.2438  0.0655
16207TIP3    H270113   4.212   3.081   4.143  0.0046  0.4149  1.0301
16208TIP3   OH270114   5.474   0.126  16.992  0.0757  0.1846 -0.2619
16208TIP3    H170115   5.398   0.118  17.050  0.0746 -0.7757 -0.3915
16208TIP3    H270116   5.437   0.162  16.911 -0.4603 -1.3475 -0.7273
16209TIP3   OH270117   5.329   1.772  13.841 -0.6310 -0.4545 -0.2477
16209TIP3    H170118   5.346   1.706  13.774 -0.5392 -1.4452  0.7208
16209TIP3    H270119   5.356   1.854  13.801  0.6978 -1.1978 -0.9440
16210TIP3   OH270120   6.671   3.932   3.041 -0.3247  0.0352 -0.0418
16210TIP3    H170121   6.747   3.902   3.091 -1.7602 -1.0144  1.6736
16210TIP3    H270122   6.677   3.885   2.958  0.3338 -0.8681  0.4967
16211TIP3   OH270123   0.113   0.475  13.224  0.2264  0.0524  0.1880
16211TIP3    H170124   0.066   0.513  13.150  0.8697  0.1009 -0.2032
16211TIP3    H270125   0.093   0.382  13.220  2.0976 -0.3557 -1.4741
16212TIP3   OH270126   5.967   0.605   2.291 -0.0053  0.2273  0.5822
16212TIP3    H170127   5.958   0.680   2.233  1.8133  0.3994  0.4701
16212TIP3    H270128   6.044   0.625   2.345  0.3326 -1.4006  0.7733
16213TIP3   OH270129   3.903   1.689   2.222  0.0035  0.7450 -0.2510
16213TIP3    H170130   3.862   1.756   2.168 -1.6837 -0.9738 -1.2423
16213TIP3    H270131   3.829   1.639   2.259  1.1572  0.5115  1.8946
16214TIP3   OH270132   3.890   4.095   3.878  0.0932 -0.4240  0.4431
16214TIP3    H170133   3.923   4.005   3.872  0.9950 -0.0615 -0.3092
16214TIP3    H270134   3.958   4.148   3.836 -0.7370  0.5332  0.2740
16215TIP3   OH270135   0.264   6.107  11.177  0.1889 -0.4700 -0.3130
16215TIP3    H170136   0.273   6.077  11.087 -1.0171 -1.0023 -0.2708
16215TIP3    H270137   0.174   6.140  11.183  0.2617 -0.4120  0.6796
16216TIP3   OH270138   2.164   6.113   0.841  0.5242 -0.1559 -0.7422
16216TIP3    H170139   2.114   6.193   0.825 -1.7101 -1.1776  0.5455
16216TIP3    H270140   2.100   6.053   0.881  2.8640 -1.4888  1.2859
16217TIP3   OH270141   5.007   1.157  16.830  0.7408  0.2054 -0.2259
16217TIP3    H170142   4.958   1.131  16.752  0.1581 -0.2933  0.2936
16217TIP3    H270143   4.962   1.113  16.902  1.7406  0.0224  0.3076
16218TIP3   OH270144   1.640   0.237  17.110  1.0429  0.0033  0.4281
16218TIP3    H170145   1.649   0.311  17.049  0.3011 -0.4801 -0.2772
16218TIP3    H270146   1.729   0.203  17.117  1.1644  0.1267 -0.3198
16219TIP3   OH270147   3.028   2.701  15.722 -0.0423  0.1990  0.4897
16219TIP3    H170148   3.082   2.622  15.711  0.9080  0.4002  3.0933
16219TIP3    H270149   2.952   2.670  15.771 -0.8323  0.4860 -0.5437
16220TIP3   OH270150   4.838   1.105  13.667  0.3347  0.3481  0.0213
16220TIP3    H170151   4.786   1.041  13.717 -1.6456  2.6490  1.1388
16220TIP3    H270152   4.925   1.103  13.708 -0.4474  0.1671  1.7736
16221TIP3   OH270153   2.853   1.750  13.122  0.5261 -0.4276 -0.2437
16221TIP3    H170154   2.861   1.841  13.095 -0.6348  0.2592  1.5240
16221TIP3    H270155   2.766   1.723  13.092  0.4798 -0.6430  0.0738
16222TIP3   OH270156   2.216   3.898   3.236  0.2927 -0.2379 -0.1215
16222TIP3    H170157   2.291   3.953   3.261 -1.3827  3.1422 -1.8848
16222TIP3    H270158   2.190   3.855   3.318  2.5214  0.5221  1.0940
16223TIP3   OH270159   2.632   1.272  14.657 -0.2996 -0.4495  0.1418
16223TIP3    H170160   2.645   1.338  14.589 -1.0349 -0.9899 -0.5353
16223TIP3    H270161   2.593   1.197  14.611 -0.8108 -0.8232  1.1623
16224TIP3   OH270162   3.732   4.760  15.592  0.2538 -1.0034  0.5207
16224TIP3    H170163   3.742   4.835  15.650  0.3336 -1.8543  1.6534
16224TIP3    H270164   3.780   4.689  15.636  1.2533 -1.4108 -1.1310
16225TIP3   OH270165   3.114   2.836   6.482  0.2349 -0.2899 -0.1881
16225TIP3    H170166   3.028   2.810   6.515  0.0952  0.3717 -0.0220
16225TIP3    H270167   3.175   2.810   6.552 -0.0408  0.9446  0.5489
16226TIP3   OH270168   5.955   0.995  13.611 -0.0110 -0.6258  0.1382
16226TIP3    H170169   5.861   0.998  13.630 -0.1900 -1.1486 -0.6085
16226TIP3    H270170   5.993   0.946  13.684 -0.3405 -0.5551  0.3585
16227TIP3   OH270171   2.715   4.497  11.459 -0.2519 -0.3613 -0.6015
16227TIP3    H170172   2.798   4.511  11.414 -1.1652  1.4181 -1.8412
16227TIP3    H270173   2.676   4.421  11.415  0.3967 -0.7848 -0.4577
16228TIP3   OH270174   0.352   0.825  16.100 -0.3344 -0.5114 -0.2294
16228TIP3    H170175   0.321   0.751  16.048 -2.4415  0.6572 -0.7715
16228TIP3    H270176   0.440   0.842  16.068 -0.2993 -1.9757 -0.9754
16229TIP3   OH270177   2.729   1.898  16.708 -0.0158 -0.5546  0.5518
16229TIP3    H170178   2.787   1.858  16.643 -0.6812 -1.8147  0.6980
16229TIP3    H270179   2.643   1.859  16.691 -0.5550  0.3290  1.1537
16230TIP3   OH270180   2.404   5.553  15.458  0.5037 -0.6339 -0.6717
16230TIP3    H170181   2.479   5.571  15.515  0.3402  3.0723 -1.3703
16230TIP3    H270182   2.391   5.458  15.464  3.2560 -0.9898  1.8954
16231TIP3   OH270183   4.365   2.466   3.269 -0.1419 -0.6835 -0.0433
16231TIP3    H170184   4.311   2.424   3.336 -1.2252 -0.1523 -0.5574
16231TIP3    H270185   4.322   2.550   3.252 -0.4187 -1.1884 -2.0415
16232TIP3   OH270186   3.342   2.337  12.377 -0.1696  0.6264  0.3181
16232TIP3    H170187   3.326   2.363  12.286 -0.1807 -0.2680  0.0532
16232TIP3    H270188   3.344   2.242  12.374  0.0752  0.5980  1.2218
16233TIP3   OH270189   5.746   3.770   0.437 -0.2552 -0.5736  0.2799
16233TIP3    H170190   5.802   3.694   0.453 -0.1447 -0.6190 -0.2848
16233TIP3    H270191   5.657   3.740   0.456 -0.5020 -1.5435 -2.0421
16234TIP3   OH270192   5.583   1.069   4.911  0.3764 -0.1011  0.4964
16234TIP3    H170193   5.595   1.155   4.870 -0.7741  0.1263  0.6073
16234TIP3    H270194   5.665   1.054   4.959 -0.1721  1.9368  2.2702
16235TIP3   OH270195   5.980   1.812   4.700 -0.2805  0.1685 -0.4364
16235TIP3    H170196   6.015   1.724   4.688  0.5457  0.3242  0.7312
16235TIP3    H270197   6.057   1.867   4.718 -0.8278  1.0495 -0.6967
16236TIP3   OH270198   2.600   6.578   1.365 -0.3050  0.5217 -0.3023
16236TIP3    H170199   2.636   6.501   1.320 -1.1158  0.6245 -1.1419
16236TIP3    H270200   2.580   6.546   1.454 -0.7897 -0.2844 -0.6897
16237TIP3   OH270201   5.304   3.948   0.904  0.4151  0.4062  0.8069
16237TIP3    H170202   5.264   4.031   0.879  0.0403 -0.0183 -0.0534
16237TIP3    H270203   5.329   3.908   0.821  1.3725  0.0388  1.2634
16238TIP3   OH270204   1.125   3.905   1.643  0.0324  0.1762 -0.0330
16238TIP3    H170205   1.192   3.849   1.682  0.3860 -0.5714 -1.6288
16238TIP3    H270206   1.117   3.979   1.703 -0.1729 -1.3667  1.9389
16239TIP3   OH270207   2.037   5.669  12.274  0.5362 -0.4047 -0.7049
16239TIP3    H170208   2.070   5.603  12.213 -0.0272  1.3392 -3.0358
16239TIP3    H270209   1.972   5.622  12.326  0.8522 -1.9255 -1.6007
16240TIP3   OH270210   0.380   0.622  12.849  0.3569  0.0072  0.2158
16240TIP3    H170211   0.322   0.602  12.775  1.3266  0.2260 -0.6226
16240TIP3    H270212   0.454   0.563  12.838  1.2925  1.1801  0.0496
16241TIP3   OH270213   1.070   1.346  16.904 -0.2394  0.5049  0.5205
16241TIP3    H170214   1.105   1.259  16.925 -1.5614 -0.2275 -0.1649
16241TIP3    H270215   0.980   1.344  16.938 -0.4876  1.3769 -0.0617
16242TIP3   OH270216   6.750   5.984   5.117  0.4310 -0.0249  0.2270
16242TIP3    H170217   6.664   5.962   5.154  0.4352 -0.1470  0.1640
16242TIP3    H270218   6.801   5.903   5.125  0.1677 -0.3046 -0.8268
16243TIP3   OH270219   5.894   4.228   1.360  0.3254  0.1977  0.5356
16243TIP3    H170220   5.852   4.142   1.351  1.0050 -0.0119 -0.7850
16243TIP3    H270221   5.829   4.290   1.328 -0.4590  0.2882  2.1877
16244TIP3   OH270222   5.580   6.280   3.163  0.1261 -0.1037  0.1936
16244TIP3    H170223   5.675   6.281   3.175  0.1305 -0.5555  0.2091
16244TIP3    H270224   5.557   6.372   3.147  0.3427  0.2644  1.8131
16245TIP3   OH270225   1.594   4.682  11.268  0.0023 -0.2391 -0.0837
16245TIP3    H170226   1.526   4.745  11.241 -1.6154 -1.0188  1.8984
16245TIP3    H270227   1.620   4.711  11.355  0.3732 -1.4300  0.2134
16246TIP3   OH270228   3.206   5.947  10.981  0.1179  0.4277 -0.1479
16246TIP3    H170229   3.251   6.030  10.994  1.0635 -0.1875  0.6656
16246TIP3    H270230   3.247   5.909  10.903 -0.2812  0.6877 -0.4911
16247TIP3   OH270231   4.592   4.173   2.852 -0.0299 -0.5469  0.4734
16247TIP3    H170232   4.632   4.148   2.935 -1.9173  0.3504  1.7208
16247TIP3    H270233   4.657   4.228   2.810 -0.0073  1.2377  2.6331
16248TIP3   OH270234   0.858   0.718  15.697 -0.0308  0.2921  0.5360
16248TIP3    H170235   0.795   0.700  15.767 -0.9062 -0.8865 -0.4992
16248TIP3    H270236   0.836   0.806  15.667 -1.9016 -0.4344 -0.4434
16249TIP3   OH270237   1.330   2.315  16.581 -0.4679 -0.4833 -0.3745
16249TIP3    H170238   1.263   2.363  16.629 -0.3257 -1.8769  1.3447
16249TIP3    H270239   1.376   2.264  16.649  1.9068 -0.0728 -1.5687
16250TIP3   OH270240   3.023   0.230   4.898 -0.5222  0.2577  0.2206
16250TIP3    H170241   2.960   0.301   4.887  0.0533  0.7132 -0.1565
16250TIP3    H270242   3.047   0.204   4.809  0.9739  1.1316  0.3253
16251TIP3   OH270243   2.241   1.091  14.203  0.0878  0.8062  0.2827
16251TIP3    H170244   2.259   1.044  14.284 -0.1430  0.1273 -0.0543
16251TIP3    H270245   2.295   1.048  14.137  1.4326  2.3060  0.3354
16252TIP3   OH270246   6.469   2.873   3.224 -0.4187 -0.3067 -0.4277
16252TIP3    H170247   6.519   2.929   3.283 -1.0063 -0.2439  0.0229
16252TIP3    H270248   6.378   2.898   3.239 -0.5452  0.3564 -2.0260
16253TIP3   OH270249   1.720   1.046   2.284  0.3559  0.0328 -0.2135
16253TIP3    H170250   1.713   1.066   2.191  2.9258 -1.6066 -0.8609
16253TIP3    H270251   1.802   0.997   2.292 -0.7201 -1.5237  2.6424
16254TIP3   OH270252   2.302   5.068  10.879 -0.1695  0.7265 -0.2655
16254TIP3    H170253   2.365   5.115  10.933 -0.0271  1.5160 -1.0857
16254TIP3    H270254   2.337   5.075  10.790 -0.6030 -0.1961 -0.5216
16255TIP3   OH270255   3.848   2.922  11.304  0.5917  0.5876 -0.2574
16255TIP3    H170256   3.881   2.842  11.345 -0.3313 -0.2198 -1.0299
16255TIP3    H270257   3.845   2.902  11.211 -3.1153  0.1092 -0.2053
16256TIP3   OH270258   4.895   4.892  15.264 -0.4876 -0.0596 -0.2211
16256TIP3    H170259   4.895   4.955  15.192 -1.4762  0.8308  0.5213
16256TIP3    H270260   4.920   4.944  15.341  1.5750 -1.2003 -0.0520
16257TIP3   OH270261   5.616   2.128   2.812  0.4501 -0.1011 -0.4223
16257TIP3    H170262   5.697   2.078   2.819 -0.2183 -1.0021  1.4457
16257TIP3    H270263   5.622   2.193   2.882 -1.1928 -1.3994  1.0276
16258TIP3   OH270264   1.173   3.115   1.751 -0.0600  0.4889 -0.2007
16258TIP3    H170265   1.081   3.102   1.725  0.6867 -0.5664 -2.6000
16258TIP3    H270266   1.186   3.054   1.824 -0.9981 -0.1200 -0.5197
16259TIP3   OH270267   1.431   1.834   5.707 -0.1267 -0.4200 -0.0632
16259TIP3    H170268   1.341   1.807   5.689 -0.2119 -0.3797  0.2878
16259TIP3    H270269   1.481   1.805   5.631 -0.4182 -0.5446 -0.2077
16260TIP3   OH270270   2.659   3.344  12.940 -0.8455  0.0550 -0.6595
16260TIP3    H170271   2.590   3.354  12.873 -0.7762 -1.7961 -1.0411
16260TIP3    H270272   2.739   3.327  12.890 -0.2796  1.1452 -0.1692
16261TIP3   OH270273   3.320   6.361   4.003 -0.5091 -0.7626  0.4273
16261TIP3    H170274   3.409   6.352   4.037 -0.6342 -2.9974  0.2942
16261TIP3    H270275   3.264   6.336   4.076 -1.0263 -0.0671  0.2804
16262TIP3   OH270276   2.634   3.253  16.213  0.2458  0.6560  0.5899
16262TIP3    H170277   2.622   3.281  16.122  1.9438  1.5367  0.5853
16262TIP3    H270278   2.549   3.219  16.240 -0.1590 -0.0852 -1.4814
16263TIP3   OH270279   0.223   1.410  13.619 -0.3105  0.6877  0.0484
16263TIP3    H170280   0.231   1.386  13.711  0.7200 -0.3487 -0.2907
16263TIP3    H270281   0.224   1.505  13.618 -0.3894  0.7034  1.1026
16264TIP3   OH270282   2.177   5.791  11.611  0.2580 -0.6152  0.1680
16264TIP3    H170283   2.181   5.732  11.687 -1.5709 -2.6312 -1.1675
16264TIP3    H270284   2.197   5.735  11.536  0.6627  1.0149 -0.9956
16265TIP3   OH270285   6.504   4.787   6.096 -0.1474 -0.1002  0.0556
16265TIP3    H170286   6.486   4.702   6.055  0.4480 -0.2474  0.0863
16265TIP3    H270287   6.600   4.791   6.102 -0.0175  1.5379 -1.9838
16266TIP3   OH270288   3.460   1.106   5.016  0.0332  0.1555  0.6150
16266TIP3    H170289   3.537   1.094   5.073 -0.4691  0.2940  1.3333
16266TIP3    H270290   3.485   1.176   4.957  1.1212 -0.9764 -0.3257
16267TIP3   OH270291   2.435   0.864  12.521  0.5020 -0.2296  0.7549
16267TIP3    H170292   2.514   0.909  12.492  1.0121 -0.8828  1.0921
16267TIP3    H270293   2.464   0.775  12.540 -0.7811 -1.1821 -1.4083
16268TIP3   OH270294   5.851   4.314  15.794 -0.3573 -0.3284  0.1974
16268TIP3    H170295   5.884   4.372  15.725  0.6733  0.8965  1.6504
16268TIP3    H270296   5.870   4.226  15.763  0.7799  0.2239 -0.7595
16269TIP3   OH270297   3.634   2.460  12.743 -0.3682 -0.9822 -0.2207
16269TIP3    H170298   3.609   2.488  12.655  0.0818  1.0256  0.2355
16269TIP3    H270299   3.555   2.476  12.796  0.0146 -0.1340  0.1174
16270TIP3   OH270300   2.858   2.818   1.459 -0.2729  0.3535 -0.0605
16270TIP3    H170301   2.854   2.746   1.521  0.6618  0.0920 -0.2934
16270TIP3    H270302   2.907   2.887   1.504  0.5498  0.1023 -0.5582
16271TIP3   OH270303   0.888   4.466   2.913 -0.1013 -0.0922 -0.0243
16271TIP3    H170304   0.898   4.547   2.962 -1.2625 -0.7372  1.3868
16271TIP3    H270305   0.797   4.466   2.883  0.7940  0.7081 -3.1116
16272TIP3   OH270306   1.540   4.286   4.337  0.4020 -0.1981  0.4548
16272TIP3    H170307   1.571   4.260   4.423 -1.6492  0.5034  1.4802
16272TIP3    H270308   1.464   4.230   4.320  0.4289  0.0667 -0.6348
16273TIP3   OH270309   4.047   4.502  12.903 -0.0957 -0.0583 -0.1415
16273TIP3    H170310   4.113   4.457  12.956  0.0640 -1.1184 -1.1915
16273TIP3    H270311   3.977   4.438  12.894 -0.4680  0.4012 -0.5445
16274TIP3   OH270312   5.532   4.438  11.054 -0.8973  0.4470  0.1812
16274TIP3    H170313   5.521   4.362  11.112 -3.4953  0.6670  0.1255
16274TIP3    H270314   5.581   4.501  11.106  0.0313 -0.7142  0.7643
16275TIP3   OH270315   4.844   6.718  16.614  0.0524  0.4544 -0.2915
16275TIP3    H170316   4.938   6.705  16.598  0.0047 -2.7632  1.3254
16275TIP3    H270317   4.839   6.802  16.660  1.8721  1.6299 -2.0805
16276TIP3   OH270318   2.322   4.567  15.031  0.8368  0.1291 -0.0560
16276TIP3    H170319   2.246   4.622  15.013 -0.1803  0.1348  3.5065
16276TIP3    H270320   2.323   4.503  14.960 -0.2872  2.2634 -2.1490
16277TIP3   OH270321   5.841   2.108   2.097 -0.0892  0.3099  0.1399
16277TIP3    H170322   5.765   2.163   2.116 -0.3347  0.2646 -0.6800
16277TIP3    H270323   5.837   2.094   2.003  0.5935 -0.2067  0.1843
16278TIP3   OH270324   5.410   3.762   0.264  0.1721  0.3475  0.4144
16278TIP3    H170325   5.325   3.803   0.282 -0.1673 -0.4604  0.7144
16278TIP3    H270326   5.390   3.693   0.200  0.8770  1.2027 -0.7611
16279TIP3   OH270327   0.260   5.638   4.302 -0.2849  0.2530 -0.0534
16279TIP3    H170328   0.338   5.687   4.328 -0.8040  0.9538  0.2224
16279TIP3    H270329   0.240   5.583   4.378  0.6438 -0.8616 -0.5837
16280TIP3   OH270330   0.222   6.807   0.148 -0.1482 -0.1125 -0.4642
16280TIP3    H170331   0.236   6.773   0.060 -1.3854 -2.6572  0.2203
16280TIP3    H270332   0.128   6.826   0.151  0.5052  4.1403 -0.9428
16281TIP3   OH270333   5.937   6.735  16.388 -0.2410 -0.5214  0.0283
16281TIP3    H170334   6.019   6.694  16.413  0.3874  0.0286 -1.0321
16281TIP3    H270335   5.947   6.827  16.413  0.8712  0.3153 -3.0143
16282TIP3   OH270336   2.736   1.523   3.418 -0.0489 -0.2529 -0.1476
16282TIP3    H170337   2.649   1.487   3.401 -1.9765  3.1117  1.6251
16282TIP3    H270338   2.796   1.449   3.404 -3.3496 -3.3518  0.7856
16283TIP3   OH270339   4.341   0.089   1.439  0.4431  0.1638  0.4129
16283TIP3    H170340   4.311   0.153   1.375 -0.9123 -1.1390 -0.3306
16283TIP3    H270341   4.407   0.038   1.393 -0.6328 -0.8636 -0.0368
16284TIP3   OH270342   4.626   6.105  12.159  0.5278  0.2452  0.1509
16284TIP3    H170343   4.544   6.155  12.152 -0.3162 -0.9379  1.1635
16284TIP3    H270344   4.677   6.133  12.083 -1.5136 -0.2009 -1.4850
16285TIP3   OH270345   3.240   4.292   2.905  0.3050  0.4371 -0.6174
16285TIP3    H170346   3.235   4.344   2.824 -1.2282 -1.0230 -1.5452
16285TIP3    H270347   3.291   4.215   2.880  1.3247  0.7818  0.3380
16286TIP3   OH270348   3.698   0.464   0.106 -0.8980  0.2792 -0.1624
16286TIP3    H170349   3.686   0.526   0.178 -2.7403 -0.1745 -0.0268
16286TIP3    H270350   3.621   0.476   0.051 -1.5184 -2.1032  0.0573
16287TIP3   OH270351   4.178   3.894  14.367  0.5500  0.2964  0.4776
16287TIP3    H170352   4.117   3.912  14.439 -1.2670 -0.2309 -0.8467
16287TIP3    H270353   4.182   3.976  14.318 -2.1134 -0.6015 -1.5090
16288TIP3   OH270354   3.221   0.591  12.414 -0.1624  0.6600  0.4145
16288TIP3    H170355   3.170   0.538  12.352 -0.7829  0.1696  1.3181
16288TIP3    H270356   3.293   0.626  12.362 -1.0241  0.7909 -0.7401
16289TIP3   OH270357   5.679   1.847  15.126 -0.6037 -0.7791 -0.3443
16289TIP3    H170358   5.607   1.900  15.158 -0.0735 -1.0980  1.5319
16289TIP3    H270359   5.707   1.796  15.203  1.3522 -0.9419 -1.1073
16290TIP3   OH270360   3.636   0.294  11.154 -0.4395  0.4211 -0.2032
16290TIP3    H170361   3.603   0.355  11.220 -1.3785 -0.8331  0.5201
16290TIP3    H270362   3.623   0.340  11.071  0.9472  2.1120  0.4458
16291TIP3   OH270363   3.315   1.770   2.980  0.0483 -0.1279  0.0060
16291TIP3    H170364   3.244   1.818   2.938 -1.7546 -2.3234  0.3210
16291TIP3    H270365   3.271   1.714   3.044  2.3815  0.4682  2.2603
16292TIP3   OH270366   3.109   4.156   2.379  0.2005 -0.8587 -0.6716
16292TIP3    H170367   3.108   4.168   2.284 -1.4580 -2.4075 -0.9234
16292TIP3    H270368   3.094   4.062   2.391  0.0551 -0.6434  1.1292
16293TIP3   OH270369   2.239   2.032   0.998 -0.1654  0.4384 -0.4486
16293TIP3    H170370   2.277   2.114   1.029 -0.0877  0.4356 -0.5352
16293TIP3    H270371   2.295   1.964   1.036 -0.1773  0.4286 -0.4487
16294TIP3   OH270372   6.723   5.145  14.028  0.3316 -0.4830  0.5561
16294TIP3    H170373   6.721   5.105  13.941  0.0595  0.5166  0.0858
16294TIP3    H270374   6.812   5.128  14.060  0.5860 -0.4490 -0.1141
16295TIP3   OH270375   3.840   5.260  13.101 -0.3963 -0.0448  0.0972
16295TIP3    H170376   3.852   5.218  13.016  1.3458 -0.0323  0.2921
16295TIP3    H270377   3.761   5.220  13.136 -0.7742 -0.5310 -1.2508
16296TIP3   OH270378   1.623   5.927   5.234  0.5827 -0.3603  0.1158
16296TIP3    H170379   1.671   5.995   5.185  0.6209  1.3528  2.3965
16296TIP3    H270380   1.594   5.971   5.314 -0.6829 -2.6792  1.0097
16297TIP3   OH270381   1.711   5.602  14.396  0.0131 -0.2610 -0.5759
16297TIP3    H170382   1.652   5.527  14.393 -0.3686 -0.1313  1.7945
16297TIP3    H270383   1.795   5.566  14.424 -0.0924  0.1178  0.2695
16298TIP3   OH270384   3.107   0.523   4.127  0.5527  0.1929  0.1665
16298TIP3    H170385   3.038   0.502   4.064  0.4876  0.7265  0.0545
16298TIP3    H270386   3.179   0.464   4.104  0.0172 -0.6047  0.5063
16299TIP3   OH270387   2.805   6.193   6.749 -0.1626 -0.5611  0.0180
16299TIP3    H170388   2.824   6.285   6.765  2.1176 -0.6470 -1.7026
16299TIP3    H270389   2.710   6.189   6.744 -0.2891  1.8913 -0.8514
16300TIP3   OH270390   1.476   4.766  16.699 -0.2432  0.3199  0.0912
16300TIP3    H170391   1.500   4.828  16.768 -2.3947  0.3897  0.8577
16300TIP3    H270392   1.536   4.692  16.711 -0.7326  0.2068  2.2813
16301TIP3   OH270393   6.307   3.879   1.503 -0.8938  0.1605 -0.1569
16301TIP3    H170394   6.326   3.806   1.444 -1.0583  0.4564 -0.5854
16301TIP3    H270395   6.329   3.957   1.452 -1.9077  0.4606 -0.1549
16302TIP3   OH270396   1.424   5.730   5.631 -0.4321  0.6777 -0.1698
16302TIP3    H170397   1.410   5.779   5.712 -1.5772 -1.6352  1.1420
16302TIP3    H270398   1.516   5.707   5.632 -0.6931 -0.3784  1.1420
16303TIP3   OH270399   5.581   4.230  14.951  0.0278 -0.1692 -0.9558
16303TIP3    H170400   5.522   4.260  15.020 -0.0695 -1.4420 -0.4464
16303TIP3    H270401   5.555   4.279  14.874 -0.8212  0.2528 -0.4203
16304TIP3   OH270402   5.396   4.514   4.449  0.4076  0.6059  0.1563
16304TIP3    H170403   5.452   4.564   4.389  1.2527  2.3212  2.2217
16304TIP3    H270404   5.417   4.550   4.535 -0.9344 -1.5677  1.4622
16305TIP3   OH270405   5.107   0.939  12.106 -0.2537 -0.8969  0.5062
16305TIP3    H170406   5.072   0.882  12.175  0.0888 -0.8051  0.7636
16305TIP3    H270407   5.181   0.889  12.069  0.6296 -0.2604  1.3504
16306TIP3   OH270408   0.349   0.116  16.594 -0.0196 -0.0905 -0.1699
16306TIP3    H170409   0.444   0.120  16.602 -0.0417 -0.3012  0.2569
16306TIP3    H270410   0.331   0.134  16.502  0.5376 -1.8923 -0.6703
16307TIP3   OH270411   3.876   1.992  12.672  0.4143 -0.1462  0.2407
16307TIP3    H170412   3.801   1.959  12.721  0.7889  2.3259  2.7164
16307TIP3    H270413   3.847   2.076  12.636  1.7080  0.4389  0.5164
16308TIP3   OH270414   4.674   1.352  15.341 -0.0044  0.1742  0.2366
16308TIP3    H170415   4.598   1.379  15.291  0.7718  2.0914  0.0244
16308TIP3    H270416   4.640   1.289  15.405 -1.8281  1.2810  0.3981
16309TIP3   OH270417   2.394   1.251  14.801  0.0930  0.0091  0.3886
16309TIP3    H170418   2.435   1.170  14.831 -0.9835 -1.2204 -1.2146
16309TIP3    H270419   2.460   1.293  14.747 -0.0313 -0.9295 -0.5325
16310TIP3   OH270420   2.969   6.614  16.717  0.6657 -0.4730 -0.0038
16310TIP3    H170421   3.028   6.546  16.686 -0.6588 -0.6844 -2.2647
16310TIP3    H270422   2.978   6.685  16.653  1.7048  1.4056  2.0648
16311TIP3   OH270423   2.248   6.100  12.426 -0.2081 -0.1816  0.2421
16311TIP3    H170424   2.315   6.162  12.396  1.1640 -2.2785 -1.2364
16311TIP3    H270425   2.216   6.058  12.346 -2.5154 -0.0620  1.0326
16312TIP3   OH270426   3.375   5.314  14.679  0.0489 -0.7172 -0.2579
16312TIP3    H170427   3.380   5.343  14.770  1.0037  0.4803 -0.6680
16312TIP3    H270428   3.295   5.355  14.645  0.6378  0.2850 -0.4414
16313TIP3   OH270429   5.334   2.612  11.144  0.1730  0.3648 -0.4902
16313TIP3    H170430   5.333   2.705  11.120 -0.6589  0.0301 -1.8542
16313TIP3    H270431   5.384   2.569  11.075 -0.1706 -0.3175 -0.3238
16314TIP3   OH270432   3.387   6.276  12.667  0.2619  0.1707  0.2778
16314TIP3    H170433   3.304   6.287  12.620  0.4890  0.7366  0.0049
16314TIP3    H270434   3.451   6.324  12.614  0.7124 -0.0359  0.6317
16315TIP3   OH270435   4.490   6.186   3.014  0.3085 -0.6520  0.9550
16315TIP3    H170436   4.459   6.160   3.101 -0.1944 -1.7651  0.4598
16315TIP3    H270437   4.412   6.214   2.968  0.4414 -0.8929  0.5796
16316TIP3   OH270438   0.542   5.584   5.021  0.1769  0.1297  0.4316
16316TIP3    H170439   0.528   5.636   5.099 -0.2494  1.0782 -0.2572
16316TIP3    H270440   0.542   5.648   4.949  1.3311 -0.6145 -0.2726
16317TIP3   OH270441   4.304   2.222  16.714  0.8400 -0.3754  0.3965
16317TIP3    H170442   4.308   2.291  16.779  0.1800  0.3430 -0.2896
16317TIP3    H270443   4.380   2.236  16.658  0.5912 -0.0568  0.1305
16318TIP3   OH270444   2.878   4.752  15.831 -0.4182  0.0827  0.1400
16318TIP3    H170445   2.793   4.719  15.861 -1.1046  0.5150 -1.2545
16318TIP3    H270446   2.942   4.705  15.884 -1.5602  1.5637  3.0318
16319TIP3   OH270447   4.774   3.059  12.732 -0.3409 -0.0468  0.1149
16319TIP3    H170448   4.757   3.110  12.812 -2.6354  1.6491 -1.3228
16319TIP3    H270449   4.809   3.123  12.670 -1.7001 -0.5179 -1.2165
16320TIP3   OH270450   1.379   4.947   2.611  0.4154 -0.0852 -0.2173
16320TIP3    H170451   1.307   4.886   2.624  1.9104 -1.4221  3.1602
16320TIP3    H270452   1.354   5.024   2.662  1.2812 -0.5759  1.0122
16321TIP3   OH270453   4.338   0.059  11.744 -0.7892 -0.2994 -0.0145
16321TIP3    H170454   4.266   0.082  11.803 -0.6741 -2.3066  0.9858
16321TIP3    H270455   4.379   0.143  11.723 -0.4064  0.4956  3.3642
16322TIP3   OH270456   5.329   0.194   1.465  0.0613  0.0869  0.0486
16322TIP3    H170457   5.335   0.149   1.381 -2.5959 -2.0468  0.8494
16322TIP3    H270458   5.373   0.136   1.527  1.0740  1.1366  0.3529
16323TIP3   OH270459   1.282   1.021  11.770 -0.5779  0.7422  0.0776
16323TIP3    H170460   1.366   0.986  11.798 -0.1974  0.6903 -1.0480
16323TIP3    H270461   1.303   1.107  11.734 -0.7031  0.0713 -1.7404
16324TIP3   OH270462   3.717   3.789   1.182  0.3366  0.2630  0.3390
16324TIP3    H170463   3.645   3.735   1.214 -0.8080  0.0009 -2.4302
16324TIP3    H270464   3.678   3.875   1.167  1.0776  0.6399  0.5100
16325TIP3   OH270465   0.870   1.715   4.100  0.4388  0.4836 -0.6111
16325TIP3    H170466   0.963   1.694   4.102  0.0502 -1.5564 -1.1847
16325TIP3    H270467   0.852   1.734   4.008  0.3541  1.2644 -0.4376
16326TIP3   OH270468   5.393   0.594  17.155 -0.1041 -0.0484  0.1396
16326TIP3    H170469   5.399   0.590  17.251 -0.0177  0.3801  0.1548
16326TIP3    H270470   5.481   0.572  17.125  0.5500  2.1039  0.2451
16327TIP3   OH270471   6.366   0.844  12.670 -0.5052 -0.4102  0.1683
16327TIP3    H170472   6.342   0.907  12.602  0.9500  1.3039  1.1496
16327TIP3    H270473   6.445   0.801  12.636  2.2471  2.7515  1.8869
16328TIP3   OH270474   4.115   6.419   6.567 -0.1062  0.2420  0.3624
16328TIP3    H170475   4.207   6.410   6.542  0.1500 -0.9731  1.6359
16328TIP3    H270476   4.116   6.484   6.638 -0.3706  0.9346 -0.2516
16329TIP3   OH270477   4.142   5.190  15.768  0.0594  0.2726  0.0650
16329TIP3    H170478   4.228   5.200  15.809  0.1240  2.2510 -0.4732
16329TIP3    H270479   4.080   5.211  15.838 -0.0047 -0.8869  0.3773
16330TIP3   OH270480   0.537   4.312  17.017  0.0741 -0.1452 -0.1167
16330TIP3    H170481   0.612   4.361  17.052  1.0219 -0.2583 -1.9170
16330TIP3    H270482   0.531   4.235  17.074  0.9546  0.1491  0.4028
16331TIP3   OH270483   6.632   1.415   4.967 -1.1096 -0.4914 -0.3861
16331TIP3    H170484   6.716   1.450   4.998 -0.6326 -2.1375  0.2624
16331TIP3    H270485   6.590   1.490   4.924  0.0948  0.7158  0.4520
16332TIP3   OH270486   1.247   0.383   2.715  0.2602 -0.3153 -0.6043
16332TIP3    H170487   1.293   0.312   2.760 -0.4967 -0.6826 -0.3957
16332TIP3    H270488   1.303   0.459   2.727 -0.3804 -0.1442  1.8833
16333TIP3   OH270489   1.601   2.629  12.846  0.8825 -0.1724 -0.0369
16333TIP3    H170490   1.591   2.679  12.765  0.5003  1.6370  1.0837
16333TIP3    H270491   1.530   2.565  12.844 -0.5891  1.4000 -0.0618
16334TIP3   OH270492   0.378   5.108  15.676 -0.3651 -0.0353 -0.3875
16334TIP3    H170493   0.365   5.179  15.613 -1.5902 -0.9967 -1.2605
16334TIP3    H270494   0.460   5.067  15.651 -0.5745 -0.0673 -1.0335
16335TIP3   OH270495   6.767   5.705  11.511  0.4591 -0.3104  0.4138
16335TIP3    H170496   6.672   5.710  11.519  0.0230  0.5468 -3.3530
16335TIP3    H270497   6.784   5.617  11.477  0.7596  0.1968 -0.8028
16336TIP3   OH270498   5.189   0.052  16.861  0.6358 -0.3791  0.2819
16336TIP3    H170499   5.251   0.111  16.818  0.5852 -1.0895 -0.7884
16336TIP3    H270500   5.126   0.111  16.904  0.3528  0.3657 -1.1033
16337TIP3   OH270501   1.301   4.336   2.437 -0.5664  0.3244  0.0096
16337TIP3    H170502   1.263   4.418   2.405 -0.8260  0.9238  1.7748
16337TIP3    H270503   1.360   4.309   2.367 -0.8134  1.7815 -0.8054
16338TIP3   OH270504   5.152   6.464  14.285 -0.5539  0.7364  0.3122
16338TIP3    H170505   5.145   6.509  14.369 -0.4770  2.6779 -0.6614
16338TIP3    H270506   5.156   6.534  14.220 -0.0006 -0.6846 -1.2838
16339TIP3   OH270507   2.233   6.109  15.840  0.1437 -0.2251  0.2364
16339TIP3    H170508   2.228   6.079  15.931 -0.5584  0.6848  0.5235
16339TIP3    H270509   2.141   6.111  15.811  0.0607  2.2331  0.4713
16340TIP3   OH270510   6.482   1.613  10.662 -0.0503 -0.1943 -0.3246
16340TIP3    H170511   6.528   1.530  10.651 -0.4836 -0.3228 -1.3486
16340TIP3    H270512   6.394   1.596  10.629 -0.8837  0.0317  1.6516
16341TIP3   OH270513   6.706   0.206   3.001  0.2712 -0.0762  0.1362
16341TIP3    H170514   6.764   0.198   3.077 -0.5750  0.8442  0.8985
16341TIP3    H270515   6.620   0.222   3.038  0.2228  2.8108 -1.0082
16342TIP3   OH270516   1.147   6.709   6.085 -0.5451  0.1752 -0.1134
16342TIP3    H170517   1.167   6.616   6.099 -0.6725  0.2039  0.2645
16342TIP3    H270518   1.141   6.746   6.173  4.0925  1.5466 -0.0889
16343TIP3   OH270519   0.155   4.029  15.622  0.1549 -0.0707 -1.1422
16343TIP3    H170520   0.173   4.099  15.559 -0.0089  0.8353 -0.1988
16343TIP3    H270521   0.074   3.990  15.591  0.6652 -0.3818 -2.1311
16344TIP3   OH270522   1.246   1.864   0.423  0.1626  0.1160  0.5169
16344TIP3    H170523   1.308   1.795   0.397  0.1803  0.0198  0.8137
16344TIP3    H270524   1.298   1.944   0.422 -0.1851  0.3608 -1.2125
16345TIP3   OH270525   4.706   5.753   4.319  0.1908  0.6129 -0.3504
16345TIP3    H170526   4.761   5.824   4.350  2.1449 -0.7090 -0.6195
16345TIP3    H270527   4.758   5.709   4.252 -2.0080  0.4781 -2.1001
16346TIP3   OH270528   3.237   6.241   3.752 -0.2329  0.0843 -0.1828
16346TIP3    H170529   3.230   6.156   3.796 -2.5696  0.2791 -0.0270
16346TIP3    H270530   3.277   6.299   3.817  0.2083 -0.6012  0.1648
16347TIP3   OH270531   6.478   6.271  15.090 -0.7889 -0.7068 -0.3998
16347TIP3    H170532   6.502   6.327  15.016  1.0038 -1.0676 -0.1556
16347TIP3    H270533   6.385   6.287  15.104 -1.2971 -0.9751 -3.0249
16348TIP3   OH270534   2.071   4.123  16.863 -0.6981 -0.1758  0.3280
16348TIP3    H170535   2.052   4.074  16.943  0.9648 -0.8359  0.3486
16348TIP3    H270536   2.127   4.196  16.891 -0.5857 -0.0718 -0.1451
16349TIP3   OH270537   3.726   2.948   4.941 -0.3410  0.4852 -0.3074
16349TIP3    H170538   3.789   2.895   4.990  1.0294  0.6397 -1.8354
16349TIP3    H270539   3.653   2.961   5.002  1.1562  0.4377  1.5753
16350TIP3   OH270540   6.150   3.398  13.182  0.5694 -0.1620  0.0936
16350TIP3    H170541   6.137   3.327  13.119  0.3143 -0.0998  0.0724
16350TIP3    H270542   6.103   3.370  13.261 -0.4431  0.4360 -0.2640
16351TIP3   OH270543   3.343   5.870  10.740  0.3588 -0.2831  0.3575
16351TIP3    H170544   3.365   5.951  10.695  0.8868  0.3021  1.6230
16351TIP3    H270545   3.324   5.808  10.670  0.5992  0.7461 -0.6421
16352TIP3   OH270546   6.719   0.841  17.067  0.2583 -0.1596  0.5259
16352TIP3    H170547   6.749   0.774  17.005 -2.8713  0.7698 -2.2762
16352TIP3    H270548   6.787   0.909  17.062  0.3786 -0.3595 -1.5580
16353TIP3   OH270549   6.216   4.818  13.053 -0.0544  0.4189 -0.1614
16353TIP3    H170550   6.228   4.872  12.975 -0.6979  0.6183 -0.1307
16353TIP3    H270551   6.297   4.828  13.103 -0.4944  2.0503  0.2734
16354TIP3   OH270552   6.210   0.120  14.674  0.6408  0.2506  0.4824
16354TIP3    H170553   6.302   0.125  14.648  0.2265  1.3942 -0.9347
16354TIP3    H270554   6.188   0.208  14.704  0.6408 -0.6345  3.3263
16355TIP3   OH270555   3.453   0.524  13.080 -0.0891  0.2851  0.3905
16355TIP3    H170556   3.407   0.466  13.020  0.9098  0.1006 -0.2311
16355TIP3    H270557   3.430   0.612  13.050 -2.5847  0.3158  2.0819
16356TIP3   OH270558   1.072   2.839   3.684  0.8795 -0.4426 -0.0582
16356TIP3    H170559   1.099   2.873   3.770  1.3338 -0.0958 -0.3365
16356TIP3    H270560   1.112   2.753   3.679 -2.1346 -2.1319  1.6386
16357TIP3   OH270561   3.332   4.036  15.913  0.6939  0.7652  0.5404
16357TIP3    H170562   3.249   3.988  15.917  0.8190  0.6107  2.4851
16357TIP3    H270563   3.311   4.116  15.866 -0.2270  0.1179 -0.1815
16358TIP3   OH270564   2.119   0.109   5.600  1.0888 -0.3870  0.3218
16358TIP3    H170565   2.090   0.066   5.681  0.8926 -0.0295  0.4420
16358TIP3    H270566   2.186   0.170   5.628  0.2606  0.5291  0.3696
16359TIP3   OH270567   2.586   5.080   1.111 -0.0959  0.0210 -0.6861
16359TIP3    H170568   2.502   5.071   1.066 -0.1456  0.0795 -0.6065
16359TIP3    H270569   2.584   5.012   1.178 -0.0974  0.0500 -0.6567
16360TIP3   OH270570   2.045   4.138   0.409  0.2136 -0.5981  0.1962
16360TIP3    H170571   1.955   4.140   0.376  0.7299 -0.0608 -1.2603
16360TIP3    H270572   2.089   4.209   0.362  1.6893 -1.5880  0.0171
16361TIP3   OH270573   1.896   4.220   4.445  0.2056  0.6054 -0.5292
16361TIP3    H170574   1.961   4.275   4.402  2.4167  0.0108  1.7975
16361TIP3    H270575   1.924   4.130   4.425 -1.4679  0.2724 -1.5979
16362TIP3   OH270576   4.437   0.327  14.994 -0.3590 -0.6315 -0.4877
16362TIP3    H170577   4.417   0.410  15.037  0.5878 -1.2506  1.2657
16362TIP3    H270578   4.532   0.328  14.983 -0.3872 -1.3014 -0.8611
16363TIP3   OH270579   1.391   6.530   2.911 -1.0177 -0.1366  0.0080
16363TIP3    H170580   1.373   6.560   3.000  0.3430  0.4391  0.1089
16363TIP3    H270581   1.476   6.486   2.918 -1.1317 -0.5102 -0.9160
16364TIP3   OH270582   0.023   3.944  14.974 -0.0690 -0.3118  1.0044
16364TIP3    H170583  -0.049   3.995  14.936  1.4518  0.7641 -0.5969
16364TIP3    H270584  -0.012   3.910  15.056 -1.4876  2.5303  1.6843
16365TIP3   OH270585   5.548   6.268  14.361 -0.0521  0.6020 -0.6720
16365TIP3    H170586   5.458   6.259  14.330 -0.9820  0.2719  1.8829
16365TIP3    H270587   5.585   6.180  14.352 -0.8465  0.1018  0.5487
16366TIP3   OH270588   4.661   1.148  13.212 -0.2991  0.1689  0.6943
16366TIP3    H170589   4.709   1.179  13.289  2.8762 -0.7551 -0.7189
16366TIP3    H270590   4.709   1.070  13.185 -1.6555  0.1347 -1.8920
16367TIP3   OH270591   6.274   6.122  16.314  0.0062  0.3862  0.0545
16367TIP3    H170592   6.189   6.086  16.287  0.5310  0.0558 -1.1910
16367TIP3    H270593   6.283   6.093  16.405 -0.5707 -0.8101 -0.2465
16368TIP3   OH270594   5.623   4.433  15.191  1.1221 -0.3743 -0.2036
16368TIP3    H170595   5.534   4.402  15.175  1.1607 -0.2856 -0.5976
16368TIP3    H270596   5.657   4.454  15.104  1.2086  0.4560  0.0216
16369TIP3   OH270597   2.114   2.979  11.059  0.1016 -0.0637 -0.3684
16369TIP3    H170598   2.182   3.045  11.074 -0.9547  0.6679  1.5336
16369TIP3    H270599   2.103   2.936  11.144 -0.7613 -1.2054 -1.0245
16370TIP3   OH270600   2.950   4.447   3.362  0.2394 -0.5958 -0.1542
16370TIP3    H170601   2.866   4.423   3.324  0.9884 -3.3827 -0.2511
16370TIP3    H270602   3.003   4.475   3.288 -0.5120  1.1162 -0.1001
16371TIP3   OH270603   3.202   4.554   6.259  0.1096  0.0811  0.3114
16371TIP3    H170604   3.289   4.589   6.239  0.1354  0.6078  1.2727
16371TIP3    H270605   3.176   4.600   6.339 -1.2056  0.1940 -0.1551
16372TIP3   OH270606   2.222   1.839   1.838  0.0015  0.2067 -0.1418
16372TIP3    H170607   2.314   1.842   1.812 -0.1874 -0.8312 -1.0261
16372TIP3    H270608   2.205   1.747   1.856 -0.4165  0.6350  1.8105
16373TIP3   OH270609   1.602   1.439   6.374  0.2297 -0.1571  0.2394
16373TIP3    H170610   1.682   1.490   6.362 -0.1534  0.4215  0.1184
16373TIP3    H270611   1.615   1.362   6.319  0.7367 -0.1089  0.2827
16374TIP3   OH270612   3.128   3.999  14.570  0.1700  0.2851  0.3827
16374TIP3    H170613   3.217   4.014  14.537  0.8492  0.0207  1.9919
16374TIP3    H270614   3.136   3.921  14.625 -1.2515 -0.2406 -0.1219
16375TIP3   OH270615   2.769   1.602  14.805 -0.2705 -0.1146  0.1453
16375TIP3    H170616   2.757   1.682  14.755  0.8708 -0.3376 -0.5278
16375TIP3    H270617   2.833   1.626  14.873 -0.5957 -0.2300  0.4965
16376TIP3   OH270618   6.493   4.265  11.054  0.0238 -0.1078 -0.0673
16376TIP3    H170619   6.565   4.211  11.085 -0.6227  0.3399  2.4440
16376TIP3    H270620   6.480   4.330  11.122 -0.2688  2.2794 -2.2515
16377TIP3   OH270621   6.679   5.380   5.242 -0.2633  0.1177 -0.1309
16377TIP3    H170622   6.761   5.336   5.219  0.1408  0.1382  1.1874
16377TIP3    H270623   6.631   5.315   5.295 -0.3032  0.7242  0.5982
16378TIP3   OH270624   0.363   3.973  14.796  0.2379 -0.1502  0.1882
16378TIP3    H170625   0.337   3.897  14.849  0.7908 -0.8924 -0.5707
16378TIP3    H270626   0.402   3.934  14.717 -1.1437  0.9003 -1.0845
16379TIP3   OH270627   3.761   5.049   0.046  0.1647  0.1741 -0.1319
16379TIP3    H170628   3.826   4.986   0.016 -1.5513 -0.9839 -1.6190
16379TIP3    H270629   3.719   5.007   0.121  0.0676  0.2380 -0.1505
16380TIP3   OH270630   5.038   4.471  11.931 -0.7926 -0.2185 -0.3012
16380TIP3    H170631   5.041   4.567  11.930 -1.4342 -0.1682 -2.4087
16380TIP3    H270632   4.946   4.450  11.948 -0.9308 -0.4088 -1.2302
16381TIP3   OH270633   4.383   2.730   4.797 -0.2422 -0.0684 -0.6541
16381TIP3    H170634   4.317   2.798   4.787  1.4948  1.8127  0.0101
16381TIP3    H270635   4.413   2.712   4.708 -0.4209  0.3581 -0.8019
16382TIP3   OH270636   0.763   1.488   4.605  0.2431 -0.1887 -0.2424
16382TIP3    H170637   0.786   1.540   4.528 -1.1452 -0.6509 -1.0108
16382TIP3    H270638   0.819   1.522   4.674  1.3688  0.4055 -1.3888
16383TIP3   OH270639   2.039   5.210  10.754 -0.2072 -0.0048 -0.7855
16383TIP3    H170640   2.050   5.115  10.757 -0.9146 -0.0824 -0.0650
16383TIP3    H270641   1.945   5.222  10.737 -0.4315  0.5346  0.6457
16384TIP3   OH270642   6.768   2.018  11.583 -0.0712  0.6664  0.1193
16384TIP3    H170643   6.800   1.928  11.585 -0.3250  0.5886  1.5276
16384TIP3    H270644   6.699   2.017  11.516 -0.6015 -0.3701  0.6662
16385TIP3   OH270645   4.343   0.123  15.304  0.3497  0.2408 -0.1782
16385TIP3    H170646   4.279   0.087  15.241  1.6659 -0.0831 -1.3841
16385TIP3    H270647   4.423   0.075  15.286  0.7015 -0.0797  2.0185
16386TIP3   OH270648   0.625   0.150   0.237 -0.0841  0.2994  0.3451
16386TIP3    H170649   0.663   0.231   0.271 -0.9758  0.5500  0.7513
16386TIP3    H270650   0.624   0.163   0.142  1.7103 -0.1039  0.2226
16387TIP3   OH270651   1.769   3.137  15.691 -0.1855 -0.6245  0.3117
16387TIP3    H170652   1.805   3.160  15.777 -1.2620 -2.0828  1.2043
16387TIP3    H270653   1.707   3.207  15.671 -0.4001 -0.6008  1.0382
16388TIP3   OH270654   1.550   4.872   4.938  0.3577 -0.1527  0.3858
16388TIP3    H170655   1.508   4.862   5.023  0.9321 -0.4889  0.6357
16388TIP3    H270656   1.499   4.939   4.893 -1.0400 -1.2447  0.2952
16389TIP3   OH270657   2.083   2.600  14.309 -0.4147  0.2902 -0.3644
16389TIP3    H170658   2.144   2.624  14.240 -0.3111  0.9677 -0.0449
16389TIP3    H270659   2.037   2.681  14.329 -0.5613  0.0605  0.2416
16390TIP3   OH270660   1.436   3.921  12.035 -0.2092 -0.1100 -0.1807
16390TIP3    H170661   1.525   3.956  12.025 -0.8802  1.2911 -1.7148
16390TIP3    H270662   1.434   3.845  11.978  0.5711 -1.3766  1.4078
16391TIP3   OH270663   0.210   1.948   1.361 -0.0019  0.7397  0.2912
16391TIP3    H170664   0.253   1.937   1.446 -1.6346 -0.4438  1.0270
16391TIP3    H270665   0.117   1.941   1.380 -0.4406  1.0686 -1.5290
16392TIP3   OH270666   2.169   6.351  13.800 -0.3564 -0.4022 -0.0758
16392TIP3    H170667   2.232   6.278  13.794  0.9626  0.6533  0.4699
16392TIP3    H270668   2.193   6.409  13.728  0.6504  1.0108  1.3499
16393TIP3   OH270669   5.634   2.739  11.895 -0.6782  0.0710 -0.7547
16393TIP3    H170670   5.668   2.818  11.852  0.6338 -0.3263 -0.4898
16393TIP3    H270671   5.665   2.745  11.985 -2.4442  0.3219 -0.1340
16394TIP3   OH270672   4.651   4.431  12.725  0.0214  0.8061 -0.5402
16394TIP3    H170673   4.680   4.483  12.800 -0.9203  0.5727 -0.0029
16394TIP3    H270674   4.691   4.345  12.739 -1.7323  0.1432  0.7912
16395TIP3   OH270675   4.724   6.448   6.253 -0.3098  0.0082 -0.3316
16395TIP3    H170676   4.634   6.449   6.220 -0.2104  0.2262 -0.5948
16395TIP3    H270677   4.747   6.355   6.254 -0.4011 -0.0197 -0.6358
16396TIP3   OH270678   5.083   2.073  16.832 -0.6772  0.2002 -0.2658
16396TIP3    H170679   5.142   2.103  16.763 -1.1348  0.1073 -0.7027
16396TIP3    H270680   5.078   1.978  16.820  0.9540 -0.1246  1.2566
16397TIP3   OH270681   1.086   4.821  15.614 -0.0877 -0.3631 -0.3886
16397TIP3    H170682   1.068   4.747  15.673 -0.1727 -0.4057 -0.4658
16397TIP3    H270683   1.176   4.846  15.634 -0.6244  0.6543  0.8745
16398TIP3   OH270684   3.598   4.047   0.429 -0.0372 -0.2461 -0.3117
16398TIP3    H170685   3.558   4.031   0.515 -1.0359  1.7194 -0.3583
16398TIP3    H270686   3.671   3.985   0.425 -0.7896 -1.3190  1.3760
16399TIP3   OH270687   5.742   2.182  13.435  0.0539  0.0980 -0.3550
16399TIP3    H170688   5.743   2.088  13.418  0.2489  0.0210  0.0745
16399TIP3    H270689   5.690   2.192  13.515  1.2309  0.2098  0.4229
16400TIP3   OH270690   1.206   4.715  16.619 -0.2173 -0.5612 -0.6649
16400TIP3    H170691   1.200   4.619  16.612  0.5274 -0.8358  1.6493
16400TIP3    H270692   1.294   4.731  16.652 -0.4851  0.9105 -0.6042
16401TIP3   OH270693   4.025   4.028  14.610  0.0417 -0.6153  0.5782
16401TIP3    H170694   3.973   4.067  14.680  2.5280  0.8518  1.7495
16401TIP3    H270695   4.027   3.935  14.630 -0.9214 -0.4989  1.2859
16402TIP3   OH270696   6.491   6.265  12.682  0.4092 -0.2457 -0.4860
16402TIP3    H170697   6.433   6.334  12.712 -2.3696 -1.8420 -1.7702
16402TIP3    H270698   6.521   6.294  12.595  0.5348  0.0146 -0.3576
16403TIP3   OH270699   3.470   5.695  13.538 -0.4665  0.7738 -0.1963
16403TIP3    H170700   3.453   5.630  13.470 -2.6509  2.3140 -1.2372
16403TIP3    H270701   3.477   5.644  13.619 -0.8009 -0.8369 -1.1427
16404TIP3   OH270702   0.527   5.496   3.389  0.4144 -0.1471 -0.0908
16404TIP3    H170703   0.470   5.537   3.324  2.4914  0.1425 -1.8498
16404TIP3    H270704   0.489   5.410   3.403 -1.9804  0.9774  0.9430
16405TIP3   OH270705   4.716   4.620   3.427  0.2852 -0.2165 -0.4623
16405TIP3    H170706   4.754   4.708   3.436 -0.3211  0.0390 -0.3513
16405TIP3    H270707   4.655   4.613   3.500 -1.3656  0.1566 -1.7505
16406TIP3   OH270708   1.120   2.159  13.408  0.2844  0.5047  0.1047
16406TIP3    H170709   1.038   2.206  13.423 -0.5867 -0.7611 -0.5561
16406TIP3    H270710   1.098   2.067  13.421  1.8181  0.1955  0.7751
16407TIP3   OH270711   1.456   0.797   1.140 -0.8209  0.3133  0.4493
16407TIP3    H170712   1.405   0.870   1.174  0.8255  1.4516  0.5600
16407TIP3    H270713   1.541   0.805   1.182  0.3992  0.1486 -1.8424
16408TIP3   OH270714   1.220   2.945   1.957  0.0726 -0.5254 -0.3140
16408TIP3    H170715   1.152   2.960   2.023  0.0642  0.0934 -0.4649
16408TIP3    H270716   1.296   2.995   1.988 -0.0469  0.0634 -0.9559
16409TIP3   OH270717   3.959   6.134   1.083  0.4948  1.0435 -0.4609
16409TIP3    H170718   3.890   6.068   1.074  1.9147 -0.3720 -1.7526
16409TIP3    H270719   3.940   6.198   1.015 -1.3393  2.4905  1.3046
16410TIP3   OH270720   4.659   3.781   3.887 -0.1089 -0.1365  0.0696
16410TIP3    H170721   4.745   3.772   3.929  0.4240  2.6525 -0.1965
16410TIP3    H270722   4.597   3.749   3.953  1.0101 -0.3685  1.0563
16411TIP3   OH270723   1.409   6.715   2.707  0.5127 -0.6841  0.2228
16411TIP3    H170724   1.418   6.652   2.779 -1.4260 -0.7739  0.4449
16411TIP3    H270725   1.322   6.698   2.671  1.7630 -1.2056 -2.7507
16412TIP3   OH270726   1.538   0.952   3.728 -0.1671  0.5170  0.1661
16412TIP3    H170727   1.632   0.939   3.714 -0.1750  1.2423 -0.6801
16412TIP3    H270728   1.506   0.985   3.643 -0.5272  3.7983  1.4189
16413TIP3   OH270729   2.551   4.340   1.750  0.1502 -0.2825 -0.3369
16413TIP3    H170730   2.534   4.254   1.712  0.2790 -0.3470 -0.2527
16413TIP3    H270731   2.646   4.342   1.763 -0.0687 -0.9877  1.6710
16414TIP3   OH270732   4.938   3.037   4.926  0.4883 -0.0148 -0.1466
16414TIP3    H170733   5.021   2.991   4.912  1.4282  1.3983  0.5724
16414TIP3    H270734   4.932   3.047   5.021  0.2734  1.2646 -0.2769
16415TIP3   OH270735   1.005   1.506   3.266  0.1527  0.2465 -0.2389
16415TIP3    H170736   1.089   1.465   3.245 -0.2111 -0.4820 -0.3131
16415TIP3    H270737   0.988   1.565   3.193  1.1861  1.3449  0.3761
16416TIP3   OH270738   2.569   2.454   4.398 -0.2415 -0.0616 -0.1248
16416TIP3    H170739   2.481   2.484   4.373 -0.3624  1.7096  2.0188
16416TIP3    H270740   2.627   2.488   4.330 -0.9095  1.5386  0.0635
16417TIP3   OH270741   1.433   3.061   1.632  0.3716  0.4621  0.0786
16417TIP3    H170742   1.449   3.142   1.584 -0.2839  0.3347 -0.3718
16417TIP3    H270743   1.351   3.076   1.678  0.5404  0.2614  0.4448
16418TIP3   OH270744   0.188   4.219   5.901 -0.7802 -0.4512  1.0744
16418TIP3    H170745   0.176   4.125   5.915  0.5549 -0.5699  1.5855
16418TIP3    H270746   0.244   4.225   5.824  0.2184 -0.1487  1.7952
16419TIP3   OH270747   6.092   3.829   6.161  0.1278 -0.3160  0.6000
16419TIP3    H170748   6.010   3.782   6.145 -0.3519  1.3817 -2.8839
16419TIP3    H270749   6.066   3.922   6.160  2.0414  0.2671 -0.8968
16420TIP3   OH270750   2.931   0.791   1.582  0.1076  0.2709 -0.2045
16420TIP3    H170751   2.994   0.856   1.612  1.6429 -0.7747 -1.0168
16420TIP3    H270752   2.899   0.749   1.662  0.7981  0.5050  0.1951
16421TIP3   OH270753   0.880   6.482   0.805  0.1246 -0.5573 -0.7224
16421TIP3    H170754   0.934   6.413   0.844 -0.8991 -1.0235 -0.0868
16421TIP3    H270755   0.837   6.440   0.731  2.4404  0.4534 -2.7788
16422TIP3   OH270756   5.467   2.704   1.925 -0.8052  0.1194 -0.7766
16422TIP3    H170757   5.504   2.791   1.942 -1.1092 -0.0649  0.9162
16422TIP3    H270758   5.539   2.654   1.886 -0.3897  0.8666 -0.9913
16423TIP3   OH270759   1.886   0.414  14.622 -0.0080  0.6248 -0.1845
16423TIP3    H170760   1.819   0.453  14.565  0.2358 -0.2257 -1.0876
16423TIP3    H270761   1.889   0.322  14.595  1.5285  0.6507 -0.1766
16424TIP3   OH270762   3.388   5.861  17.253  0.1444  0.0260 -0.4645
16424TIP3    H170763   3.425   5.782  17.213 -1.7778 -0.9549 -0.3893
16424TIP3    H270764   3.317   5.887  17.194 -0.9642  0.1428  0.8723
16425TIP3   OH270765   5.392   0.295   3.044 -0.4768  0.1909 -0.2180
16425TIP3    H170766   5.431   0.210   3.060  1.6922  1.3860  1.5141
16425TIP3    H270767   5.416   0.317   2.954 -1.6908 -1.2790 -0.9358
16426TIP3   OH270768   3.885   4.326  15.769 -0.1156  0.3014 -0.1039
16426TIP3    H170769   3.952   4.392  15.786 -0.8380  1.1592 -0.5248
16426TIP3    H270770   3.916   4.248  15.816  0.4216  1.1258  0.9567
16427TIP3   OH270771   2.531   1.081  16.173  0.0844 -0.5231 -0.0848
16427TIP3    H170772   2.439   1.075  16.146 -0.6375  0.2563  2.0577
16427TIP3    H270773   2.566   1.152  16.120 -0.1579 -1.6538 -1.8465
16428TIP3   OH270774   3.228   6.173   0.808  0.6002  0.0265  0.4951
16428TIP3    H170775   3.195   6.136   0.726  2.1833 -0.8411  0.2202
16428TIP3    H270776   3.321   6.186   0.793  1.5411 -2.6497  2.9944
16429TIP3   OH270777   3.363   5.071  10.938  0.2596 -0.4394  0.1786
16429TIP3    H170778   3.336   5.045  10.850  0.4476 -1.2933  0.3582
16429TIP3    H270779   3.329   5.160  10.949  2.8780  0.9586 -1.9013
16430TIP3   OH270780   1.149   1.490   2.563 -0.3352 -0.2433 -0.2192
16430TIP3    H170781   1.229   1.436   2.561 -1.2510 -1.6281 -0.6662
16430TIP3    H270782   1.144   1.528   2.476  1.0244  1.7355  0.4801
16431TIP3   OH270783   5.133   3.766  13.798  0.0444  0.3969  0.2583
16431TIP3    H170784   5.039   3.780  13.796 -0.0210 -0.0252  0.2741
16431TIP3    H270785   5.157   3.748  13.707  0.0584  0.1934  0.3011
16432TIP3   OH270786   3.887   0.222  14.087 -0.5929  0.2726 -0.0092
16432TIP3    H170787   3.840   0.285  14.141  0.8383  0.5288  1.0020
16432TIP3    H270788   3.865   0.246  13.997  0.4145  2.6575  0.3027
16433TIP3   OH270789   3.560   6.430  13.732  0.2150 -0.3775  0.1129
16433TIP3    H170790   3.648   6.458  13.708  1.2138 -2.1173  1.5163
16433TIP3    H270791   3.517   6.411  13.649  1.3547 -0.0537 -0.5695
16434TIP3   OH270792   3.367   3.035  16.450 -0.1684 -0.3214  0.2268
16434TIP3    H170793   3.280   2.997  16.461  0.4612 -1.6375  1.0188
16434TIP3    H270794   3.363   3.118  16.498 -0.8252 -0.6328  0.7356
16435TIP3   OH270795   1.976   0.177  12.684  0.3218  0.4081  0.2209
16435TIP3    H170796   1.982   0.269  12.708 -2.5216  0.1188  2.5864
16435TIP3    H270797   2.015   0.129  12.757  2.6406 -0.3723 -1.3929
16436TIP3   OH270798   6.176   2.325  13.342 -0.0782  0.6741 -0.4795
16436TIP3    H170799   6.086   2.319  13.310  0.3958 -0.1725 -1.7671
16436TIP3    H270800   6.196   2.236  13.372  0.1501  0.9984  0.3628
16437TIP3   OH270801   5.518   2.458   4.138 -0.2367 -0.7145 -0.7165
16437TIP3    H170802   5.461   2.386   4.112  0.7141 -2.0787  0.7848
16437TIP3    H270803   5.479   2.492   4.219 -0.2449 -0.0582 -0.9900
16438TIP3   OH270804   3.407   0.634   5.015  0.1091 -0.2969  0.0275
16438TIP3    H170805   3.453   0.579   4.952  1.3328  0.1691  0.4839
16438TIP3    H270806   3.383   0.712   4.966 -0.9100 -0.8673 -0.4111
16439TIP3   OH270807   3.818   0.209  12.400  0.2462  0.3164  0.2303
16439TIP3    H170808   3.901   0.252  12.419  0.9255 -1.2778  0.9787
16439TIP3    H270809   3.816   0.203  12.304  1.4883 -0.5646  0.2448
16440TIP3   OH270810   2.939   0.796  12.485  0.5286  0.5071  0.0467
16440TIP3    H170811   3.008   0.811  12.420  0.3664  1.8492  0.1720
16440TIP3    H270812   2.961   0.855  12.557 -0.3088  0.3485  0.4367
16441TIP3   OH270813   3.656   5.458   6.379  0.0469  0.3553  0.2570
16441TIP3    H170814   3.680   5.387   6.439  1.1289  0.8349  0.4132
16441TIP3    H270815   3.563   5.473   6.396  0.7825  2.1183  3.6727
16442TIP3   OH270816   2.181   3.438  15.808  0.1372 -0.1259  0.8731
16442TIP3    H170817   2.092   3.439  15.844  0.4426  0.0938  1.6465
16442TIP3    H270818   2.189   3.351  15.769 -0.8721  0.3315 -0.4174
16443TIP3   OH270819   1.546   2.438  16.430  0.2125  0.1816  0.1108
16443TIP3    H170820   1.474   2.392  16.473 -0.1095  1.0839  0.5452
16443TIP3    H270821   1.509   2.470  16.348  0.3356  0.0145 -0.0135
16444TIP3   OH270822   4.262   0.908  14.318 -0.4834  0.1367  0.1385
16444TIP3    H170823   4.180   0.858  14.318 -0.1735 -0.4500 -1.6558
16444TIP3    H270824   4.255   0.965  14.242  0.5733  0.4247  0.2415
16445TIP3   OH270825   4.853   0.259  15.824 -0.0726  0.1099 -0.2008
16445TIP3    H170826   4.856   0.183  15.882 -0.3288  0.9657  0.9735
16445TIP3    H270827   4.927   0.313  15.851 -0.4545  0.7277 -0.3529
16446TIP3   OH270828   1.739   4.614   1.466  0.8253 -0.1966  0.8126
16446TIP3    H170829   1.788   4.532   1.478  1.5584  0.4751  2.8865
16446TIP3    H270830   1.648   4.590   1.482  0.5876 -1.1793 -1.6649
16447TIP3   OH270831   5.595   6.480   4.746  0.6620 -0.0381 -0.5745
16447TIP3    H170832   5.501   6.472   4.764  0.3452  0.9060 -1.6538
16447TIP3    H270833   5.637   6.418   4.805 -0.5093  0.8261  1.2352
16448TIP3   OH270834   4.807   6.018   0.740 -0.4026  0.0406  0.3648
16448TIP3    H170835   4.829   5.927   0.721  2.3998  0.6546  0.1945
16448TIP3    H270836   4.717   6.015   0.773 -0.2399 -2.8193  0.7794
16449TIP3   OH270837   3.803   6.560   2.628 -0.0680  0.3772 -0.5265
16449TIP3    H170838   3.886   6.569   2.581 -0.5914  2.0728 -1.2136
16449TIP3    H270839   3.746   6.511   2.569  0.8459 -2.1354  0.5613
16450TIP3   OH270840   0.114   3.392  11.707  0.0547  0.5021 -0.0185
16450TIP3    H170841   0.109   3.298  11.723 -0.5156  0.1113 -2.1243
16450TIP3    H270842   0.139   3.430  11.791  1.5272 -1.6300  0.5783
16451TIP3   OH270843   3.386   5.040  13.694  0.2375 -0.2373 -0.6997
16451TIP3    H170844   3.376   4.946  13.681 -2.6928 -0.1068 -0.1505
16451TIP3    H270845   3.358   5.054  13.785  2.1162  1.0272 -0.2586
16452TIP3   OH270846   1.461   0.581   2.725  0.1300 -0.2863  0.3260
16452TIP3    H170847   1.477   0.626   2.808 -0.3676  1.9015 -0.6861
16452TIP3    H270848   1.540   0.530   2.709  0.1871 -0.8367  2.1765
16453TIP3   OH270849   4.517   3.717   4.110 -0.0981 -0.3233 -0.9666
16453TIP3    H170850   4.460   3.774   4.162  0.0259 -1.2624  0.2650
16453TIP3    H270851   4.569   3.671   4.176 -0.9181 -2.6306 -1.8373
16454TIP3   OH270852   2.820   6.406   5.875 -0.0664 -0.0273  0.5794
16454TIP3    H170853   2.773   6.441   5.799 -2.5725 -0.1737  1.9643
16454TIP3    H270854   2.775   6.444   5.951 -0.5593 -3.2718  2.0820
16455TIP3   OH270855   2.998   0.734  14.751  0.0500  1.1639  0.0934
16455TIP3    H170856   3.060   0.680  14.700 -0.8276  1.6704 -1.5995
16455TIP3    H270857   2.961   0.794  14.687 -2.3254  0.7721  0.9920
16456TIP3   OH270858   6.789   0.231   0.189 -0.0462 -0.0723 -0.0957
16456TIP3    H170859   6.700   0.252   0.161  0.0636 -0.5324 -0.8008
16456TIP3    H270860   6.806   0.144   0.155  0.5335 -0.1592  0.3829
16457TIP3   OH270861   5.770   0.327  13.059 -0.0937  0.0621 -0.5741
16457TIP3    H170862   5.855   0.359  13.089 -1.2023  2.2660  0.4226
16457TIP3    H270863   5.717   0.324  13.139 -1.5821  0.8527 -1.5031
16458TIP3   OH270864   4.383   4.636   2.947  0.1140 -0.0002  0.3418
16458TIP3    H170865   4.420   4.574   2.884 -1.5317 -2.3820  1.5257
16458TIP3    H270866   4.454   4.696   2.968  1.5189 -0.8964 -1.6241
16459TIP3   OH270867   4.704   1.665   2.267  0.3376  0.1035 -0.0227
16459TIP3    H170868   4.797   1.663   2.242  0.5053 -0.7240  0.6178
16459TIP3    H270869   4.685   1.758   2.279  1.0657  0.2901 -0.2315
16460TIP3   OH270870   2.775   1.381   2.550  0.0909 -0.1470  0.4298
16460TIP3    H170871   2.817   1.459   2.586 -0.3932  0.0874  0.4854
16460TIP3    H270872   2.769   1.321   2.625  0.6289 -0.3113  0.3447
16461TIP3   OH270873   4.091   3.536   0.133  0.0645  0.1680  0.2589
16461TIP3    H170874   4.014   3.571   0.089  0.1651  0.5830  0.4136
16461TIP3    H270875   4.058   3.463   0.185 -0.2689  0.5134  0.5372
16462TIP3   OH270876   5.343   5.300   2.836  0.2998 -0.3838  0.1972
16462TIP3    H170877   5.375   5.250   2.762 -0.8546 -0.0247 -0.5758
16462TIP3    H270878   5.273   5.246   2.874  0.8271 -0.5316  0.9963
16463TIP3   OH270879   6.273   6.653   3.816 -0.1512  0.0534 -0.4773
16463TIP3    H170880   6.281   6.564   3.782 -0.0647 -0.7479  1.4973
16463TIP3    H270881   6.298   6.709   3.743 -0.8141 -1.5011 -1.9722
16464TIP3   OH270882   0.302   3.990  13.431 -0.2098 -0.0653 -0.4252
16464TIP3    H170883   0.385   3.946  13.450 -1.0961 -1.6486  0.0293
16464TIP3    H270884   0.327   4.074  13.394  1.5907 -0.1300  0.5228
16465TIP3   OH270885   5.099   3.908   1.231 -0.6189 -0.0965  0.4689
16465TIP3    H170886   5.153   3.984   1.253  0.8591 -1.1326  0.5890
16465TIP3    H270887   5.085   3.914   1.137 -0.2302  0.1452  0.4259
16466TIP3   OH270888   4.868   3.866  15.448 -0.7236 -0.2888  0.1510
16466TIP3    H170889   4.815   3.787  15.451 -2.0722  0.5616 -0.4945
16466TIP3    H270890   4.830   3.919  15.378  0.1926  0.8992  0.5089
16467TIP3   OH270891   0.680   2.662  17.141  0.5097 -0.3547  0.0923
16467TIP3    H170892   0.715   2.733  17.088 -0.1734  1.5085  1.9975
16467TIP3    H270893   0.638   2.603  17.078 -0.1911  1.6972 -1.4699
16468TIP3   OH270894   3.973   4.352   1.534 -0.8559  0.1787  0.2469
16468TIP3    H170895   4.016   4.290   1.592 -0.8268 -1.8854 -1.8729
16468TIP3    H270896   3.890   4.311   1.511 -1.5805  1.6751  0.0116
16469TIP3   OH270897   3.722   3.474  14.337 -0.1683 -0.2365  0.6705
16469TIP3    H170898   3.627   3.484  14.339 -0.0624  1.1341  0.1825
16469TIP3    H270899   3.752   3.513  14.420 -0.0094 -0.2845  0.6368
16470TIP3   OH270900   3.131   3.283  16.984  0.0332  0.6179  0.1230
16470TIP3    H170901   3.073   3.335  17.040  0.8728  0.2554  1.3847
16470TIP3    H270902   3.115   3.315  16.895 -1.7158  0.8648  0.5015
16471TIP3   OH270903   5.016   0.964  11.474  0.0274 -0.3739  0.5448
16471TIP3    H170904   5.062   1.039  11.438  1.4189 -0.3584  2.2257
16471TIP3    H270905   5.029   0.894  11.409 -0.7016  0.5937 -0.6965
16472TIP3   OH270906   0.363   5.882   5.916 -0.2430  0.1405 -0.1964
16472TIP3    H170907   0.276   5.922   5.913 -1.1308 -1.6150  0.4803
16472TIP3    H270908   0.356   5.814   5.982  1.2158 -1.0236 -1.1577
16473TIP3   OH270909   3.652   5.804   3.664  0.7198 -0.2577 -0.3379
16473TIP3    H170910   3.741   5.799   3.699  0.6868 -0.5963 -0.2953
16473TIP3    H270911   3.596   5.810   3.742  0.6828 -0.4411 -0.3484
16474TIP3   OH270912   3.434   2.760   5.907  0.6352 -0.9171  0.6135
16474TIP3    H170913   3.488   2.838   5.893 -0.4426  0.3626  3.0456
16474TIP3    H270914   3.345   2.790   5.891  0.2605 -1.8434  0.9107
16475TIP3   OH270915   2.854   0.975  15.693  0.0496 -0.2615 -0.1274
16475TIP3    H170916   2.819   1.003  15.778 -0.4958  1.1965 -0.7850
16475TIP3    H270917   2.776   0.962  15.639  0.4016 -0.9883 -0.4646
16476TIP3   OH270918   4.597   1.527   1.283 -0.3087  0.1727 -0.6242
16476TIP3    H170919   4.619   1.501   1.373  1.9296  1.1632 -0.8197
16476TIP3    H270920   4.616   1.450   1.231  0.6946  0.3374 -0.5152
16477TIP3   OH270921   5.485   0.887   1.975 -0.2278 -0.1482  0.3997
16477TIP3    H170922   5.391   0.880   1.991 -0.1768  2.2568  2.2723
16477TIP3    H270923   5.494   0.957   1.910  0.2347 -1.8620 -1.4932
16478TIP3   OH270924   1.201   6.437   3.739  0.6319  0.5426  0.1469
16478TIP3    H170925   1.121   6.487   3.750 -0.7117 -1.5795  0.6351
16478TIP3    H270926   1.272   6.501   3.752 -0.9425  2.4863 -0.3978
16479TIP3   OH270927   2.303   6.632   1.528 -0.0661  0.3450 -0.1284
16479TIP3    H170928   2.267   6.569   1.590  0.1524  0.0162 -0.3354
16479TIP3    H270929   2.394   6.605   1.516  0.5796  1.7709  1.1834
16480TIP3   OH270930   5.620   5.552  11.927 -0.3807 -0.0909  0.4014
16480TIP3    H170931   5.664   5.470  11.905  0.6870  0.2634  1.1301
16480TIP3    H270932   5.544   5.524  11.979 -0.3617 -0.6520  0.1363
16481TIP3   OH270933   2.380   4.560   5.828 -0.1420  0.0327  0.5370
16481TIP3    H170934   2.341   4.646   5.843  1.1610  0.4297  1.8818
16481TIP3    H270935   2.446   4.551   5.897  0.8265 -1.3934 -0.5103
16482TIP3   OH270936   5.734   3.280   0.183  0.1715 -0.1020  0.0858
16482TIP3    H170937   5.713   3.255   0.273  1.7568 -0.0735  0.4851
16482TIP3    H270938   5.717   3.201   0.132 -0.2310 -0.2769  0.4818
16483TIP3   OH270939   2.056   4.578   1.326  0.6013 -0.2902 -0.2766
16483TIP3    H170940   1.963   4.595   1.310  0.7200 -0.2633 -0.9486
16483TIP3    H270941   2.058   4.536   1.412 -0.0567 -0.5325 -0.3733
16484TIP3   OH270942   4.161   5.577  10.651 -0.8683 -0.3001  0.5092
16484TIP3    H170943   4.241   5.541  10.688 -0.6144  0.7093  0.9608
16484TIP3    H270944   4.171   5.672  10.658 -0.9226 -0.0460 -1.8844
16485TIP3   OH270945   0.588   1.243   6.067  0.0754  0.2678  0.2755
16485TIP3    H170946   0.578   1.248   6.162  0.6888  1.5786  0.2911
16485TIP3    H270947   0.682   1.228   6.054  0.3415  2.0739 -0.1373
16486TIP3   OH270948   1.047   1.701   1.440 -0.1939  0.4998 -0.1862
16486TIP3    H170949   1.051   1.740   1.528 -0.3978  0.6474 -0.2407
16486TIP3    H270950   0.953   1.689   1.424 -0.1108 -0.4926  0.0367
16487TIP3   OH270951   1.260   0.542   4.696  0.5846  0.4809  0.7804
16487TIP3    H170952   1.354   0.547   4.680  0.5853 -0.6468  0.3268
16487TIP3    H270953   1.238   0.626   4.736  1.6827  0.9752  0.3974
16488TIP3   OH270954   5.206   2.842  13.022  0.2998  0.0884  0.2221
16488TIP3    H170955   5.122   2.887  13.009  0.2841 -0.3518 -1.3231
16488TIP3    H270956   5.200   2.808  13.111 -1.5800 -0.7493 -0.1606
16489TIP3   OH270957   2.532   4.917  14.163  0.5118 -0.1468 -0.1415
16489TIP3    H170958   2.606   4.976  14.156 -0.8787  1.5157 -2.2035
16489TIP3    H270959   2.496   4.933  14.250  1.9434 -0.2396  0.4838
16490TIP3   OH270960   2.677   5.546   3.006  0.7008 -0.2328 -0.0958
16490TIP3    H170961   2.676   5.569   3.099 -2.3298  2.3312 -0.5823
16490TIP3    H270962   2.696   5.628   2.961 -2.9841 -0.0647 -1.7706
16491TIP3   OH270963   4.552   2.193  10.734  0.3730  0.0124  0.2099
16491TIP3    H170964   4.535   2.111  10.779 -0.0030 -0.0672 -0.0777
16491TIP3    H270965   4.622   2.172  10.672  1.5508  0.3397  1.3868
16492TIP3   OH270966   1.402   1.977   1.335  0.9099 -0.4050  0.2199
16492TIP3    H170967   1.379   1.984   1.427 -0.8680 -0.7509 -0.1633
16492TIP3    H270968   1.367   1.893   1.307 -3.6434  1.8361 -2.0000
16493TIP3   OH270969   4.917   0.870  16.803  0.1488  0.3909  0.5875
16493TIP3    H170970   4.828   0.879  16.768  0.0435  0.4053  0.8512
16493TIP3    H270971   4.906   0.879  16.898  0.4257  0.3412  0.6255
16494TIP3   OH270972   0.872   4.382  17.302 -0.2938 -0.3036  0.3083
16494TIP3    H170973   0.870   4.452  17.237 -0.9663  1.0239  1.6675
16494TIP3    H270974   0.825   4.309  17.262  0.9441 -0.2170 -1.3819
16495TIP3   OH270975   0.136   0.108  12.652 -0.4448  0.5623  0.4770
16495TIP3    H170976   0.093   0.111  12.567  0.3257  4.7209  0.0123
16495TIP3    H270977   0.227   0.083  12.633 -0.2343  1.6341  0.0088
16496TIP3   OH270978   4.935   2.994  17.281  0.4518 -0.3771 -0.2949
16496TIP3    H170979   4.967   3.082  17.302  1.1109 -1.0993  1.9853
16496TIP3    H270980   4.846   2.992  17.316  0.1832 -0.4234 -0.9633
16497TIP3   OH270981   1.889   5.183   3.639  0.2474  0.1220  0.5791
16497TIP3    H170982   1.796   5.179   3.664  0.2732 -1.3120  0.5402
16497TIP3    H270983   1.888   5.224   3.553 -0.0276  3.1465  1.8914
16498TIP3   OH270984   3.704   6.145   1.640 -0.1258 -0.2424 -0.2163
16498TIP3    H170985   3.629   6.203   1.637 -1.1406 -1.4802  0.5148
16498TIP3    H270986   3.741   6.157   1.727  1.2940  1.2374 -0.9582
16499TIP3   OH270987   2.414   6.382   1.168 -0.4619 -0.2296 -0.3419
16499TIP3    H170988   2.363   6.463   1.164  0.3511  0.3475  0.4782
16499TIP3    H270989   2.499   6.405   1.131 -0.3453 -0.8136 -0.4512
16500TIP3   OH270990   1.761   0.548   3.987 -0.5008  0.7457  0.8491
16500TIP3    H170991   1.750   0.589   3.901 -1.4243  1.3844  1.2564
16500TIP3    H270992   1.841   0.496   3.978 -0.2799  1.2302 -0.2267
16501TIP3   OH270993   4.186   2.241  11.690 -0.0940 -0.3673 -0.8877
16501TIP3    H170994   4.171   2.230  11.784  0.2349  0.3566 -0.7428
16501TIP3    H270995   4.099   2.258  11.654  0.1078  2.6559 -0.2172
16502TIP3   OH270996   6.349   0.539  14.429 -0.2279 -0.2637 -0.7303
16502TIP3    H170997   6.370   0.592  14.506 -0.9819 -2.8613  1.4134
16502TIP3    H270998   6.423   0.552  14.370 -0.3354  3.0049 -0.3426
16503TIP3   OH270999   5.489   4.827  13.891  0.3082 -0.6671  0.0168
16503TIP3    H171000   5.581   4.829  13.917  0.0967 -2.0121  1.0095
16503TIP3    H271001   5.441   4.831  13.974 -0.5471  0.4801 -0.5163
16504TIP3   OH271002   3.054   5.443   3.458 -0.6920 -0.3993  0.1351
16504TIP3    H171003   3.067   5.378   3.527  1.1136 -0.3422 -0.1057
16504TIP3    H271004   3.143   5.468   3.431 -1.3283  2.1571  0.1870
16505TIP3   OH271005   0.801   1.514  11.673  0.3691 -0.0672 -0.4907
16505TIP3    H171006   0.763   1.597  11.702  0.5772 -0.1503  0.0218
16505TIP3    H271007   0.733   1.475  11.617  0.1718  0.3309 -0.5277
16506TIP3   OH271008   2.410   2.832  13.407  0.2709 -0.0273 -0.2723
16506TIP3    H171009   2.328   2.880  13.405 -0.1752 -0.6756  1.3319
16506TIP3    H271010   2.477   2.899  13.393 -0.4791  0.6088 -0.9048
16507TIP3   OH271011   1.736   0.198  11.399  0.2762 -0.3949  0.1999
16507TIP3    H171012   1.725   0.268  11.464 -1.1824  1.0316 -1.4758
16507TIP3    H271013   1.664   0.138  11.417 -1.9541  1.4771 -1.7283
16508TIP3   OH271014   5.608   4.294   0.766 -0.4126  0.1021 -0.5187
16508TIP3    H171015   5.553   4.255   0.699 -2.3848 -1.2974  1.7452
16508TIP3    H271016   5.697   4.269   0.741 -1.1862 -1.5286 -1.8812
16509TIP3   OH271017   0.349   1.199   0.714  0.0370  0.3009  0.4110
16509TIP3    H171018   0.294   1.200   0.635  0.2695 -1.4399  0.1888
16509TIP3    H271019   0.339   1.287   0.752 -0.1250  1.1603 -1.5116
16510TIP3   OH271020   6.698   2.412   0.386 -0.2723  0.2418 -0.0279
16510TIP3    H171021   6.676   2.502   0.362 -1.4618 -0.2501 -0.8963
16510TIP3    H271022   6.752   2.421   0.464  3.0061  1.9006 -2.2267
16511TIP3   OH271023   5.450   6.690  13.683 -0.1919 -0.2774  0.8072
16511TIP3    H171024   5.482   6.658  13.767 -1.2086 -1.1238  0.8914
16511TIP3    H271025   5.455   6.785  13.690  1.9678 -0.3546  0.9094
16512TIP3   OH271026   4.170   0.466   2.037 -0.1810  0.7761 -0.5262
16512TIP3    H171027   4.089   0.452   2.085  0.0342 -0.1964 -0.4429
16512TIP3    H271028   4.146   0.457   1.945 -0.0903  0.0415 -0.4838
16513TIP3   OH271029   3.409   2.680   2.214 -0.5445  0.3817  0.3518
16513TIP3    H171030   3.349   2.695   2.287 -2.8522 -1.9734 -0.8804
16513TIP3    H271031   3.421   2.585   2.212  0.7409  0.5251 -1.3534
16514TIP3   OH271032   5.340   2.632   0.146 -0.5591 -0.4051 -1.0218
16514TIP3    H171033   5.256   2.588   0.136 -0.9140  0.0229  0.0085
16514TIP3    H271034   5.325   2.721   0.116 -1.0810  0.2953  1.1406
16515TIP3   OH271035   3.539   4.432  15.179  0.2270 -0.5269  0.1794
16515TIP3    H171036   3.617   4.430  15.234 -0.4348 -0.7027  1.1421
16515TIP3    H271037   3.473   4.383  15.229 -1.0177  1.0820  0.1922
16516TIP3   OH271038   6.243   0.360   0.183 -0.0896 -0.3801  0.0754
16516TIP3    H171039   6.227   0.278   0.135  0.9367 -0.4228 -0.2116
16516TIP3    H271040   6.160   0.407   0.177 -0.7763 -1.5024  0.4578
16517TIP3   OH271041   3.973   1.338  16.460  0.3413 -0.7895 -0.4091
16517TIP3    H171042   3.962   1.283  16.537  1.8654 -2.2075 -1.1300
16517TIP3    H271043   4.065   1.365  16.462  0.0666  0.2890 -1.0263
16518TIP3   OH271044   3.476   1.590  15.693  0.0298  0.4912  0.5120
16518TIP3    H171045   3.515   1.589  15.606 -1.1032 -1.5725 -0.0308
16518TIP3    H271046   3.386   1.621  15.678  0.8502  3.8631  1.5568
16519TIP3   OH271047   0.553   2.220   1.681 -0.3574  0.0845 -0.2348
16519TIP3    H171048   0.607   2.295   1.707 -0.0525 -0.4632  0.7602
16519TIP3    H271049   0.584   2.199   1.593 -0.9850  1.5868 -0.8586
16520TIP3   OH271050   6.318   4.028  13.162 -0.4992 -0.0893 -0.5317
16520TIP3    H171051   6.390   3.986  13.114  1.3604  2.0033  0.2419
16520TIP3    H271052   6.289   3.961  13.225  1.4684 -0.7085 -0.1938
16521TIP3   OH271053   0.956   5.332  12.525 -0.4268 -0.6581  0.2895
16521TIP3    H171054   0.953   5.372  12.438  0.7168 -0.9646  0.0870
16521TIP3    H271055   0.879   5.365  12.570  0.4537  1.7580  0.1398
16522TIP3   OH271056   1.259   2.368  15.699 -0.0464 -0.0402  0.6184
16522TIP3    H171057   1.349   2.402  15.695  0.4994 -1.3323  1.3282
16522TIP3    H271058   1.244   2.351  15.792 -1.2282  0.6421  0.5690
16523TIP3   OH271059   4.367   2.645  16.274  0.3780  0.0386 -0.5005
16523TIP3    H171060   4.401   2.636  16.186 -0.1537 -0.3404 -0.6765
16523TIP3    H271061   4.327   2.560  16.293  0.4877  0.1164  0.1000
16524TIP3   OH271062   1.576   6.346  14.455 -0.4195  0.1273  0.8262
16524TIP3    H171063   1.482   6.351  14.473 -0.8607 -2.4571 -0.2711
16524TIP3    H271064   1.592   6.253  14.438  2.0049  0.7428 -0.7969
16525TIP3   OH271065   1.340   6.530   5.080  0.3187  0.4031  0.3231
16525TIP3    H171066   1.348   6.435   5.075 -2.5542  0.1253 -1.1003
16525TIP3    H271067   1.370   6.552   5.168  2.2467 -1.6221  0.2573
16526TIP3   OH271068   0.474   0.035   3.439 -0.6057  0.1857 -0.2654
16526TIP3    H171069   0.422  -0.045   3.449  0.3191 -0.3631  0.3120
16526TIP3    H271070   0.518   0.046   3.524  0.0846  0.7284 -0.6825
16527TIP3   OH271071   5.049   1.401   0.225 -0.0914 -0.3699  0.4246
16527TIP3    H171072   4.954   1.415   0.221 -0.0960 -0.3172  0.7028
16527TIP3    H271073   5.061   1.342   0.299 -0.0472 -1.6838 -0.5942
16528TIP3   OH271074   3.960   4.039  15.900 -0.0012 -0.3200 -0.0606
16528TIP3    H171075   3.892   4.017  15.964  0.3177  1.4877  0.9832
16528TIP3    H271076   3.952   3.973  15.832 -1.2900 -1.4862  1.1649
16529TIP3   OH271077   2.219   4.240   0.117 -0.0263  0.1442 -0.2845
16529TIP3    H171078   2.186   4.295   0.046 -2.1191 -0.0743  0.4512
16529TIP3    H271079   2.227   4.299   0.192  2.7483  0.5100 -0.7602
16530TIP3   OH271080   0.196   3.178  12.472 -0.0858  0.1463 -0.2847
16530TIP3    H171081   0.250   3.125  12.529  1.4225 -1.2117 -2.7865
16530TIP3    H271082   0.118   3.198  12.524  0.2024 -2.7880  1.4863
16531TIP3   OH271083   4.392   6.365   6.457  0.6385 -0.5120  0.5615
16531TIP3    H171084   4.412   6.453   6.426  1.3006 -1.8964 -3.5592
16531TIP3    H271085   4.467   6.342   6.512  0.9780  1.0673  0.8075
16532TIP3   OH271086   5.005   4.638  15.617 -0.4155 -0.3540  0.6759
16532TIP3    H171087   5.038   4.548  15.619  2.6085  0.6543  0.7066
16532TIP3    H271088   4.979   4.652  15.526 -0.8885 -1.2165  0.6637
16533TIP3   OH271089   1.157   1.684   2.335 -0.8991 -0.1529  0.3272
16533TIP3    H171090   1.222   1.721   2.395  0.1613 -1.0809 -0.2132
16533TIP3    H271091   1.190   1.707   2.248 -2.4456  1.2237  0.0752
16534TIP3   OH271092   0.530   4.263  16.741 -0.0832 -0.1784 -0.4428
16534TIP3    H171093   0.551   4.279  16.833 -0.8384 -2.1585  0.1432
16534TIP3    H271094   0.469   4.333  16.717 -0.6654 -0.1962  0.8871
16535TIP3   OH271095   2.191   6.321  14.874 -0.4740 -0.5694  0.5884
16535TIP3    H171096   2.194   6.255  14.944 -1.7974 -1.2465  0.0506
16535TIP3    H271097   2.151   6.398  14.916 -1.5861 -1.0874  0.5223
16536TIP3   OH271098   5.807   2.231  15.368 -0.1834 -0.3279  0.3384
16536TIP3    H171099   5.743   2.161  15.382  0.3609 -1.5409 -2.4992
16536TIP3    H271100   5.889   2.196  15.402  0.2782 -1.5758 -1.8332
16537TIP3   OH271101   1.541   4.870   4.123 -0.2615  0.4808  0.4019
16537TIP3    H171102   1.546   4.851   4.029  1.3795 -0.6865  0.6598
16537TIP3    H271103   1.612   4.933   4.139  0.7885 -0.8293  1.1314
16538TIP3   OH271104   1.786   3.369  17.090 -0.9386 -0.3130 -0.0915
16538TIP3    H171105   1.749   3.450  17.056 -0.5045  0.1292  0.4527
16538TIP3    H271106   1.813   3.391  17.180 -1.0229 -1.1233  0.1370
16539TIP3   OH271107   4.780   0.877   2.896  0.7347  0.0891 -0.2819
16539TIP3    H171108   4.692   0.870   2.931  0.1389  0.4961 -1.6506
16539TIP3    H271109   4.815   0.958   2.934 -1.2499  2.6301 -3.3324
16540TIP3   OH271110   3.525   3.033  12.049  0.4305  0.2495  0.0314
16540TIP3    H171111   3.586   2.980  12.101 -1.4629 -0.9463  1.1565
16540TIP3    H271112   3.508   2.980  11.971 -2.0676 -1.3370  1.5148
16541TIP3   OH271113   4.443   0.347  12.032  0.3955 -0.0259 -0.9699
16541TIP3    H171114   4.364   0.401  12.040  0.2649 -0.3297  0.0116
16541TIP3    H271115   4.420   0.265  12.076  1.6589  0.3415  0.4803
16542TIP3   OH271116   3.898   0.093  14.922 -0.2218  0.2094 -0.1127
16542TIP3    H171117   3.955   0.090  14.844 -0.7552  0.2323 -0.5080
16542TIP3    H271118   3.816   0.129  14.890 -1.5231 -2.5855 -0.2024
16543TIP3   OH271119   5.485   3.638   2.838  0.0896  0.0823 -0.4271
16543TIP3    H171120   5.434   3.694   2.780 -2.2224  0.6888  1.9837
16543TIP3    H271121   5.436   3.556   2.844  0.3427 -0.0227  0.5259
16544TIP3   OH271122   4.209   5.014  11.653  0.0287 -0.3851  0.1623
16544TIP3    H171123   4.149   5.085  11.679 -1.0738 -1.4686  0.6878
16544TIP3    H271124   4.275   5.057  11.599  0.5922  1.3954  2.1723
16545TIP3   OH271125   1.018   6.820   1.732  0.8783  0.1354  0.1162
16545TIP3    H171126   1.075   6.743   1.727  2.4765  1.2954 -0.2694
16545TIP3    H271127   1.037   6.870   1.652 -0.0911  0.9495  0.3725
16546TIP3   OH271128   1.612   6.501  11.263 -0.0051  0.3750  0.1357
16546TIP3    H171129   1.520   6.510  11.286 -0.6252 -2.2448 -0.9735
16546TIP3    H271130   1.649   6.587  11.281 -3.1668  2.3026 -1.5904
16547TIP3   OH271131   1.867   5.023   4.642  0.1118  0.3679 -0.3628
16547TIP3    H171132   1.839   5.020   4.550  0.6997  1.0238 -0.5708
16547TIP3    H271133   1.935   5.090   4.644  0.0877  0.3748  0.5610
16548TIP3   OH271134   5.183   3.016   4.153 -0.2639 -0.4551  0.0335
16548TIP3    H171135   5.141   2.940   4.113 -1.5029  0.1836  0.0533
16548TIP3    H271136   5.174   3.085   4.087  1.7958 -0.5805 -0.4186
16549TIP3   OH271137   0.263   3.738  12.934 -0.1999  0.0068 -0.1205
16549TIP3    H171138   0.328   3.788  12.884  1.4200 -0.6704  1.2129
16549TIP3    H271139   0.258   3.784  13.018 -1.0338 -0.2969  0.0066
16550TIP3   OH271140   6.449   5.190   3.427 -0.4799 -0.0640  0.5033
16550TIP3    H171141   6.366   5.181   3.474 -0.4478  1.1960  0.8527
16550TIP3    H271142   6.501   5.248   3.483  0.4371 -0.4124  0.0270
16551TIP3   OH271143   4.767   4.169  11.160 -0.2584 -0.0912  0.2144
16551TIP3    H171144   4.694   4.113  11.134 -1.5337  1.3664  0.5548
16551TIP3    H271145   4.841   4.137  11.107 -0.2275 -3.6687  2.0776
16552TIP3   OH271146   1.720   2.083  16.719 -0.4341  0.4891  0.7318
16552TIP3    H171147   1.760   1.997  16.733 -0.6074  0.3111  0.1505
16552TIP3    H271148   1.695   2.084  16.627 -2.5142  0.2874  1.2482
16553TIP3   OH271149   6.048   1.619  12.190 -0.2324  0.3714 -0.7959
16553TIP3    H171150   6.124   1.630  12.133  0.3577  1.5956  0.1741
16553TIP3    H271151   6.045   1.700  12.242 -1.5150 -0.1509 -0.0056
16554TIP3   OH271152   2.623   5.804  14.961  0.0322  1.5521  0.3071
16554TIP3    H171153   2.684   5.821  15.033  0.5320 -1.6167  0.7499
16554TIP3    H271154   2.650   5.866  14.893  0.2670  3.8848  2.3579
16555TIP3   OH271155   0.905   6.813  14.844 -0.7474  0.5161  0.1299
16555TIP3    H171156   0.960   6.865  14.786 -0.3503  0.6922  0.6475
16555TIP3    H271157   0.968   6.764  14.898 -1.1072  0.1969  0.2606
16556TIP3   OH271158   1.227   0.789  16.121 -0.5337 -0.1869  0.1745
16556TIP3    H171159   1.168   0.728  16.166  0.3021 -0.6122  0.6993
16556TIP3    H271160   1.236   0.752  16.033  1.3524 -1.8289  0.9950
16557TIP3   OH271161   1.990   1.024   4.013  0.1162  0.3927  0.2782
16557TIP3    H171162   1.967   0.939   3.977  0.3311  0.0565  0.9059
16557TIP3    H271163   1.944   1.027   4.097  2.6715 -0.5217  1.8339
16558TIP3   OH271164   6.366   5.331   5.027 -0.2646 -0.4704  0.0620
16558TIP3    H171165   6.350   5.343   5.121 -0.8902 -2.6451  0.2888
16558TIP3    H271166   6.288   5.287   4.994 -0.2584  0.6727 -1.6116
16559TIP3   OH271167   3.775   5.499  10.539  0.6742 -0.3142  0.1927
16559TIP3    H171168   3.772   5.453  10.455 -2.6253  0.2941 -0.1275
16559TIP3    H271169   3.738   5.585  10.521 -0.0941 -0.1640  2.2613
16560TIP3   OH271170   5.445   2.938   0.043 -0.5090  0.4774  0.3732
16560TIP3    H171171   5.393   2.933  -0.037  0.9039  2.1926 -0.7100
16560TIP3    H271172   5.502   2.861   0.039 -0.0591  0.8495 -0.5663
16561TIP3   OH271173   1.276   1.906   2.148  0.0417 -0.3131 -0.1500
16561TIP3    H171174   1.278   1.983   2.205 -1.2355  0.1360 -0.6619
16561TIP3    H271175   1.288   1.941   2.060 -1.7874 -0.5106 -0.5184
16562TIP3   OH271176   4.381   4.252  13.273  0.2147  0.4929  0.7703
16562TIP3    H171177   4.291   4.271  13.300 -0.3221 -0.5864 -0.1533
16562TIP3    H271178   4.413   4.189  13.338 -0.6271 -1.1084 -0.2919
16563TIP3   OH271179   6.449   2.046   4.660 -0.3889 -0.2586  0.4002
16563TIP3    H171180   6.533   2.003   4.643 -0.0911  0.1843  0.7317
16563TIP3    H271181   6.436   2.103   4.585  1.5685  2.7026  2.1007
16564TIP3   OH271182   0.304   5.433   1.998  0.6287  0.1614 -0.2551
16564TIP3    H171183   0.313   5.430   2.093  0.2823  0.0955 -0.2255
16564TIP3    H271184   0.387   5.471   1.968  0.5885  0.5299  0.0928
16565TIP3   OH271185   3.249   4.438   0.566  0.5770  0.6411  0.1339
16565TIP3    H171186   3.180   4.452   0.630 -0.6489  0.9506 -1.2161
16565TIP3    H271187   3.208   4.388   0.496  2.1530 -0.5667  0.0242
16566TIP3   OH271188   3.070   1.283   0.699  0.0373  0.1164 -0.1547
16566TIP3    H171189   3.025   1.345   0.640 -0.9004 -1.3106 -0.9954
16566TIP3    H271190   3.029   1.298   0.784 -0.4458  0.4069 -0.4279
16567TIP3   OH271191   2.694   5.931  16.803  0.3765 -0.4997  0.1880
16567TIP3    H171192   2.753   5.908  16.875  1.8909  0.9313 -0.5124
16567TIP3    H271193   2.677   5.848  16.758  3.0737 -0.8303 -0.4086
16568TIP3   OH271194   3.219   2.809  12.779  0.1583 -0.0339  0.2058
16568TIP3    H171195   3.133   2.839  12.751  1.1912  2.6424 -0.3890
16568TIP3    H271196   3.246   2.872  12.846  1.5949 -0.8900  0.4711
16569TIP3   OH271197   3.471   0.201   3.144 -0.1962  0.2764  0.5060
16569TIP3    H171198   3.507   0.290   3.148  0.5991  0.0035 -0.2884
16569TIP3    H271199   3.548   0.144   3.135 -0.7967 -0.3505 -0.9788
16570TIP3   OH271200   4.627   2.377   2.801 -0.5402 -0.2938  0.8547
16570TIP3    H171201   4.594   2.327   2.727  1.4303 -1.4260  0.6762
16570TIP3    H271202   4.550   2.420   2.838 -1.6395  0.0297 -1.6180
16571TIP3   OH271203   1.994   4.537   4.527  0.5205  0.1552 -0.0014
16571TIP3    H171204   2.021   4.472   4.462 -0.7740 -0.7586  0.3440
16571TIP3    H271205   1.912   4.573   4.494  1.1011  1.4780 -0.0693
16572TIP3   OH271206   3.060   3.320   4.511  0.7259 -0.2989 -0.2762
16572TIP3    H171207   2.978   3.314   4.462  0.8253  2.5154 -0.9985
16572TIP3    H271208   3.129   3.312   4.445  0.9422 -0.1044 -0.0804
16573TIP3   OH271209   1.247   2.977  12.415 -0.1075  0.9359 -0.5610
16573TIP3    H171210   1.312   2.911  12.387 -2.0451 -0.9924 -0.7615
16573TIP3    H271211   1.189   2.986  12.339  0.0329  2.8620 -0.4921
16574TIP3   OH271212   5.519   3.914   2.145 -0.3559 -0.7235 -0.3632
16574TIP3    H171213   5.594   3.857   2.163  0.2851 -0.1807 -1.1899
16574TIP3    H271214   5.558   3.993   2.107 -1.3945 -0.6853 -1.4162
16575TIP3   OH271215   3.214   2.502  14.017 -0.0338 -0.0759  0.1236
16575TIP3    H171216   3.183   2.472  14.102 -0.4314  0.1207  0.0498
16575TIP3    H271217   3.303   2.532  14.033  0.1673 -0.7617  0.3117
16576TIP3   OH271218   3.353   3.540   0.794  0.2436 -0.4942 -0.3181
16576TIP3    H171219   3.328   3.454   0.760 -1.1239  0.1231 -0.9323
16576TIP3    H271220   3.419   3.572   0.733  2.4040 -1.9678  1.0905
16577TIP3   OH271221   6.446   5.780  15.251  0.2547 -0.3367 -0.0910
16577TIP3    H171222   6.521   5.815  15.300  0.3971  0.3010 -0.7494
16577TIP3    H271223   6.447   5.686  15.270 -0.1414 -0.0215  1.7197
16578TIP3   OH271224   3.256   5.996  10.433 -0.0955 -0.1862  0.6462
16578TIP3    H171225   3.314   6.044  10.492 -1.7869  0.5413  1.7981
16578TIP3    H271226   3.207   5.937  10.491 -2.5288  1.2666  0.2051
16579TIP3   OH271227   3.080   3.972   5.630  0.4505  0.2956  0.2882
16579TIP3    H171228   2.992   3.996   5.659  0.1425  0.3902 -0.6889
16579TIP3    H271229   3.136   4.043   5.663  0.3403 -0.2625  1.7707
16580TIP3   OH271230   3.275   1.368   5.286  0.1810 -0.0185 -0.5306
16580TIP3    H171231   3.282   1.367   5.190 -2.4550  0.2669 -0.8075
16580TIP3    H271232   3.293   1.277   5.312 -0.5007 -0.4366 -1.4540
16581TIP3   OH271233   1.796   5.500  14.942 -0.4180  0.4462  0.1655
16581TIP3    H171234   1.711   5.457  14.948  0.9405 -3.2228 -2.8027
16581TIP3    H271235   1.782   5.576  14.886 -1.9740  0.8151  1.0157
16582TIP3   OH271236   1.897   2.800  14.343  0.0229  0.3128  0.5367
16582TIP3    H171237   1.869   2.740  14.411  0.0676  1.0876  1.2545
16582TIP3    H271238   1.866   2.886  14.372  0.1294  0.6703 -0.3668
16583TIP3   OH271239   2.687   2.569  17.007 -0.3150 -0.0019 -0.4234
16583TIP3    H171240   2.620   2.522  17.056  1.6166 -1.3139  1.1171
16583TIP3    H271241   2.767   2.518  17.022  0.9186  1.1421 -2.6881
16584TIP3   OH271242   3.080   6.276  12.746 -0.1066 -0.1249  0.5927
16584TIP3    H171243   3.135   6.301  12.671  0.2926 -1.7189  0.3173
16584TIP3    H271244   2.998   6.323  12.732  1.2041  2.4983  1.1236
16585TIP3   OH271245   4.083   0.793   3.013 -0.0735  0.2193  0.1442
16585TIP3    H171246   4.040   0.872   2.981 -0.4548 -0.7111 -1.8509
16585TIP3    H271247   4.038   0.721   2.967  0.8803 -1.0745  1.1599
16586TIP3   OH271248   3.348   1.379   1.392 -0.0175 -0.2154 -0.1223
16586TIP3    H171249   3.363   1.290   1.359  0.2107 -0.6327  1.0815
16586TIP3    H271250   3.303   1.367   1.476 -0.6291  0.8348 -0.2785
16587TIP3   OH271251   0.746   1.148  12.973  0.2509  0.7802 -0.0812
16587TIP3    H171252   0.782   1.217  13.028  0.3326  0.1547  0.6692
16587TIP3    H271253   0.684   1.193  12.916 -1.4946  1.1661  1.9836
16588TIP3   OH271254   3.773   2.875   2.504  0.1640  0.0826  0.5019
16588TIP3    H171255   3.833   2.802   2.524  2.1295  0.1312 -4.0352
16588TIP3    H271256   3.686   2.836   2.509  1.0742 -2.2881 -0.5254
16589TIP3   OH271257   3.403   2.214   2.395  0.4299  0.1036 -0.1908
16589TIP3    H171258   3.464   2.214   2.469 -1.4488  0.2526  1.4544
16589TIP3    H271259   3.316   2.217   2.436 -0.6829  0.7670 -2.4372
16590TIP3   OH271260   3.036   5.748  15.571  0.3685 -0.0725  0.0152
16590TIP3    H171261   2.951   5.771  15.533 -0.1092  1.7473  1.9821
16590TIP3    H271262   3.038   5.652  15.571  0.3076 -0.2465 -4.1361
16591TIP3   OH271263   5.519   5.807   5.801 -0.1144  0.6083  0.2974
16591TIP3    H171264   5.572   5.818   5.880  0.0622  1.2740  0.0948
16591TIP3    H271265   5.462   5.884   5.800 -1.7894 -0.5738  1.0300
16592TIP3   OH271266   3.823   3.018  16.587  0.4472 -0.2822  0.1279
16592TIP3    H171267   3.858   2.931  16.570 -0.8414 -0.8506  0.2380
16592TIP3    H271268   3.756   3.031  16.520  0.1630  0.3464  0.5146
16593TIP3   OH271269   2.056   2.216  10.926  0.3162 -0.0542  0.0402
16593TIP3    H171270   2.027   2.141  10.874  0.7997  1.1977 -2.1499
16593TIP3    H271271   2.136   2.186  10.969 -1.0737 -1.7080  1.6288
16594TIP3   OH271272   0.868   5.598   2.788 -0.3463  0.1216 -0.2481
16594TIP3    H171273   0.795   5.658   2.803 -0.8043 -0.1303 -1.3825
16594TIP3    H271274   0.935   5.651   2.746  0.1631  0.3606  0.8225
16595TIP3   OH271275   2.344   3.744   6.670  0.3395  0.3013 -0.7537
16595TIP3    H171276   2.319   3.674   6.730  0.7062 -0.9719 -2.0383
16595TIP3    H271277   2.264   3.765   6.623  0.9672 -1.9384 -3.0093
16596TIP3   OH271278   4.351   0.851  13.322 -0.1616 -0.3015 -0.3666
16596TIP3    H171279   4.256   0.847  13.316 -0.3766  2.4448  0.0929
16596TIP3    H271280   4.382   0.797  13.250 -2.0612 -0.5432 -1.0531
16597TIP3   OH271281   6.799   3.628   1.465 -0.4023  0.0048 -0.2819
16597TIP3    H171282   6.878   3.633   1.411  0.1966 -0.5583  0.5133
16597TIP3    H271283   6.763   3.717   1.463  1.7069  1.0069  1.4480
16598TIP3   OH271284   0.055   2.328   2.290  0.7897 -0.0413 -0.0495
16598TIP3    H171285   0.139   2.322   2.336  0.3767 -0.4905  0.6674
16598TIP3    H271286   0.047   2.421   2.268  0.9528  0.2119  0.8881
16599TIP3   OH271287   4.503   2.743   1.515  0.2953  0.9517  0.9514
16599TIP3    H171288   4.522   2.819   1.570 -0.9509  0.1695  2.5512
16599TIP3    H271289   4.580   2.687   1.525  0.1685  0.9061  1.7690
16600TIP3   OH271290   2.405   3.785   4.827 -0.3018 -0.1273  0.4900
16600TIP3    H171291   2.473   3.789   4.761 -0.6742 -1.7397 -0.0376
16600TIP3    H271292   2.417   3.699   4.868 -0.7932  0.3783  1.7347
16601TIP3   OH271293   2.593   3.579  14.796 -0.0399  0.1139 -0.5561
16601TIP3    H171294   2.513   3.531  14.818 -1.6412  2.8379  0.0352
16601TIP3    H271295   2.651   3.565  14.871 -1.4243  0.9996  0.7318
16602TIP3   OH271296   2.343   3.423  11.756 -0.1783 -0.6709  0.6585
16602TIP3    H171297   2.268   3.437  11.699  0.7206 -1.2509 -0.7287
16602TIP3    H271298   2.322   3.344  11.806 -1.2738  0.2376  1.6852
16603TIP3   OH271299   4.923   0.079   2.302 -0.2345 -0.1188  0.2386
16603TIP3    H171300   4.880   0.042   2.378  0.4153 -5.5957 -1.5933
16603TIP3    H271301   4.852   0.094   2.239 -0.5392  2.5268  1.0914
16604TIP3   OH271302   6.680   1.241   3.193 -0.8825  0.0852  0.3178
16604TIP3    H171303   6.626   1.173   3.235  0.4175 -1.2611 -0.1238
16604TIP3    H271304   6.635   1.260   3.111 -0.0513 -2.0242 -0.7035
16605TIP3   OH271305   3.437   0.102  15.511  0.7898 -0.1381  0.8367
16605TIP3    H171306   3.392   0.176  15.471  0.5203  0.0078  1.4055
16605TIP3    H271307   3.514   0.141  15.553  0.4330 -0.1214  1.4807
16606TIP3   OH271308   5.755   3.748  11.087 -0.2323  0.2903 -0.4214
16606TIP3    H171309   5.771   3.758  10.993 -1.6297  1.1430 -0.6052
16606TIP3    H271310   5.662   3.771  11.098  0.0404  0.7241  1.2352
16607TIP3   OH271311   2.931   4.808  11.285 -0.5428  0.7336 -0.6160
16607TIP3    H171312   2.948   4.817  11.192  0.0595  2.4653 -0.3820
16607TIP3    H271313   3.017   4.801  11.325 -0.8042 -0.2287 -0.1921
16608TIP3   OH271314   5.883   2.349   3.079 -0.1308  0.1611  0.0252
16608TIP3    H171315   5.942   2.385   3.013  1.5778 -3.0861 -0.4140
16608TIP3    H271316   5.795   2.363   3.044  0.3663  3.2262 -0.3007
16609TIP3   OH271317   5.216   0.821   4.046  0.2566  0.4161 -0.5790
16609TIP3    H171318   5.289   0.830   4.106 -0.5673 -1.3072  0.7547
16609TIP3    H271319   5.255   0.786   3.966  0.6593 -3.1487  0.9951
16610TIP3   OH271320   2.524   5.266  11.887 -0.1886  0.3473 -0.8050
16610TIP3    H171321   2.514   5.340  11.827 -4.4059 -0.7784 -1.7730
16610TIP3    H271322   2.502   5.189  11.835 -2.1862 -0.8788  1.6567
16611TIP3   OH271323   1.811   5.235  16.407 -0.6632 -0.2265  0.3293
16611TIP3    H171324   1.788   5.292  16.481 -1.5339  0.0034 -0.1066
16611TIP3    H271325   1.889   5.275  16.370 -1.8471  1.3289 -0.6161
16612TIP3   OH271326   3.106   3.204   2.827 -0.0944  0.5958 -0.3519
16612TIP3    H171327   3.131   3.280   2.776 -0.5954  0.8662 -0.1922
16612TIP3    H271328   3.085   3.238   2.914  1.0223  0.1123  0.1387
16613TIP3   OH271329   3.765   4.765  11.482 -0.0806 -0.2499  0.4700
16613TIP3    H171330   3.769   4.688  11.425  1.1092  1.1009 -1.4109
16613TIP3    H271331   3.693   4.817  11.446  0.7387  0.6619  0.1264
16614TIP3   OH271332   1.358   1.310  13.926 -0.1798 -0.4690 -0.5287
16614TIP3    H171333   1.283   1.337  13.873  0.1178  0.7518 -0.3585
16614TIP3    H271334   1.376   1.220  13.898 -1.0831 -0.4279 -1.2822
16615TIP3   OH271335   2.224   1.946  11.726 -0.4511 -0.2372  0.2528
16615TIP3    H171336   2.280   1.941  11.803  0.6437  0.2487 -0.4764
16615TIP3    H271337   2.248   1.869  11.674 -1.6805 -0.9408  0.7142
16616TIP3   OH271338   1.051   0.144  14.693  0.3769  0.6871  0.5453
16616TIP3    H171339   1.041   0.222  14.748  0.9693 -0.5272  2.4976
16616TIP3    H271340   1.135   0.157  14.648  1.4065  0.3892  2.2967
16617TIP3   OH271341   3.322   1.861  14.143  0.3465 -0.0700 -0.2941
16617TIP3    H171342   3.251   1.869  14.080 -0.1561 -0.0993  0.2567
16617TIP3    H271343   3.330   1.948  14.182  0.5129 -0.1045 -0.2516
16618TIP3   OH271344   1.332   6.382  14.737  0.2006 -0.2701 -0.3205
16618TIP3    H171345   1.406   6.405  14.794 -0.3685 -0.7771  0.6498
16618TIP3    H271346   1.358   6.301  14.694  0.0761 -0.6421  0.2950
16619TIP3   OH271347   3.787   0.089   1.371 -0.3166 -0.9838  0.5138
16619TIP3    H171348   3.807   0.106   1.279  0.2340 -0.7398  0.6740
16619TIP3    H271349   3.797  -0.006   1.380  0.6654 -0.8768  0.5646
16620TIP3   OH271350   1.755   6.079  15.897 -0.0950 -0.0282 -0.0558
16620TIP3    H171351   1.676   6.032  15.926 -0.1124  0.3817  0.5781
16620TIP3    H271352   1.760   6.155  15.955  0.0412  0.6554 -0.9498
16621TIP3   OH271353   4.475   4.609  14.907  0.1622 -0.5820 -0.4314
16621TIP3    H171354   4.439   4.624  14.819 -1.1166 -1.1494 -0.0272
16621TIP3    H271355   4.424   4.666  14.964  1.4272  0.2714 -0.1146
16622TIP3   OH271356   1.551   2.538   0.050 -0.0012 -0.0135  0.9962
16622TIP3    H171357   1.494   2.493   0.112 -2.1407 -1.5445 -1.8271
16622TIP3    H271358   1.630   2.484   0.047 -1.3396 -2.0439 -0.1455
16623TIP3   OH271359   4.784   2.223   0.719  0.0210 -0.0862  0.0793
16623TIP3    H171360   4.852   2.212   0.653  1.4434  0.7037  1.3445
16623TIP3    H271361   4.808   2.161   0.789 -0.6621  0.0843  0.4762
16624TIP3   OH271362   1.204   1.635  17.200 -0.2225  0.1623  0.0538
16624TIP3    H171363   1.159   1.655  17.282 -1.1885 -1.6369  0.0027
16624TIP3    H271364   1.286   1.684  17.206 -0.7102  0.8516  1.6446
16625TIP3   OH271365   5.270   2.548  16.819  0.6475 -0.3576  0.2197
16625TIP3    H171366   5.233   2.539  16.907  1.4376 -0.0963  0.5815
16625TIP3    H271367   5.193   2.556  16.762  0.1218 -0.8762  0.8403
16626TIP3   OH271368   6.061   1.316  13.931 -0.1552  0.6796 -0.5309
16626TIP3    H171369   6.156   1.311  13.921 -0.0503 -0.0066  0.6778
16626TIP3    H271370   6.040   1.255  14.002 -1.4007  1.4902 -0.1593
16627TIP3   OH271371   1.439   3.430  15.403  0.1533 -0.1954  0.0808
16627TIP3    H171372   1.438   3.349  15.351 -1.9786  0.2509 -0.6647
16627TIP3    H271373   1.348   3.442  15.432  0.4856  1.7400  0.4895
16628TIP3   OH271374   6.643   6.654  13.763  0.2627 -0.2456 -0.2039
16628TIP3    H171375   6.732   6.682  13.740  0.5509 -0.1569  0.9918
16628TIP3    H271376   6.608   6.618  13.681  0.2586  2.5357 -1.5273
16629TIP3   OH271377   4.063   2.520  16.107  0.2415  0.3112  0.0998
16629TIP3    H171378   4.127   2.498  16.174 -0.5664 -5.3814 -0.4979
16629TIP3    H271379   4.111   2.514  16.025 -0.4125 -1.8628 -0.2077
16630TIP3   OH271380   0.945   6.108  13.145  0.3232 -0.4647 -0.4179
16630TIP3    H171381   0.953   6.067  13.059  3.0798 -0.6079 -0.1935
16630TIP3    H271382   0.897   6.044  13.197  0.0780 -1.1261 -1.4258
16631TIP3   OH271383   1.940   3.974   1.048 -0.5658 -0.0446  0.6575
16631TIP3    H171384   1.977   3.897   1.091 -0.6251  0.7806  2.2628
16631TIP3    H271385   1.846   3.956   1.043 -0.4593 -0.4747  0.1513
16632TIP3   OH271386   0.097   1.943  12.925 -0.3860 -0.3559 -0.3616
16632TIP3    H171387   0.109   1.874  12.860 -0.9573 -0.6930 -0.1239
16632TIP3    H271388   0.007   1.973  12.912 -1.1558 -1.6656  1.3967
16633TIP3   OH271389   4.783   1.488  12.677 -0.1355  0.2851  0.0058
16633TIP3    H171390   4.868   1.522  12.648 -0.3433  1.7076  0.9631
16633TIP3    H271391   4.804   1.408  12.724  0.7064  0.7028  0.3616
16634TIP3   OH271392   4.365   5.538  16.363  0.2639  0.5093 -0.1214
16634TIP3    H171393   4.323   5.523  16.278 -0.1473  0.5177  0.0790
16634TIP3    H271394   4.343   5.461  16.415  0.6045  0.4553 -0.0560
16635TIP3   OH271395   5.027   6.800   0.720 -0.3890  0.0327 -0.5613
16635TIP3    H171396   5.042   6.780   0.813  1.7794 -0.2717 -0.9235
16635TIP3    H271397   4.947   6.752   0.698 -1.4343  0.7857  1.3219
16636TIP3   OH271398   3.557   4.058   5.735 -0.0712 -0.6070 -0.6295
16636TIP3    H171399   3.499   3.982   5.734 -1.3688  0.2773  1.0616
16636TIP3    H271400   3.525   4.114   5.665 -0.5091 -0.6590 -0.4755
16637TIP3   OH271401   4.441   6.348  14.254  0.1109 -0.1090 -0.0663
16637TIP3    H171402   4.403   6.274  14.301  0.9987 -0.6961 -0.2463
16637TIP3    H271403   4.400   6.425  14.293 -0.3381 -0.6614  0.5735
16638TIP3   OH271404   0.348   4.509   0.265  0.5493  0.6901  0.6152
16638TIP3    H171405   0.297   4.528   0.343 -1.3725 -0.2713 -0.3412
16638TIP3    H271406   0.424   4.460   0.298 -0.5750 -0.3174  1.8319
16639TIP3   OH271407   6.059   2.131  15.418  0.2599  0.3569 -0.6573
16639TIP3    H171408   6.135   2.080  15.447 -0.3588 -0.3602 -0.2762
16639TIP3    H271409   6.081   2.221  15.442  1.4700  0.3339 -1.5703
16640TIP3   OH271410   3.739   4.055  16.334  0.0515  0.0655 -0.6743
16640TIP3    H171411   3.768   4.066  16.425 -0.1358  2.9762 -0.8577
16640TIP3    H271412   3.648   4.083  16.334 -0.9954 -3.0177 -1.2568
16641TIP3   OH271413   5.936   6.587   0.408 -0.1524 -0.7383  0.1379
16641TIP3    H171414   5.855   6.541   0.386 -0.0611 -1.2396  0.8154
16641TIP3    H271415   5.967   6.622   0.324 -1.8493  0.7771  0.0518
16642TIP3   OH271416   0.018   2.145  12.033 -0.3934 -0.0782  0.8257
16642TIP3    H171417  -0.062   2.146  11.980 -0.5610 -2.8823  0.8831
16642TIP3    H271418   0.077   2.204  11.988 -1.5468 -0.1109 -0.8266
16643TIP3   OH271419   3.205   1.055  15.842  0.3046 -0.4464  0.3334
16643TIP3    H171420   3.177   0.975  15.797  1.5015 -1.4038  1.2300
16643TIP3    H271421   3.239   1.025  15.926  0.7324  1.0188  0.7154
16644TIP3   OH271422   5.971   1.541   1.700 -0.4869  0.3257 -0.1711
16644TIP3    H171423   6.007   1.567   1.784 -0.5523 -0.0815 -0.0161
16644TIP3    H271424   6.036   1.569   1.636  0.1668 -0.5244  0.1164
16645TIP3   OH271425   6.158   0.675  13.430 -0.5312  0.4287  0.2084
16645TIP3    H171426   6.090   0.658  13.494  0.6655 -2.6118  0.8204
16645TIP3    H271427   6.114   0.672  13.345 -1.0810 -2.6747  0.5133
16646TIP3   OH271428   5.943   4.822  10.222 -0.1057  0.1341 -0.0882
16646TIP3    H171429   5.988   4.890  10.271 -0.3804 -0.3456  0.8591
16646TIP3    H271430   5.870   4.867  10.180  0.0550  0.5328  0.0559
16647TIP3   OH271431   1.218   5.228   3.323 -0.2219 -0.2681 -0.5432
16647TIP3    H171432   1.156   5.245   3.394 -0.5220 -0.3433 -0.7875
16647TIP3    H271433   1.266   5.310   3.313  0.7874 -0.6735  0.6895
16648TIP3   OH271434   1.030   1.250  13.303  0.2187  0.1553  0.1861
16648TIP3    H171435   0.965   1.315  13.330  1.0176  0.9648  0.1975
16648TIP3    H271436   1.059   1.278  13.216 -0.5665 -1.0808 -0.5011
16649TIP3   OH271437   5.021   4.609   4.856  0.6319 -0.3067  0.0440
16649TIP3    H171438   4.928   4.632   4.862  0.2484 -1.4146 -1.1314
16649TIP3    H271439   5.044   4.628   4.765  2.2304  2.1644  0.8609
16650TIP3   OH271440   6.664   0.110   3.538 -0.3466 -0.0818 -1.2182
16650TIP3    H171441   6.689   0.038   3.596 -0.1049  1.2569  0.4125
16650TIP3    H271442   6.742   0.165   3.532 -1.0051  0.8971 -1.1035
16651TIP3   OH271443   6.775   0.871  13.105  0.2121  0.3025 -0.1158
16651TIP3    H171444   6.847   0.910  13.155  0.5296 -0.1187 -0.2328
16651TIP3    H271445   6.720   0.828  13.170 -0.2523  1.1050  0.0369
16652TIP3   OH271446   3.695   0.075   3.031 -0.4254 -0.1533 -0.3405
16652TIP3    H171447   3.748  -0.004   3.038  1.0528  0.6981 -1.3198
16652TIP3    H271448   3.614   0.047   2.987 -0.1076 -1.1822 -0.2765
16653TIP3   OH271449   1.816   5.108   6.553  0.1845  0.0602 -1.0536
16653TIP3    H171450   1.885   5.146   6.499  0.0592  1.6761 -0.1305
16653TIP3    H271451   1.859   5.033   6.596  0.8243 -0.0753 -1.9090
16654TIP3   OH271452   6.792   4.399   2.406  0.1148  0.5256 -0.1413
16654TIP3    H171453   6.739   4.385   2.485  1.9957 -2.6325  0.7517
16654TIP3    H271454   6.743   4.465   2.356 -2.5893  0.6410  2.3457
16655TIP3   OH271455   5.652   2.582   4.704  0.8589  0.2032 -0.0196
16655TIP3    H171456   5.739   2.557   4.736  0.4196 -1.1773  0.1818
16655TIP3    H271457   5.632   2.518   4.636 -0.0427  0.4396  0.0008
16656TIP3   OH271458   4.980   6.669   4.143  0.3212 -0.2041 -0.1769
16656TIP3    H171459   5.069   6.666   4.178  0.6049  2.5117 -0.4895
16656TIP3    H271460   4.924   6.683   4.220  0.2848 -0.5880 -0.1308
16657TIP3   OH271461   3.278   5.116   0.741  0.2773 -0.4668 -0.2165
16657TIP3    H171462   3.311   5.086   0.825 -0.2880 -0.8778 -0.1318
16657TIP3    H271463   3.194   5.157   0.761  1.4607  2.1231 -0.2012
16658TIP3   OH271464   5.167   3.954  14.805  0.1425  0.1610 -0.2369
16658TIP3    H171465   5.253   3.912  14.812  1.2111  2.3571  0.5841
16658TIP3    H271466   5.104   3.883  14.822  1.7675 -1.3835 -0.3484
16659TIP3   OH271467   3.989   0.630  10.492 -0.6460 -0.2222  0.7199
16659TIP3    H171468   3.961   0.569  10.424  1.8112 -0.7852  0.1040
16659TIP3    H271469   4.016   0.575  10.565  0.0226  0.1916  0.7950
16660TIP3   OH271470   1.872   1.081   3.734  0.1104 -0.0682 -0.0694
16660TIP3    H171471   1.878   0.989   3.758  1.6046 -0.2901 -1.1524
16660TIP3    H271472   1.962   1.107   3.715 -0.1226  1.8958  1.1269
16661TIP3   OH271473   1.255   4.797  13.942 -0.3535  0.2709 -0.7495
16661TIP3    H171474   1.268   4.749  14.024 -3.6561  2.2922  1.1455
16661TIP3    H271475   1.164   4.781  13.919 -0.4520  2.5031 -2.1635
16662TIP3   OH271476   3.804   1.875   4.034  1.0449 -0.4337 -0.3223
16662TIP3    H171477   3.819   1.873   4.129  0.7448  1.5797 -0.1811
16662TIP3    H271478   3.729   1.817   4.020  0.0234  0.5145  0.9315
16663TIP3   OH271479   2.437   5.088  11.708 -0.4643  0.2413  0.6752
16663TIP3    H171480   2.494   5.012  11.695 -1.4607 -0.1636 -2.0823
16663TIP3    H271481   2.353   5.061  11.671 -1.0770  2.4084  0.3626
16664TIP3   OH271482   4.449   1.034   6.007 -0.1684 -0.1621 -0.4728
16664TIP3    H171483   4.467   0.952   6.053 -0.0821  0.3217  0.3658
16664TIP3    H271484   4.354   1.033   5.992 -0.2156 -0.2693 -0.1744
16665TIP3   OH271485   5.749   5.119  15.111  0.0605 -0.1110 -0.3855
16665TIP3    H171486   5.786   5.123  15.200 -0.1949  0.7534 -0.3172
16665TIP3    H271487   5.759   5.207  15.077  0.6050 -0.5563 -1.4073
16666TIP3   OH271488   6.736   1.894  11.262 -0.0157 -0.2975  0.3662
16666TIP3    H171489   6.669   1.918  11.326  2.3217  0.5325  2.6691
16666TIP3    H271490   6.776   1.977  11.237  0.0188 -0.7519 -1.1500
16667TIP3   OH271491   5.760   2.702   1.279 -0.1617  0.0239  0.0121
16667TIP3    H171492   5.728   2.630   1.225 -0.7387 -0.2738  0.7449
16667TIP3    H271493   5.786   2.661   1.361  2.8392  0.1239 -0.7617
16668TIP3   OH271494   5.026   3.914   1.815  0.5769  0.4326 -0.0979
16668TIP3    H171495   4.938   3.901   1.851  0.0860 -0.0760 -1.4565
16668TIP3    H271496   5.019   3.890   1.723  1.9404  1.2242 -0.4345
16669TIP3   OH271497   4.461   6.131  14.406 -0.1242 -0.1418  0.0302
16669TIP3    H171498   4.519   6.068  14.364 -1.0272  0.2463 -1.9078
16669TIP3    H271499   4.373   6.104  14.380 -0.7459  0.1279  1.7202
16670TIP3   OH271500   5.005   2.037  14.867  0.7834 -0.0783 -0.2610
16670TIP3    H171501   4.999   2.133  14.875 -1.3828 -0.1936  0.2928
16670TIP3    H271502   5.045   2.009  14.949 -2.0468  0.1833  1.3563
16671TIP3   OH271503   6.441   2.024   3.334 -0.1344 -0.0973 -0.0616
16671TIP3    H171504   6.353   2.000   3.304 -0.7471  0.0691  1.5158
16671TIP3    H271505   6.446   2.118   3.319  0.2569 -0.2838 -1.2619
16672TIP3   OH271506   5.745   0.071  12.449 -0.0618 -0.6740  0.7833
16672TIP3    H171507   5.715   0.108  12.532  3.4691 -0.3111  2.0634
16672TIP3    H271508   5.839   0.089  12.448  0.1522 -1.3529 -2.9899
16673TIP3   OH271509   5.422   3.771  13.041 -0.0591 -0.1153 -0.1013
16673TIP3    H171510   5.395   3.679  13.041  0.9550 -0.4308 -0.1666
16673TIP3    H271511   5.418   3.797  12.949 -1.0666  0.1397  0.0048
16674TIP3   OH271512   3.959   5.085  13.355 -0.4320 -0.0871 -0.3032
16674TIP3    H171513   4.044   5.085  13.398 -1.7073  2.4973  2.6634
16674TIP3    H271514   3.966   5.152  13.287 -0.5006  1.3996  1.0921
16675TIP3   OH271515   1.928   0.853   2.422  0.3393 -0.3475 -0.2170
16675TIP3    H171516   1.940   0.908   2.500  0.2796  2.6778 -2.1579
16675TIP3    H271517   2.005   0.870   2.368 -1.1602  0.4334 -2.2763
16676TIP3   OH271518   4.569   2.679   0.745  0.3300  0.1014  0.1463
16676TIP3    H171519   4.493   2.736   0.733  0.1381 -0.1602  0.1271
16676TIP3    H271520   4.544   2.621   0.818  0.6862  0.3177  0.4436
16677TIP3   OH271521   3.325   4.429   2.692  0.0461  0.1363 -0.4282
16677TIP3    H171522   3.399   4.485   2.667  0.2472  0.0405 -0.0528
16677TIP3    H271523   3.306   4.378   2.613  0.1057  0.4633 -0.6564
16678TIP3   OH271524   4.391   3.003  15.817 -0.4476 -0.0539  0.0766
16678TIP3    H171525   4.454   3.066  15.781  1.2119 -0.3660  2.2620
16678TIP3    H271526   4.354   2.960  15.740  0.6573  1.4265 -1.3501
16679TIP3   OH271527   1.408   3.369   5.298 -0.3826  0.2852 -0.6197
16679TIP3    H171528   1.346   3.331   5.361 -0.2337 -0.0188 -0.6561
16679TIP3    H271529   1.493   3.335   5.325 -0.0231  1.8213  0.3109
16680TIP3   OH271530   4.630   3.312   1.757 -0.0057 -0.3052 -0.1836
16680TIP3    H171531   4.539   3.319   1.731 -0.0925 -1.6990 -0.3597
16680TIP3    H271532   4.678   3.366   1.695 -0.7098  0.4714 -0.0633
16681TIP3   OH271533   5.522   3.701   3.536  0.2242 -0.0039 -0.0178
16681TIP3    H171534   5.581   3.626   3.541  1.0904  0.5840 -0.9353
16681TIP3    H271535   5.440   3.670   3.572  0.4448 -1.5168 -0.7411
16682TIP3   OH271536   5.826   6.497   5.491  0.5976  0.0208 -0.1260
16682TIP3    H171537   5.840   6.568   5.428 -0.0247  1.3173  1.1144
16682TIP3    H271538   5.892   6.512   5.559 -0.3563  0.2302  0.7951
16683TIP3   OH271539   3.009   0.548  11.087 -0.0044  0.5236  0.3373
16683TIP3    H171540   3.065   0.472  11.070 -0.0154  0.3272  1.1505
16683TIP3    H271541   2.920   0.516  11.073  0.0803  0.8986 -1.1917
16684TIP3   OH271542   3.627   3.478   3.260  0.5375  0.0076  0.3729
16684TIP3    H171543   3.659   3.568   3.268 -1.6359  0.8987 -0.2476
16684TIP3    H271544   3.533   3.484   3.278  0.3132 -2.1212  0.1768
16685TIP3   OH271545   5.574   0.401  13.818 -0.3385 -0.5027 -0.1561
16685TIP3    H171546   5.498   0.435  13.865  0.5720  1.8664 -0.2158
16685TIP3    H271547   5.625   0.480  13.797  2.6398 -2.0318  0.7809
16686TIP3   OH271548   6.302   2.883   2.764 -0.0255  0.4803  0.3390
16686TIP3    H171549   6.297   2.827   2.841  0.1968 -0.7335 -0.4912
16686TIP3    H271550   6.368   2.948   2.784  0.2122  0.0163  1.0709
16687TIP3   OH271551   0.825   3.365  11.135 -0.2692 -0.1070  0.5159
16687TIP3    H171552   0.743   3.390  11.094 -0.5741 -0.3739  0.9434
16687TIP3    H271553   0.886   3.351  11.063 -0.6925 -0.2210  0.1797
16688TIP3   OH271554   5.916   0.101   4.038 -0.5887  0.2836 -0.1253
16688TIP3    H171555   5.869   0.106   4.121  0.3193 -0.0688  0.4211
16688TIP3    H271556   6.002   0.067   4.061 -1.3094 -2.8708 -1.5793
16689TIP3   OH271557   6.663   6.092  16.877 -0.0918 -0.2974  0.2481
16689TIP3    H171558   6.695   6.085  16.967  2.0042 -0.6765 -0.4612
16689TIP3    H271559   6.588   6.150  16.882 -0.8182 -1.3372  2.4246
16690TIP3   OH271560   3.846   2.662   0.447  0.2150  0.2170 -0.1319
16690TIP3    H171561   3.886   2.746   0.426  1.3672  0.1729  1.6824
16690TIP3    H271562   3.763   2.684   0.489  0.3160  0.4478 -0.0535
16691TIP3   OH271563   1.002   6.137   2.603 -0.1082  0.3586  0.2632
16691TIP3    H171564   0.960   6.143   2.689 -0.3268 -0.4610  0.2167
16691TIP3    H271565   1.090   6.171   2.617 -0.8630  2.4505  0.2826
16692TIP3   OH271566   5.241   3.899   5.518  0.3246 -0.1925  0.4522
16692TIP3    H171567   5.317   3.899   5.576  0.8663  1.2792 -0.2065
16692TIP3    H271568   5.238   3.811   5.481  1.0656 -0.5789  1.2973
16693TIP3   OH271569   5.076   1.518   4.258  0.8911  0.1370 -0.5103
16693TIP3    H171570   5.101   1.610   4.263 -1.6207  0.8341  0.6171
16693TIP3    H271571   5.052   1.494   4.347 -2.2195 -0.3791 -1.3430
16694TIP3   OH271572   4.546   0.260  17.020 -0.3877 -0.0726 -0.2186
16694TIP3    H171573   4.568   0.269  17.113  0.3518  0.8869 -0.4773
16694TIP3    H271574   4.626   0.226  16.980 -0.6043 -0.1798 -0.5623
16695TIP3   OH271575   0.740   4.171   0.828 -0.1461  0.6128  0.5200
16695TIP3    H171576   0.794   4.134   0.898  0.0883 -1.2564 -0.5965
16695TIP3    H271577   0.756   4.265   0.833 -0.5225  0.6142  3.2737
16696TIP3   OH271578   2.743   5.000  14.911 -0.4301 -0.1410  0.0920
16696TIP3    H171579   2.810   4.936  14.935  0.1554  0.4900  0.1666
16696TIP3    H271580   2.660   4.954  14.923 -0.0283 -0.7681  0.4860
16697TIP3   OH271581   2.100   3.514  11.045 -0.0017 -0.0434 -0.3506
16697TIP3    H171582   2.129   3.577  10.980  0.8157 -1.6915 -1.6629
16697TIP3    H271583   2.015   3.483  11.012  0.6738 -1.2893 -0.9713
16698TIP3   OH271584   0.622   6.362  13.309  0.1373 -0.5286  0.1262
16698TIP3    H171585   0.531   6.331  13.307  0.2919 -1.0089 -2.4861
16698TIP3    H271586   0.666   6.300  13.367 -1.1429 -0.3725  1.3336
16699TIP3   OH271587   0.727   0.845  16.561 -0.5757 -0.6065  0.4441
16699TIP3    H171588   0.820   0.866  16.576 -0.2957 -3.0343  2.9020
16699TIP3    H271589   0.684   0.866  16.644 -2.6598  1.9895 -1.1389
16700TIP3   OH271590   1.045   3.476   5.915  0.0924  0.0428 -0.1737
16700TIP3    H171591   1.054   3.388   5.952  0.2740  0.2034  0.1720
16700TIP3    H271592   0.978   3.519   5.969  0.7906  0.4812  0.3832
16701TIP3   OH271593   1.884   5.875  14.102 -0.2418 -0.3801  0.2602
16701TIP3    H171594   1.874   5.780  14.099 -0.3414 -0.3493 -1.5700
16701TIP3    H271595   1.878   5.903  14.011  0.2303  1.3508  0.7138
16702TIP3   OH271596   6.337   2.691  16.762  0.6493  0.3140 -0.3735
16702TIP3    H171597   6.310   2.673  16.852  2.1149 -1.5788 -0.2372
16702TIP3    H271598   6.406   2.757  16.771 -0.0478  1.0480 -0.2514
16703TIP3   OH271599   6.209   4.576  11.472  0.0005 -0.4723 -0.3947
16703TIP3    H171600   6.171   4.554  11.387 -0.5930 -0.1838 -0.2111
16703TIP3    H271601   6.133   4.586  11.530  0.2541  1.3840 -0.3215
16704TIP3   OH271602   2.859   0.340   1.931  0.7105 -0.5745  0.7091
16704TIP3    H171603   2.781   0.313   1.979  0.1111  2.6010  1.7964
16704TIP3    H271604   2.831   0.347   1.840  0.4042 -1.6720  0.7108
16705TIP3   OH271605   3.779   5.068   1.292 -0.5481  0.0961 -0.4470
16705TIP3    H171606   3.758   5.035   1.379  1.7422 -0.8878 -0.2047
16705TIP3    H271607   3.753   5.160   1.295 -0.6232  0.0574  1.2384
16706TIP3   OH271608   2.172   3.107  12.183 -0.2304  0.3903  0.2140
16706TIP3    H171609   2.096   3.099  12.242 -0.1298 -0.8789  0.2037
16706TIP3    H271610   2.248   3.102  12.241 -0.1269 -1.0395 -0.0121
16707TIP3   OH271611   6.116   6.584   5.463  0.7419  0.1179  0.3195
16707TIP3    H171612   6.170   6.576   5.541 -0.0241 -0.0630  0.8396
16707TIP3    H271613   6.175   6.566   5.390  1.1473 -1.1257  0.9351
16708TIP3   OH271614   2.811   2.657   3.396  0.0499 -0.2707 -0.4176
16708TIP3    H171615   2.906   2.653   3.409  0.1432  0.7769 -0.6824
16708TIP3    H271616   2.791   2.751   3.391 -1.1392 -0.4411  0.5782
16709TIP3   OH271617   0.612   3.377  11.407  0.1502 -0.3203  0.0083
16709TIP3    H171618   0.674   3.373  11.481  2.0681  0.3685 -1.4658
16709TIP3    H271619   0.628   3.296  11.359 -1.1271 -0.7884  0.3541
16710TIP3   OH271620   5.237   0.743  11.614  0.1920 -0.0005  0.6057
16710TIP3    H171621   5.213   0.830  11.645  1.9679  0.5670  0.5261
16710TIP3    H271622   5.199   0.738  11.526  0.4827  0.9173  0.4119
16711TIP3   OH271623   0.045   1.492   0.361 -0.4537  0.1351 -0.2332
16711TIP3    H171624   0.035   1.567   0.302 -0.2325 -0.8590 -1.5891
16711TIP3    H271625   0.134   1.501   0.395  0.1389 -0.3036 -1.5822
16712TIP3   OH271626   0.818   3.628   2.072  0.1096 -0.3319 -0.2543
16712TIP3    H171627   0.730   3.596   2.054 -0.3189  0.8518 -0.3408
16712TIP3    H271628   0.832   3.611   2.165 -0.2372 -0.4368 -0.2219
16713TIP3   OH271629   4.605   6.790  16.894 -0.5785  0.1754  0.3966
16713TIP3    H171630   4.533   6.848  16.920  0.4988  0.6374  2.5774
16713TIP3    H271631   4.684   6.843  16.905  0.2267 -0.8184 -0.3835
16714TIP3   OH271632   5.891   6.766   2.278 -0.4769  0.0729  0.3584
16714TIP3    H171633   5.894   6.708   2.202 -0.7312  0.5372 -0.0105
16714TIP3    H271634   5.836   6.839   2.250 -1.4072 -0.2368  1.3286
16715TIP3   OH271635   5.471   4.183  11.167  0.6655 -0.5000 -0.5265
16715TIP3    H171636   5.389   4.164  11.123  0.3737 -0.1989 -0.1267
16715TIP3    H271637   5.469   4.131  11.247  0.4858  0.1235 -0.1115
16716TIP3   OH271638   4.057   3.317  13.627 -0.1226  0.4088  0.6160
16716TIP3    H171639   4.112   3.239  13.616  0.8057  0.9092  1.5388
16716TIP3    H271640   4.116   3.390  13.609 -1.0937  0.9100 -0.6659
16717TIP3   OH271641   5.764   2.684  12.115 -0.0426 -0.5878  0.0311
16717TIP3    H171642   5.842   2.667  12.168  0.0514 -0.9054 -0.2056
16717TIP3    H271643   5.699   2.622  12.149 -0.1100 -0.5027  0.0554
16718TIP3   OH271644   6.792   0.274  11.274 -0.0651 -0.4360 -0.8999
16718TIP3    H171645   6.841   0.236  11.200 -0.3129  0.5046 -1.5665
16718TIP3    H271646   6.717   0.316  11.234 -0.7063 -0.6922 -0.0020
16719TIP3   OH271647   0.093   6.727   4.947  0.4744 -0.1372  0.1827
16719TIP3    H171648   0.183   6.761   4.942 -0.1391  1.5015 -0.5321
16719TIP3    H271649   0.049   6.785   5.009 -0.4060 -0.1161 -0.4343
16720TIP3   OH271650   0.197   0.523   5.912  0.1277 -0.2661 -0.1497
16720TIP3    H171651   0.232   0.435   5.927  2.8438  0.6741 -0.4361
16720TIP3    H271652   0.157   0.547   5.995  0.0756 -1.4402  0.1933
16721TIP3   OH271653   0.363   0.241   1.884 -0.1970  0.2788  0.3761
16721TIP3    H171654   0.387   0.292   1.961  0.5198 -0.1124  0.4234
16721TIP3    H271655   0.339   0.306   1.818 -0.3389  0.6326  0.7731
16722TIP3   OH271656   2.481   1.317   2.607  0.6254  0.1920 -0.5395
16722TIP3    H171657   2.570   1.332   2.574  0.6627  1.6847  0.1641
16722TIP3    H271658   2.432   1.395   2.580 -0.0442  0.1388  0.4723
16723TIP3   OH271659   2.613   6.269  11.205 -0.2104  0.5587 -0.9594
16723TIP3    H171660   2.619   6.173  11.211 -0.0260  0.3399 -3.4542
16723TIP3    H271661   2.565   6.295  11.283  0.2092 -1.5102  0.0698
16724TIP3   OH271662   5.260   6.351  13.131 -0.4239  0.2557 -0.4391
16724TIP3    H171663   5.190   6.357  13.067 -1.4748  0.0308  0.6480
16724TIP3    H271664   5.222   6.302  13.204  1.3017 -1.0898 -0.3861
16725TIP3   OH271665   6.521   4.017  10.612  0.4154  0.4520 -0.0329
16725TIP3    H171666   6.563   4.040  10.530 -0.3982 -0.2141 -0.6474
16725TIP3    H271667   6.427   4.023  10.594  0.2142 -0.4563  0.6217
16726TIP3   OH271668   3.501   6.369  13.479  0.0923  0.3413 -0.1807
16726TIP3    H171669   3.462   6.286  13.507 -0.4388  0.7855  0.4244
16726TIP3    H271670   3.502   6.363  13.383  4.3647 -2.3291 -0.2381
16727TIP3   OH271671   3.813   3.683  17.014 -0.4549  0.2850  0.6182
16727TIP3    H171672   3.738   3.703  17.070 -1.7962 -0.0075 -0.9662
16727TIP3    H271673   3.842   3.769  16.983  0.0493  0.4198  1.4524
16728TIP3   OH271674   6.295   3.249   4.388  0.2077 -0.6619 -0.2087
16728TIP3    H171675   6.255   3.182   4.445  0.0261  0.5434  1.1383
16728TIP3    H271676   6.223   3.308   4.367  1.0651  1.2558  1.8266
16729TIP3   OH271677   3.835   3.461   3.874 -0.8300 -0.0404  0.1337
16729TIP3    H171678   3.841   3.510   3.792  1.4743 -0.0315  0.2499
16729TIP3    H271679   3.854   3.525   3.942 -0.0229 -0.6096  0.4572
16730TIP3   OH271680   5.579   2.888  16.400 -0.2129 -0.5442  0.0253
16730TIP3    H171681   5.657   2.893  16.455 -0.9360  0.1222  1.0239
16730TIP3    H271682   5.507   2.870  16.461 -0.8601 -1.0765 -0.8649
16731TIP3   OH271683   0.138   4.437  12.210  0.0782 -0.1707 -0.1802
16731TIP3    H171684   0.102   4.432  12.121  0.5338 -0.9124 -0.3277
16731TIP3    H271685   0.185   4.520  12.212 -1.3980  0.7111 -0.0681
16732TIP3   OH271686   3.655   2.999   3.943  0.2059  0.2201 -0.0608
16732TIP3    H171687   3.652   2.928   4.008  2.7213 -0.2713 -0.3731
16732TIP3    H271688   3.623   2.960   3.862  0.9219 -0.3724 -0.0628
16733TIP3   OH271689   6.109   0.712   1.988  0.2634 -0.4832  0.0085
16733TIP3    H171690   6.023   0.736   2.023  0.0048 -1.0961 -0.1833
16733TIP3    H271691   6.172   0.756   2.046 -0.1768  0.2328 -0.0482
16734TIP3   OH271692   5.255   3.823   0.661  0.6103 -0.4128 -0.2361
16734TIP3    H171693   5.161   3.808   0.676  0.7332 -0.0498  1.0582
16734TIP3    H271694   5.260   3.915   0.633  0.5356 -0.5741 -0.7790
16735TIP3   OH271695   1.652   5.594   3.389 -0.1147  0.3751 -0.4280
16735TIP3    H171696   1.659   5.499   3.382 -3.3054 -0.0291  0.2390
16735TIP3    H271697   1.607   5.621   3.309  0.7937  1.3674 -0.6352
16736TIP3   OH271698   6.206   1.799  14.156 -0.3281  0.1268 -0.1977
16736TIP3    H171699   6.277   1.838  14.208  0.8269 -0.2205 -1.4305
16736TIP3    H271700   6.144   1.871  14.143 -0.3100  0.3938  1.0501
16737TIP3   OH271701   2.707   5.972   1.817  0.5005  0.1056  0.1155
16737TIP3    H171702   2.676   5.882   1.828 -1.6091  0.7562  0.0955
16737TIP3    H271703   2.733   5.977   1.725 -2.5796  0.3128 -0.8615
16738TIP3   OH271704   6.504   1.204   4.088  1.0537 -0.3041 -0.2413
16738TIP3    H171705   6.474   1.114   4.073  1.6487 -0.2121 -2.2839
16738TIP3    H271706   6.588   1.209   4.044  2.2487  0.5995  1.9631
16739TIP3   OH271707   4.150   1.376  14.260  0.1747 -0.5364  0.1245
16739TIP3    H171708   4.244   1.389  14.265  0.1208 -0.6091  1.5053
16739TIP3    H271709   4.112   1.462  14.276 -0.0045  0.0823 -2.9916
16740TIP3   OH271710   2.498   2.361   5.371  0.2020 -0.1104 -0.1874
16740TIP3    H171711   2.415   2.355   5.323 -0.3874  0.9306  0.6608
16740TIP3    H271712   2.535   2.445   5.344 -1.1482  1.5198  2.6552
16741TIP3   OH271713   1.873   0.826   4.486 -0.6719 -0.5022 -0.1348
16741TIP3    H171714   1.808   0.887   4.522  0.5645 -0.4111  2.1720
16741TIP3    H271715   1.847   0.740   4.519  1.0519 -0.2821  2.0523
16742TIP3   OH271716   2.961   1.844  15.106  0.3796  0.0516  0.2808
16742TIP3    H171717   3.036   1.895  15.077 -1.2261  0.9329 -2.7575
16742TIP3    H271718   2.906   1.908  15.153  0.2667  0.1094  0.0726
16743TIP3   OH271719   5.431   6.693   3.876  0.3091 -0.6532 -0.2619
16743TIP3    H171720   5.482   6.628   3.829  0.4627 -0.9298  0.2749
16743TIP3    H271721   5.342   6.658   3.876 -0.3378  0.7427 -2.8803
16744TIP3   OH271722   5.058   2.186  16.591 -0.0303 -0.2655 -0.2579
16744TIP3    H171723   4.990   2.134  16.634 -0.8305  0.4778 -0.5830
16744TIP3    H271724   5.016   2.219  16.511  0.0072  1.8518  0.5201
16745TIP3   OH271725   0.177   1.770   5.393  0.0061  0.3461 -0.4922
16745TIP3    H171726   0.096   1.757   5.344  0.4441  0.7673 -1.3441
16745TIP3    H271727   0.152   1.829   5.465 -0.4663  0.3726 -0.6734
16746TIP3   OH271728   2.289   0.650   5.340 -0.5094  0.0564 -0.1797
16746TIP3    H171729   2.381   0.623   5.332 -0.2048  1.0142 -0.0145
16746TIP3    H271730   2.265   0.679   5.252  0.0365  1.8926  0.2417
16747TIP3   OH271731   5.566   5.341   3.675  0.2385  0.1782  0.0522
16747TIP3    H171732   5.486   5.380   3.712  0.6310  0.8306  0.2371
16747TIP3    H271733   5.635   5.369   3.735  0.7163  0.2651 -0.5352
16748TIP3   OH271734   2.935   1.465   1.184  0.0153  0.1651  0.3968
16748TIP3    H171735   2.870   1.450   1.252 -1.4012 -0.2474 -0.9947
16748TIP3    H271736   2.905   1.545   1.140 -0.1506 -0.5988 -0.9141
16749TIP3   OH271737   6.206   4.646   4.536 -0.7218 -0.3251 -0.1322
16749TIP3    H171738   6.236   4.574   4.481 -0.0576 -0.1492 -0.0199
16749TIP3    H271739   6.166   4.709   4.475 -0.9566 -0.6133 -0.2752
16750TIP3   OH271740   3.431   1.270   2.363 -0.2928  0.4325  0.6733
16750TIP3    H171741   3.455   1.218   2.286  0.3400  1.4745  0.1585
16750TIP3    H271742   3.514   1.285   2.408 -0.3504  1.6453  0.3991
16751TIP3   OH271743   4.476   1.726   5.581  0.2382 -0.2140  0.3075
16751TIP3    H171744   4.494   1.690   5.668 -0.3799  1.2652  1.0686
16751TIP3    H271745   4.383   1.748   5.582  0.0902 -0.6422 -0.9271
16752TIP3   OH271746   5.763   2.042  11.642  0.2382 -0.4019  0.1698
16752TIP3    H171747   5.778   1.969  11.702 -0.1846 -1.1403 -0.5952
16752TIP3    H271748   5.667   2.050  11.638  0.2744  1.1016  1.2895
16753TIP3   OH271749   5.960   0.704  12.854 -0.0637  0.4188 -0.0835
16753TIP3    H171750   5.989   0.683  12.765  0.8657  1.0953  0.0358
16753TIP3    H271751   5.898   0.635  12.876  1.2770 -0.9713 -0.4676
16754TIP3   OH271752   5.517   5.266   5.701 -0.1635  0.3189  0.5394
16754TIP3    H171753   5.531   5.308   5.785 -0.2380 -0.1642  0.8003
16754TIP3    H271754   5.565   5.183   5.707  0.4408  0.6071 -0.1664
16755TIP3   OH271755   0.869   1.214   1.716 -0.3183  0.5242  0.3672
16755TIP3    H171756   0.831   1.296   1.748 -0.3928  0.5372  0.2446
16755TIP3    H271757   0.960   1.236   1.695  0.0509  0.2736  1.5708
16756TIP3   OH271758   0.812   6.013   1.858  0.7013 -0.0396  0.0904
16756TIP3    H171759   0.764   5.930   1.855  0.0409  0.3406 -0.1850
16756TIP3    H271760   0.743   6.079   1.860  1.2136  0.5783 -1.5438
16757TIP3   OH271761   5.421   4.139   3.500  0.2020 -0.3375 -0.5250
16757TIP3    H171762   5.450   4.114   3.412  2.3984 -0.2319  0.1205
16757TIP3    H271763   5.502   4.151   3.550 -0.9817  0.1012  1.3922
16758TIP3   OH271764   3.266   5.080  11.949 -0.2808  0.3892  0.0275
16758TIP3    H171765   3.260   5.164  11.995 -1.0029  0.7440 -0.7007
16758TIP3    H271766   3.270   5.015  12.020 -0.5074  0.9846  0.5990
16759TIP3   OH271767   0.693   5.875  11.556  0.2913 -0.0520  0.1887
16759TIP3    H171768   0.669   5.880  11.649  0.3012 -0.7776  0.2349
16759TIP3    H271769   0.631   5.812  11.519  1.7802 -1.5856  0.2100
16760TIP3   OH271770   0.991   2.584  17.026 -0.5094  0.4205  0.4384
16760TIP3    H171771   1.028   2.593  17.114  0.6036  0.1281  0.0267
16760TIP3    H271772   0.913   2.531  17.038 -0.5398  0.6457  1.2944
16761TIP3   OH271773   6.795   5.227  10.374 -0.2320 -0.1372  0.0703
16761TIP3    H171774   6.826   5.171  10.445  1.2226  0.7363  0.1734
16761TIP3    H271775   6.870   5.284  10.354 -1.3216  1.0747 -0.7139
16762TIP3   OH271776   3.631   5.567   2.387 -0.4264  0.0814  0.1632
16762TIP3    H171777   3.652   5.484   2.345 -1.6485  1.0625 -2.6298
16762TIP3    H271778   3.710   5.592   2.434  0.5877 -1.7629 -0.4894
16763TIP3   OH271779   4.629   6.775   3.528 -0.2796 -0.2142  0.0338
16763TIP3    H171780   4.704   6.811   3.480  0.3469 -1.1260  0.2956
16763TIP3    H271781   4.612   6.839   3.597 -2.0152  1.7812 -2.0895
16764TIP3   OH271782   6.606   2.228   3.710 -0.9071  0.2647 -0.2776
16764TIP3    H171783   6.570   2.186   3.632 -0.1604 -0.7815 -0.0776
16764TIP3    H271784   6.575   2.175   3.783  0.1492 -0.0297 -0.0267
16765TIP3   OH271785   2.362   6.798   5.000 -0.3250 -0.4348  0.4910
16765TIP3    H171786   2.298   6.772   4.934 -1.6923  3.5406 -0.0303
16765TIP3    H271787   2.447   6.776   4.962 -1.2308 -2.0914 -0.6473
16766TIP3   OH271788   4.352   4.636   4.605  0.0095  0.1014  0.1323
16766TIP3    H171789   4.350   4.663   4.513  0.9191  0.7306  0.2875
16766TIP3    H271790   4.260   4.637   4.632 -0.3954 -1.2393 -1.0826
16767TIP3   OH271791   2.823   4.332  13.327  0.1219  0.4682 -0.1938
16767TIP3    H171792   2.880   4.318  13.403  0.5289 -2.3828 -0.9064
16767TIP3    H271793   2.736   4.307  13.357 -0.0108  0.8582 -0.2479
16768TIP3   OH271794   1.494   3.970  16.246  0.4247 -0.0891  0.3350
16768TIP3    H171795   1.402   3.994  16.256  0.9339  1.9003  0.7503
16768TIP3    H271796   1.497   3.918  16.166 -0.8045  1.5125 -0.8169
16769TIP3   OH271797   1.448   3.072  16.540 -0.2817 -0.6249 -0.5397
16769TIP3    H171798   1.464   2.996  16.484  1.7353 -0.2666 -0.5125
16769TIP3    H271799   1.449   3.146  16.481  0.4265 -0.3834 -0.2385
16770TIP3   OH271800   5.149   0.959  11.753 -0.2698  0.0142  0.3415
16770TIP3    H171801   5.134   1.034  11.695  1.1032  0.8382  1.0040
16770TIP3    H271802   5.089   0.972  11.826 -0.0188  0.4866  0.4648
16771TIP3   OH271803   2.890   6.644   1.316 -0.2244 -0.4095  0.4130
16771TIP3    H171804   2.928   6.697   1.385 -0.4094 -0.4157  0.5202
16771TIP3    H271805   2.796   6.660   1.322 -0.3701 -1.4012  0.9959
16772TIP3   OH271806   3.851   3.592   2.455 -0.5326  0.2098 -0.3350
16772TIP3    H171807   3.876   3.664   2.514 -1.6996  0.6413 -0.3342
16772TIP3    H271808   3.780   3.547   2.501  1.3256 -2.0905  0.4781
16773TIP3   OH271809   3.295   1.817  10.450 -0.0432  0.1942  0.4562
16773TIP3    H171810   3.210   1.807  10.493 -0.1175  0.3729  0.3503
16773TIP3    H271811   3.337   1.889  10.497  0.9964 -1.3608  2.0345
16774TIP3   OH271812   6.158   4.965  16.786 -0.1969 -0.0593 -0.1657
16774TIP3    H171813   6.139   4.952  16.879  0.9829  1.0561  0.2552
16774TIP3    H271814   6.239   4.917  16.770 -0.7653 -0.8444 -0.8153
16775TIP3   OH271815   5.505   4.256  14.475  0.2586 -0.3627  0.3065
16775TIP3    H171816   5.531   4.189  14.412  0.2436 -0.8800  0.8353
16775TIP3    H271817   5.412   4.271  14.457  0.6155  0.6434 -0.8200
16776TIP3   OH271818   4.706   0.274  14.671  0.4211  0.1298 -0.4924
16776TIP3    H171819   4.635   0.244  14.614 -1.4964 -0.4645  2.0739
16776TIP3    H271820   4.735   0.195  14.716  0.1386  0.9534  1.1860
16777TIP3   OH271821   3.255   5.300  13.110  0.2353  0.1686 -0.5855
16777TIP3    H171822   3.189   5.232  13.125  0.4480 -0.2033 -1.2887
16777TIP3    H271823   3.338   5.253  13.107  0.3880  0.4632 -1.0319
16778TIP3   OH271824   6.236   5.619   2.171  0.5324 -0.5400  0.1423
16778TIP3    H171825   6.247   5.675   2.094  0.8493 -0.7648  0.0187
16778TIP3    H271826   6.146   5.634   2.200  0.2238 -0.8954 -0.6211
16779TIP3   OH271827   4.731   0.018  10.880  0.3820 -0.1982 -0.9312
16779TIP3    H171828   4.643  -0.015  10.859 -0.0509 -0.2459  0.7992
16779TIP3    H271829   4.790  -0.049  10.848 -0.3433 -1.2268 -0.1798
16780TIP3   OH271830   1.745   2.862   0.674  0.1561  0.2844  0.2474
16780TIP3    H171831   1.677   2.802   0.644  0.0398  0.8845 -0.7543
16780TIP3    H271832   1.711   2.949   0.653  1.7185  0.5721 -1.4607
16781TIP3   OH271833   0.574   3.898   6.154  0.7162  0.0829  0.4067
16781TIP3    H171834   0.596   3.850   6.234 -1.3548 -0.8911  0.4448
16781TIP3    H271835   0.505   3.958   6.180  0.2445 -0.0220 -0.5672
16782TIP3   OH271836   1.247   2.037  13.917  0.0799  0.3740 -0.0896
16782TIP3    H171837   1.284   1.949  13.907 -1.0449 -0.1731  0.3984
16782TIP3    H271838   1.307   2.081  13.978  1.2251  0.3213 -1.1297
16783TIP3   OH271839   5.779   3.287   5.493  0.1034  0.2655  0.0005
16783TIP3    H171840   5.854   3.228   5.489  0.3343  0.4948  0.7941
16783TIP3    H271841   5.703   3.229   5.505  0.2602  0.0953  0.1621
16784TIP3   OH271842   1.576   5.387   3.106 -0.0394 -0.1259 -0.3209
16784TIP3    H171843   1.484   5.393   3.079 -0.9151  1.2430  2.5806
16784TIP3    H271844   1.579   5.310   3.162  1.3530 -1.9405 -2.7214
16785TIP3   OH271845   0.474   6.795  12.931  0.4000  0.1495  0.0186
16785TIP3    H171846   0.475   6.706  12.968  1.4007  0.1980  0.1368
16785TIP3    H271847   0.500   6.782  12.839  2.1543  0.4692  0.4376
16786TIP3   OH271848   2.853   6.801  16.083 -0.7485 -0.4723 -0.3347
16786TIP3    H171849   2.933   6.825  16.036 -1.4356  3.2303  0.0665
16786TIP3    H271850   2.849   6.863  16.155 -3.1591 -1.6819  0.6629
16787TIP3   OH271851   2.216   6.319   5.973  0.1678  0.2605  0.7604
16787TIP3    H171852   2.178   6.380   6.035  0.7222  0.2409  1.1270
16787TIP3    H271853   2.160   6.325   5.896  0.9943  2.2504  0.2610
16788TIP3   OH271854   0.406   3.443  12.567  0.8521  0.1659 -0.1803
16788TIP3    H171855   0.495   3.476  12.559  1.1759 -0.5395  0.3550
16788TIP3    H271856   0.411   3.378  12.638  0.4716 -1.7590 -1.8178
16789TIP3   OH271857   1.220   4.317  11.794  0.1530  0.3647 -0.2729
16789TIP3    H171858   1.217   4.386  11.728  0.9300  0.6357 -0.0358
16789TIP3    H271859   1.251   4.362  11.873  0.5348 -0.2306 -0.0842
16790TIP3   OH271860   2.220   6.107  11.266  0.0396 -0.6401 -0.5814
16790TIP3    H171861   2.198   6.068  11.350  2.6581 -1.5430 -0.2229
16790TIP3    H271862   2.200   6.038  11.202  0.2186 -0.8233 -0.4429
16791TIP3   OH271863   1.824   2.246  16.911 -0.9764  0.2229 -0.0178
16791TIP3    H171864   1.882   2.303  16.861 -0.4176 -0.4355 -0.1488
16791TIP3    H271865   1.800   2.177  16.850  1.1319 -1.5805  1.0128
16792TIP3   OH271866   0.661   4.708  12.140  0.0959  0.1709 -0.0501
16792TIP3    H171867   0.607   4.757  12.078 -0.2920 -1.2743 -0.9076
16792TIP3    H271868   0.744   4.695  12.094 -0.0320 -0.5227 -0.0899
16793TIP3   OH271869   5.552   4.560  13.802 -0.0379 -0.2353  0.5457
16793TIP3    H171870   5.513   4.648  13.800  1.1219  0.3294 -1.9538
16793TIP3    H271871   5.518   4.518  13.723  0.9008 -1.3269  0.7035
16794TIP3   OH271872   2.839   5.201  14.765  0.1838 -0.5301  0.0562
16794TIP3    H171873   2.783   5.136  14.808 -0.2251 -0.8289 -0.8965
16794TIP3    H271874   2.922   5.156  14.752  0.2325 -0.5181  0.3210
16795TIP3   OH271875   5.212   6.532   0.630  0.3571  0.3028  0.1435
16795TIP3    H171876   5.259   6.599   0.681  1.3352 -1.5314  1.8029
16795TIP3    H271877   5.146   6.497   0.690  0.6158 -0.9738 -0.2745
16796TIP3   OH271878   1.884   5.406  15.883  0.3012  0.0320 -0.0617
16796TIP3    H171879   1.796   5.438  15.865  0.8587  1.3355 -0.5953
16796TIP3    H271880   1.873   5.342  15.954 -1.0557  0.1647 -0.1375
16797TIP3   OH271881   2.762   3.872   2.960 -0.4584 -0.0788  0.5826
16797TIP3    H171882   2.816   3.905   2.888  0.1321  1.3843  1.6616
16797TIP3    H271883   2.734   3.785   2.930  3.0034 -1.2313  0.2172
16798TIP3   OH271884   1.666   3.960  16.789  0.3113 -0.3937  0.6750
16798TIP3    H171885   1.644   3.867  16.785  1.2091 -0.6160  0.8387
16798TIP3    H271886   1.697   3.982  16.701 -0.8565  0.0114  0.3392
16799TIP3   OH271887   2.635   6.521  13.171 -0.3231  0.7880 -0.1288
16799TIP3    H171888   2.712   6.522  13.229  0.9679  0.0293 -1.7320
16799TIP3    H271889   2.656   6.456  13.105 -1.5512  1.8946 -1.6968
16800TIP3   OH271890   3.839   2.677  11.817  0.9913 -0.0570  0.2012
16800TIP3    H171891   3.773   2.621  11.858 -0.5755  0.8816 -0.8951
16800TIP3    H271892   3.815   2.766  11.844  1.5280  0.3390 -0.5751
16801TIP3   OH271893   1.341   3.849   4.409  0.4919  0.0964 -0.6367
16801TIP3    H171894   1.415   3.792   4.388  0.8317  0.8832 -1.6261
16801TIP3    H271895   1.264   3.801   4.380  0.5158 -1.0177  0.9921
16802TIP3   OH271896   5.490   6.727   5.613 -0.4000 -0.0564  0.3198
16802TIP3    H171897   5.528   6.810   5.583 -0.9011 -0.0292 -0.2658
16802TIP3    H271898   5.528   6.712   5.699  1.4814 -0.3825 -0.5180
16803TIP3   OH271899   4.567   6.107   1.754  0.4793 -0.3405  0.1211
16803TIP3    H171900   4.662   6.109   1.765  0.7005  1.2540 -1.6317
16803TIP3    H271901   4.552   6.037   1.691  0.5367 -0.3383  0.1044
16804TIP3   OH271902   1.760   2.894  13.849  0.0658 -0.0320 -0.2590
16804TIP3    H171903   1.684   2.860  13.802  1.8521 -2.1127 -1.8665
16804TIP3    H271904   1.813   2.936  13.781  1.4072 -0.6285  0.3859
16805TIP3   OH271905   5.536   2.120  16.429 -0.3699  0.6577 -0.8749
16805TIP3    H171906   5.540   2.051  16.495  1.5215  1.6081  0.0935
16805TIP3    H271907   5.568   2.198  16.475  0.7957  1.3991 -2.8567
16806TIP3   OH271908   3.025   0.517   3.551  0.4959 -0.0283  0.2430
16806TIP3    H171909   3.044   0.601   3.593  2.1096  0.2191 -0.8902
16806TIP3    H271910   3.003   0.459   3.623 -2.4073  1.7527  0.9269
16807TIP3   OH271911   2.254   2.382   3.777 -0.1113 -0.3474  0.2746
16807TIP3    H171912   2.329   2.323   3.789  0.2088 -0.4101 -1.7330
16807TIP3    H271913   2.280   2.462   3.823  0.8313 -0.6679  0.3272
16808TIP3   OH271914   0.987   5.173   6.257 -0.4835  0.2105  1.2365
16808TIP3    H171915   1.029   5.259   6.263 -0.0973  0.1231  0.0991
16808TIP3    H271916   1.000   5.134   6.343 -0.2703  1.1103  1.6302
16809TIP3   OH271917   4.987   2.509  12.375  0.5055  0.2249  0.0247
16809TIP3    H171918   4.986   2.420  12.340  0.7770  0.6476 -1.1098
16809TIP3    H271919   4.914   2.512  12.437  0.5366 -0.7955  0.1200
16810TIP3   OH271920   5.442   3.664  10.703 -0.1326  0.0674  0.1779
16810TIP3    H171921   5.391   3.744  10.696 -0.6206 -0.3975 -2.4137
16810TIP3    H271922   5.505   3.668  10.631 -0.7952 -2.2856 -0.6266
16811TIP3   OH271923   0.036   4.369  11.721  0.1823 -0.2641  0.2925
16811TIP3    H171924  -0.018   4.416  11.657  0.4449 -0.9182 -0.4305
16811TIP3    H271925   0.122   4.411  11.715 -0.2866  0.9437  1.6248
16812TIP3   OH271926   1.417   1.885  15.783  0.3529 -0.1237 -0.5437
16812TIP3    H171927   1.348   1.864  15.845  0.1603 -0.5226 -0.8880
16812TIP3    H271928   1.373   1.886  15.698  0.8076 -0.5783 -0.7905
16813TIP3   OH271929   0.072   2.402   1.196 -0.3739  0.6555  0.2427
16813TIP3    H171930   0.068   2.346   1.274 -3.0985  0.2982 -0.0421
16813TIP3    H271931   0.024   2.352   1.130  1.0278  1.4013 -1.3834
16814TIP3   OH271932   6.144   6.142  15.968 -0.4460  0.0515 -0.5275
16814TIP3    H171933   6.237   6.167  15.966  0.1752 -2.0006  0.2703
16814TIP3    H271934   6.099   6.219  16.002  1.1571  0.5795  0.5019
16815TIP3   OH271935   6.218   3.972  10.670 -0.5412 -0.3431  0.1241
16815TIP3    H171936   6.144   3.913  10.685 -0.4528 -0.5438 -0.2132
16815TIP3    H271937   6.245   3.999  10.758 -0.5583 -0.8381  0.2844
16816TIP3   OH271938   4.083   1.419  14.995 -0.6538  0.0106 -0.5669
16816TIP3    H171939   4.135   1.340  15.009 -1.2620 -0.2283  0.4419
16816TIP3    H271940   4.115   1.455  14.913  0.4139 -0.6689 -0.4594
16817TIP3   OH271941   4.361   4.747  11.529 -0.0039  0.4058 -0.1222
16817TIP3    H171942   4.441   4.754  11.478 -1.2248 -0.6085 -2.2978
16817TIP3    H271943   4.291   4.768  11.467 -1.5080  0.2765  1.4522
16818TIP3   OH271944   5.675   1.213   6.100  0.9152 -0.4735 -0.7163
16818TIP3    H171945   5.756   1.217   6.150  1.8640  3.3246 -2.2027
16818TIP3    H271946   5.689   1.274   6.027 -3.6493  1.2982 -0.4483
16819TIP3   OH271947   5.926   4.562   4.452 -0.6921  0.3311  0.1709
16819TIP3    H171948   5.995   4.537   4.513  0.1162  1.2774 -0.3211
16819TIP3    H271949   5.849   4.512   4.481 -0.3321  0.7107  1.9320
16820TIP3   OH271950   4.087   4.674   1.559 -0.2435  0.6203  0.1527
16820TIP3    H171951   4.145   4.611   1.602 -0.8887 -0.2736 -0.2436
16820TIP3    H271952   4.076   4.744   1.622  0.2702  0.2005  0.7208
16821TIP3   OH271953   5.882   1.046   1.613  0.1427 -0.0318 -0.2915
16821TIP3    H171954   5.888   1.057   1.708 -1.2165 -1.0837 -0.0519
16821TIP3    H271955   5.947   0.978   1.593  0.2136 -0.0313 -0.0683
16822TIP3   OH271956   2.232   0.917   2.905  0.7062  0.1159 -0.4864
16822TIP3    H171957   2.307   0.969   2.879  1.3947 -0.0796  0.9837
16822TIP3    H271958   2.255   0.827   2.880  0.8598  0.0940 -0.2719
16823TIP3   OH271959   1.271   6.119   6.559 -0.4824  0.6416  0.1057
16823TIP3    H171960   1.365   6.127   6.544  0.0602 -0.7768  2.2655
16823TIP3    H271961   1.231   6.180   6.497  1.7876  0.6392 -1.4868
16824TIP3   OH271962   0.906   5.267  12.052 -0.2620 -0.5419 -0.1142
16824TIP3    H171963   0.929   5.196  12.112 -0.4430 -0.5129 -0.0094
16824TIP3    H271964   0.812   5.278  12.063 -0.0924  0.3483  0.5567
16825TIP3   OH271965   2.386   3.398  14.836 -0.0626  0.1061 -0.1320
16825TIP3    H171966   2.397   3.319  14.782 -0.0388  0.2127 -0.2861
16825TIP3    H271967   2.291   3.407  14.846 -0.0914  0.3735 -0.5931
16826TIP3   OH271968   1.257   2.910  14.646 -0.3304 -0.3584  0.7736
16826TIP3    H171969   1.205   2.883  14.570 -0.1279 -2.6857  1.3818
16826TIP3    H271970   1.193   2.932  14.713 -0.5133  1.8147 -0.0357
16827TIP3   OH271971   0.037   1.276  15.939 -0.0729 -0.3262  0.6009
16827TIP3    H171972   0.122   1.237  15.917 -0.8047 -1.8871  0.4116
16827TIP3    H271973   0.036   1.280  16.034 -0.5038 -2.0685  0.6999
16828TIP3   OH271974   0.522   1.251  15.338 -0.5981 -0.5380 -0.3222
16828TIP3    H171975   0.611   1.277  15.312 -0.4352 -0.5617  0.1913
16828TIP3    H271976   0.522   1.156  15.331 -0.4104 -0.5824  0.1745
16829TIP3   OH271977   3.720   2.098   0.238  1.0501  0.6618 -0.4645
16829TIP3    H171978   3.659   2.144   0.180  1.1088  0.4857 -0.6673
16829TIP3    H271979   3.738   2.161   0.308 -0.1557  0.3485  0.1524
16830TIP3   OH271980   2.342   0.096  14.808  0.0470  0.0930 -0.2572
16830TIP3    H171981   2.309   0.170  14.859 -4.0108 -1.1007 -0.7772
16830TIP3    H271982   2.295   0.020  14.842  2.1562 -1.8895 -1.4485
16831TIP3   OH271983   6.129   5.050   2.266  0.0956 -0.7341 -0.6964
16831TIP3    H171984   6.114   5.019   2.177  3.6218 -0.5492 -1.4788
16831TIP3    H271985   6.216   5.017   2.289  0.8815  2.2494  1.2532
16832TIP3   OH271986   1.643   3.847   5.576 -0.6392 -0.5565  0.1747
16832TIP3    H171987   1.587   3.835   5.653 -2.7957 -1.1232 -1.3822
16832TIP3    H271988   1.631   3.767   5.525  0.2560  0.0571 -1.0556
16833TIP3   OH271989   2.311   1.638   4.109  0.2039  0.1092 -0.1332
16833TIP3    H171990   2.398   1.659   4.077  0.6868  2.1528  2.2320
16833TIP3    H271991   2.252   1.693   4.058  0.4572 -0.0446 -0.5981
16834TIP3   OH271992   2.574   4.583   3.740  0.7968 -0.6301 -0.0838
16834TIP3    H171993   2.545   4.673   3.752  0.3413 -0.5231 -1.7661
16834TIP3    H271994   2.661   4.590   3.702  0.0253 -0.8223 -2.0139
16835TIP3   OH271995   3.191   1.154  14.777 -0.6776 -0.4799 -0.4137
16835TIP3    H171996   3.242   1.164  14.858  0.4744 -1.2637 -1.0083
16835TIP3    H271997   3.205   1.063  14.752 -0.6745 -0.1360 -1.7078
16836TIP3   OH271998   4.324   2.675  12.367 -0.6894 -0.0143 -0.0197
16836TIP3    H171999   4.400   2.699  12.420 -1.3642  1.0378  0.5272
16836TIP3    H272000   4.249   2.692  12.425 -1.4311  0.7367 -1.1511
16837TIP3   OH272001   2.684   3.223   1.566 -0.1514  0.1942 -0.4441
16837TIP3    H172002   2.620   3.266   1.623  1.4237 -0.2536  1.7918
16837TIP3    H272003   2.695   3.136   1.606  2.0812  0.3925 -0.5504
16838TIP3   OH272004   5.202   0.552  15.286  0.0924  0.0192  0.4849
16838TIP3    H172005   5.166   0.521  15.202 -0.1539 -1.0060  0.9593
16838TIP3    H272006   5.126   0.590  15.331  0.3220  1.0110  0.0524
16839TIP3   OH272007   4.663   0.911  16.252  0.0548 -0.4353 -0.7832
16839TIP3    H172008   4.652   0.972  16.179 -1.2687  1.7815  1.1541
16839TIP3    H272009   4.635   0.960  16.329  2.9546 -2.0589  1.5321
16840TIP3   OH272010   4.253   1.607  11.108  0.9896 -0.6026  0.3417
16840TIP3    H172011   4.280   1.676  11.047 -0.7667  1.6805  1.9591
16840TIP3    H272012   4.334   1.573  11.144  1.9102  1.6957  0.5772
16841TIP3   OH272013   0.531   0.664  14.420  0.7092  0.5011  0.0330
16841TIP3    H172014   0.521   0.572  14.399 -1.6863  0.2502  1.9026
16841TIP3    H272015   0.608   0.667  14.478  0.0495 -0.5367  0.9955
16842TIP3   OH272016   3.896   4.613   0.398  0.2435 -0.3718  0.3131
16842TIP3    H172017   3.977   4.566   0.415  1.3385  0.3818 -2.3006
16842TIP3    H272018   3.853   4.563   0.328  1.2374  2.0742 -2.2452
16843TIP3   OH272019   0.244   3.158  14.823  0.2801  0.1790  0.3378
16843TIP3    H172020   0.323   3.104  14.830  0.0076 -0.3594 -0.5548
16843TIP3    H272021   0.174   3.101  14.857  0.1064  0.2459  0.0902
16844TIP3   OH272022   2.434   1.502  14.559 -0.0530  0.1694 -0.0483
16844TIP3    H172023   2.431   1.472  14.468  1.5006  0.8629 -0.3516
16844TIP3    H272024   2.525   1.491  14.585 -0.8209 -1.9206  2.1269
16845TIP3   OH272025   6.320   4.924  16.436  0.3703 -0.1202 -0.1851
16845TIP3    H172026   6.367   4.957  16.513 -1.1197 -0.3676  0.8697
16845TIP3    H272027   6.257   4.992  16.415  0.9502  0.0671 -1.3960
16846TIP3   OH272028   5.437   1.614  14.037  0.6241  0.1990 -0.6143
16846TIP3    H172029   5.425   1.665  13.957 -0.4235  0.3226 -0.3896
16846TIP3    H272030   5.453   1.680  14.105  0.6533  0.1410 -0.5645
16847TIP3   OH272031   5.326   4.652   2.119 -0.5961 -0.2370  0.6843
16847TIP3    H172032   5.385   4.657   2.043 -1.3429  0.2440  0.1137
16847TIP3    H272033   5.290   4.563   2.115  0.4440 -0.7019  1.3233
16848TIP3   OH272034   3.430   4.400   2.181  0.5673  0.4516 -0.0191
16848TIP3    H172035   3.508   4.350   2.157  1.8046  1.3231  1.9595
16848TIP3    H272036   3.457   4.492   2.174 -1.4510  0.9673 -2.9125
16849TIP3   OH272037   5.411   0.505  15.457 -0.0049 -0.0109  0.2013
16849TIP3    H172038   5.452   0.584  15.492 -0.1823  0.0155  0.3534
16849TIP3    H272039   5.357   0.536  15.384 -1.3849  0.2573  1.2802
16850TIP3   OH272040   2.496   4.321   1.021  0.6199 -0.7628 -0.3886
16850TIP3    H172041   2.421   4.379   1.035  2.2560  1.3012  0.3232
16850TIP3    H272042   2.522   4.338   0.931  2.2783  1.2073  0.3815
16851TIP3   OH272043   5.591   1.813   3.052  0.5275  0.6023 -0.4163
16851TIP3    H172044   5.558   1.833   2.965  0.1125 -0.6364 -0.5607
16851TIP3    H272045   5.641   1.732   3.041  1.2190  0.9208  0.3301
16852TIP3   OH272046   2.245   1.710   3.086 -0.2385 -0.2336 -0.3634
16852TIP3    H172047   2.223   1.626   3.047  0.5135 -1.0066  0.7999
16852TIP3    H272048   2.336   1.726   3.063 -0.3319  0.1959 -0.4573
16853TIP3   OH272049   2.753   5.820   0.300  0.4111 -0.0843  0.4923
16853TIP3    H172050   2.674   5.861   0.335  0.0921 -0.4884  0.2634
16853TIP3    H272051   2.762   5.739   0.349 -1.0268 -1.5370 -1.4446
16854TIP3   OH272052   3.288   6.135   4.819 -0.4609 -0.0096 -0.2004
16854TIP3    H172053   3.383   6.124   4.816 -0.3254  1.2545 -0.8702
16854TIP3    H272054   3.256   6.049   4.845  1.0188  0.1866  2.7073
16855TIP3   OH272055   5.741   5.940  16.214  0.3898  0.0201 -0.7847
16855TIP3    H172056   5.681   5.944  16.140 -0.0039  0.8156 -0.4368
16855TIP3    H272057   5.688   5.910  16.288  0.4423  0.5727 -0.5126
16856TIP3   OH272058   2.124   5.315   1.277 -0.6847  0.1198  0.1103
16856TIP3    H172059   2.205   5.330   1.228  0.1939  1.0627  1.7388
16856TIP3    H272060   2.112   5.221   1.276  0.8897 -0.1095  0.5113
16857TIP3   OH272061   3.483   1.185  16.311  0.2122 -0.2647 -0.0037
16857TIP3    H172062   3.453   1.105  16.267  0.1873 -0.6672  0.7222
16857TIP3    H272063   3.557   1.215  16.259  0.9837 -1.4338  0.3773
16858TIP3   OH272064   3.033   3.233  11.960  0.1247  0.0349 -0.3270
16858TIP3    H172065   3.052   3.321  11.992 -0.7860 -0.1077  0.7002
16858TIP3    H272066   3.100   3.178  12.001 -1.1989 -0.1888  1.7003
16859TIP3   OH272067   5.409   6.691  15.969  0.2740 -0.0120  0.8071
16859TIP3    H172068   5.323   6.691  15.926  0.8677 -0.9377 -0.4443
16859TIP3    H272069   5.438   6.600  15.964  2.3491  0.6555 -0.9887
16860TIP3   OH272070   4.349   4.786   1.786  0.2404 -0.1896  0.2133
16860TIP3    H172071   4.406   4.847   1.831  0.9534 -1.6594  1.3840
16860TIP3    H272072   4.314   4.836   1.712  0.1188  1.8619  1.5748
16861TIP3   OH272073   5.303   4.118   5.278 -0.3389 -0.1267  0.0594
16861TIP3    H172074   5.334   4.077   5.359 -1.9764 -0.6363  0.4615
16861TIP3    H272075   5.363   4.085   5.211  0.7031 -0.1362  0.9664
16862TIP3   OH272076   5.386   1.427   3.655 -0.3765  0.0931 -0.3923
16862TIP3    H172077   5.347   1.354   3.703 -0.8984 -1.1277 -2.5710
16862TIP3    H272078   5.311   1.470   3.613  0.1342  0.7245 -0.6703
16863TIP3   OH272079   1.972   4.527  10.658  0.0234  0.7070  0.1910
16863TIP3    H172080   1.892   4.491  10.696 -0.5448  3.6241  2.0820
16863TIP3    H272081   1.942   4.583  10.587  0.4943  1.0325  0.2471
16864TIP3   OH272082   0.335   3.835   3.353 -0.2855 -0.0685 -0.0406
16864TIP3    H172083   0.296   3.874   3.274 -1.0452  2.0087  1.2693
16864TIP3    H272084   0.287   3.875   3.425  0.9077 -1.3262  1.5115
16865TIP3   OH272085   4.953   0.087  14.829 -0.3815 -0.5302  0.1152
16865TIP3    H172086   4.970   0.016  14.891  1.4010 -0.9402 -0.7792
16865TIP3    H272087   4.905   0.045  14.757 -0.3307 -0.5829  0.1119
16866TIP3   OH272088   5.674   1.925  14.149 -0.1192 -0.1873 -0.1315
16866TIP3    H172089   5.621   1.988  14.101 -0.6623 -1.6135 -1.4982
16866TIP3    H272090   5.739   1.894  14.085  0.4083 -0.6919  0.6257
16867TIP3   OH272091   1.532   3.153  11.572  0.2143  0.1049  1.0128
16867TIP3    H172092   1.516   3.240  11.609  0.5669  0.2649  0.7975
16867TIP3    H272093   1.477   3.151  11.493  0.4614  0.2597  0.8363
16868TIP3   OH272094   2.455   1.558  13.791  0.1227 -0.2637  0.3626
16868TIP3    H172095   2.405   1.632  13.758  1.9737  0.3986 -1.1692
16868TIP3    H272096   2.465   1.575  13.884  0.1456  1.2212  0.1178
16869TIP3   OH272097   1.862   1.240   2.485  0.1589 -0.3115 -0.1227
16869TIP3    H172098   1.885   1.150   2.506  0.2434 -0.4421 -0.7339
16869TIP3    H272099   1.783   1.232   2.430  0.5027 -0.0553 -0.6668
16870TIP3   OH272100   5.137   0.908  15.893 -0.9529  0.3433 -0.4241
16870TIP3    H172101   5.184   0.991  15.883 -0.1397 -0.2231 -1.6615
16870TIP3    H272102   5.192   0.857  15.953 -0.7293  0.2134 -0.7337
16871TIP3   OH272103   2.762   1.741   1.058 -0.2753  0.0348  0.2033
16871TIP3    H172104   2.709   1.680   1.007 -2.6091  0.2565  2.1984
16871TIP3    H272105   2.731   1.828   1.032 -0.0270  0.2190  0.5102
16872TIP3   OH272106   5.672   1.622   5.739 -0.3957 -1.2192  0.0953
16872TIP3    H172107   5.624   1.559   5.793 -1.9774 -0.0323  0.1384
16872TIP3    H272108   5.702   1.688   5.800 -2.1765  0.1231 -0.3939
16873TIP3   OH272109   6.418   4.402   1.711 -0.0523  0.1185  0.0016
16873TIP3    H172110   6.467   4.480   1.686  0.5053 -0.6137 -1.2492
16873TIP3    H272111   6.352   4.434   1.772  1.8544  1.1605  1.6219
16874TIP3   OH272112   1.055   6.557  12.514  0.0658  0.8314  0.6679
16874TIP3    H172113   1.114   6.485  12.493 -1.8164 -0.9311  1.1967
16874TIP3    H272114   1.057   6.613  12.436  0.6845 -0.4024 -0.2346
16875TIP3   OH272115   0.190   2.193  12.965 -0.4249 -0.2948 -0.0726
16875TIP3    H172116   0.108   2.144  12.957 -0.8527  0.5221 -0.8548
16875TIP3    H272117   0.257   2.125  12.977 -1.2331 -0.9570  0.8484
16876TIP3   OH272118   4.851   6.393   3.805  0.3586 -0.0782  0.7805
16876TIP3    H172119   4.901   6.323   3.762 -1.2650 -0.5400 -0.4769
16876TIP3    H272120   4.892   6.473   3.774 -2.4097 -0.2038 -4.3428
16877TIP3   OH272121   1.858   3.432   3.130  0.3063  0.6152 -0.4199
16877TIP3    H172122   1.822   3.520   3.115  1.9994  1.3848 -0.2159
16877TIP3    H272123   1.917   3.443   3.205  0.2510 -0.7864 -0.1505
16878TIP3   OH272124   2.407   4.075  17.086 -0.0548  0.2812  0.2582
16878TIP3    H172125   2.464   4.006  17.051 -1.7859 -1.4088  0.6202
16878TIP3    H272126   2.446   4.096  17.171  0.7677  0.1026 -0.0653
16879TIP3   OH272127   2.880   5.728  16.838 -0.1450 -0.3373 -0.1603
16879TIP3    H172128   2.973   5.703  16.834  0.0466  0.2845  0.2466
16879TIP3    H272129   2.835   5.658  16.791  0.4495 -1.0436  0.2919
16880TIP3   OH272130   0.438   0.709  11.667  0.1803  0.2255 -0.3333
16880TIP3    H172131   0.440   0.623  11.625  1.2759  0.4581 -0.7987
16880TIP3    H272132   0.362   0.753  11.628  0.7060  0.1388 -1.4813
16881TIP3   OH272133   1.903   0.523  11.386 -0.1685 -0.4387  0.1697
16881TIP3    H172134   1.878   0.615  11.397 -1.0691 -0.6727  0.0781
16881TIP3    H272135   1.881   0.482  11.469 -0.2574 -0.6892  0.0217
16882TIP3   OH272136   6.564   0.875   0.511 -0.8476  0.3536 -0.6608
16882TIP3    H172137   6.509   0.943   0.474 -2.3127 -0.9045 -0.9035
16882TIP3    H272138   6.633   0.862   0.445 -2.3538 -0.5439 -2.1479
16883TIP3   OH272139   1.567   5.004   5.661  0.6526  0.2204 -0.4450
16883TIP3    H172140   1.571   5.074   5.596  0.6989  1.0899  0.4590
16883TIP3    H272141   1.647   5.015   5.713  0.8799 -0.7898 -0.5546
16884TIP3   OH272142   5.469   3.015   1.762 -0.1235 -0.0689  0.2145
16884TIP3    H172143   5.459   2.997   1.855 -0.7943 -0.2833  0.1105
16884TIP3    H272144   5.386   3.056   1.736 -1.5270 -3.2917 -1.0282
16885TIP3   OH272145   4.059   1.796  11.309  0.1877  0.4985 -0.0767
16885TIP3    H172146   4.018   1.860  11.367  0.4326 -1.6798  2.7610
16885TIP3    H272147   4.104   1.849  11.243 -2.3502  3.0840  0.0813
16886TIP3   OH272148   0.924   2.853  16.582 -0.2321  0.2108  0.4019
16886TIP3    H172149   0.956   2.800  16.509 -0.4607  0.0268  0.4302
16886TIP3    H272150   0.902   2.938  16.542 -3.5319 -0.8768 -0.4856
16887TIP3   OH272151   6.257   4.096  12.817  0.6345 -0.0758 -0.5783
16887TIP3    H172152   6.204   4.133  12.747  1.1738 -0.3154 -1.1110
16887TIP3    H272153   6.193   4.058  12.877  0.1567  0.4079 -0.7722
16888TIP3   OH272154   2.614   0.887   4.989 -0.9065  0.1555  0.0288
16888TIP3    H172155   2.593   0.978   5.009  1.3682  1.3098 -2.3184
16888TIP3    H272156   2.708   0.879   5.007 -1.0375 -1.7483  0.1316
16889TIP3   OH272157   3.473   0.901   1.889  0.0571  0.1873  0.1810
16889TIP3    H172158   3.540   0.840   1.858  0.5132  0.7995 -0.0521
16889TIP3    H272159   3.497   0.920   1.979  1.1284  1.6425 -0.3841
16890TIP3   OH272160   0.291   5.627  14.213 -0.1899 -0.1525 -0.1527
16890TIP3    H172161   0.343   5.548  14.202 -0.5004 -0.7397  2.1330
16890TIP3    H272162   0.203   5.596  14.235 -0.7274  0.8488 -0.7554
16891TIP3   OH272163   6.551   1.234  13.295  0.4276  0.5360 -0.5726
16891TIP3    H172164   6.504   1.297  13.350  0.0944  0.2751 -0.5500
16891TIP3    H272165   6.481   1.187  13.248  0.7407  1.7473 -2.3336
16892TIP3   OH272166   2.396   5.272   4.665 -0.1087 -0.1031 -0.3896
16892TIP3    H172167   2.436   5.198   4.712 -0.0598  1.6214  2.4615
16892TIP3    H272168   2.471   5.325   4.638 -0.2630  0.6427  0.6273
16893TIP3   OH272169   6.272   0.341  17.083 -0.7071 -0.0218 -0.4807
16893TIP3    H172170   6.207   0.343  17.154  0.3440 -1.0709  0.5555
16893TIP3    H272171   6.265   0.427  17.042 -0.0114  1.4313  2.1736
16894TIP3   OH272172   0.938   1.338  13.873 -0.9122  0.0234 -0.3623
16894TIP3    H172173   0.909   1.418  13.918  0.0141 -0.3322  0.9269
16894TIP3    H272174   0.860   1.308  13.825 -0.9137  2.4505 -2.0721
16895TIP3   OH272175   5.932   4.591   6.055 -0.1343  0.7798 -0.3085
16895TIP3    H172176   5.910   4.676   6.093 -0.0315  1.1045 -0.9620
16895TIP3    H272177   5.887   4.527   6.111 -0.8964  1.3080 -0.3103
16896TIP3   OH272178   3.419   0.897   2.760 -0.4615  0.2748 -0.6171
16896TIP3    H172179   3.332   0.911   2.722 -1.6823 -1.6712  1.2452
16896TIP3    H272180   3.406   0.902   2.854  1.3116 -0.7907 -0.2631
16897TIP3   OH272181   5.395   0.501  14.993 -0.1823  0.1076 -0.8883
16897TIP3    H172182   5.411   0.595  15.000  0.0372  0.0332 -0.2492
16897TIP3    H272183   5.329   0.492  14.925  0.9370  0.6061 -2.0630
16898TIP3   OH272184   2.110   2.436  13.161 -0.5504 -0.2701  0.0515
16898TIP3    H172185   2.080   2.527  13.154 -0.2658 -0.1837 -0.0460
16898TIP3    H272186   2.029   2.385  13.173 -0.7274 -0.0254 -0.0909
16899TIP3   OH272187   2.238   2.831   3.356 -0.0180 -0.0319 -0.1515
16899TIP3    H172188   2.227   2.753   3.411  1.3169  0.8431  1.4417
16899TIP3    H272189   2.171   2.892   3.386 -2.2795 -1.0943 -2.6106
16900TIP3   OH272190   6.588   2.695  13.021 -0.5856 -0.3303  0.0521
16900TIP3    H172191   6.615   2.787  13.016 -0.5510 -0.3569 -0.3041
16900TIP3    H272192   6.501   2.694  12.981  0.1183 -0.7260 -1.5749
16901TIP3   OH272193   0.660   2.601   4.760  0.6811  0.2630  1.0024
16901TIP3    H172194   0.592   2.562   4.814  0.9374 -0.6770  0.6747
16901TIP3    H272195   0.615   2.671   4.712  0.0670  0.0028  1.1830
16902TIP3   OH272196   3.609   5.546  16.404 -0.8556 -0.7433 -0.5540
16902TIP3    H172197   3.589   5.593  16.485  0.1240  1.9729 -1.7795
16902TIP3    H272198   3.531   5.557  16.349 -0.7076 -0.7743 -0.7718
16903TIP3   OH272199   1.316   3.193  15.306 -0.5307  0.0252 -0.0603
16903TIP3    H172200   1.286   3.209  15.217 -0.4112  3.3079  0.3555
16903TIP3    H272201   1.238   3.203  15.360 -0.1902  0.4312  0.3690
16904TIP3   OH272202   0.239   6.343   4.303  0.1364  0.2228 -0.1667
16904TIP3    H172203   0.259   6.362   4.212  3.0309 -0.2665  0.2892
16904TIP3    H272204   0.221   6.249   4.305  0.7275  0.1088 -0.1392
16905TIP3   OH272205   0.635   3.119   0.643 -0.0018 -0.2143 -0.8822
16905TIP3    H172206   0.580   3.057   0.597  0.1902 -0.4067 -0.8516
16905TIP3    H272207   0.724   3.084   0.635 -0.2400 -1.7756  1.9793
16906TIP3   OH272208   1.538   0.846  14.459  0.2500  0.3197  0.5885
16906TIP3    H172209   1.451   0.880  14.440  0.3535  0.4917  0.4208
16906TIP3    H272210   1.522   0.765  14.508 -0.0154 -0.1026 -0.1799
16907TIP3   OH272211   1.132   1.035   2.615  0.4293 -0.5156  0.2694
16907TIP3    H172212   1.101   0.954   2.575  1.5967 -1.2532  0.7991
16907TIP3    H272213   1.169   1.008   2.699 -0.0564  0.7117  0.9066
16908TIP3   OH272214   4.473   1.544  15.918  0.2157  0.1898  0.1045
16908TIP3    H172215   4.410   1.614  15.903  1.4303  1.5344  1.0900
16908TIP3    H272216   4.433   1.489  15.985 -0.1915  0.6753  0.2626
16909TIP3   OH272217   3.670   6.540   2.863 -0.5413  0.0557 -0.3371
16909TIP3    H172218   3.626   6.458   2.840 -0.3096 -0.0148 -0.5474
16909TIP3    H272219   3.721   6.562   2.784  0.0558 -0.0443  0.0133
16910TIP3   OH272220   5.633   2.031   3.224  0.3949  0.3543 -0.3324
16910TIP3    H172221   5.625   1.945   3.182  0.5527 -0.1822  0.7183
16910TIP3    H272222   5.726   2.042   3.238  0.3030  0.2963  0.3467
16911TIP3   OH272223   0.200   3.507   2.012  0.3508 -0.0363  0.0903
16911TIP3    H172224   0.181   3.550   2.096  3.3455  0.3928  0.6901
16911TIP3    H272225   0.195   3.414   2.031  1.3077  0.0540  0.8897
16912TIP3   OH272226   5.838   2.256  16.321 -0.2984  0.1985 -0.1578
16912TIP3    H172227   5.768   2.267  16.384  0.8081  3.9809  0.6579
16912TIP3    H272228   5.909   2.214  16.370 -1.2257 -1.8834 -0.4870
16913TIP3   OH272229   3.327   1.647   4.856 -0.4520 -0.0648 -0.3112
16913TIP3    H172230   3.338   1.593   4.777  2.6063 -0.2084  0.0644
16913TIP3    H272231   3.302   1.733   4.823  0.7616 -0.1271 -1.5125
16914TIP3   OH272232   3.328   4.018   1.633  0.0606  0.4604 -0.1106
16914TIP3    H172233   3.305   4.105   1.601  0.1602  0.1375 -1.0829
16914TIP3    H272234   3.363   4.033   1.721  0.8292  1.4853 -0.5835
16915TIP3   OH272235   4.682   1.478  14.275  0.0225  0.3061  0.1139
16915TIP3    H172236   4.703   1.391  14.307 -1.2910  0.0392  0.3139
16915TIP3    H272237   4.628   1.463  14.197 -0.4762  0.9417  0.3285
16916TIP3   OH272238   0.617   6.714  16.708 -1.1636 -0.3108 -0.7407
16916TIP3    H172239   0.696   6.664  16.729 -0.4828  0.7722 -0.6273
16916TIP3    H272240   0.559   6.651  16.664  0.4300 -0.7392 -2.3542
16917TIP3   OH272241   5.765   3.261   4.189 -0.1714 -0.4897  0.2746
16917TIP3    H172242   5.701   3.201   4.228  0.4012  0.0558  2.1982
16917TIP3    H272243   5.825   3.205   4.141 -1.3493 -1.1351 -0.5095
16918TIP3   OH272244   6.157   6.622   4.399  0.4455  0.3656  0.1238
16918TIP3    H172245   6.182   6.667   4.481 -0.2635  1.8604 -0.4468
16918TIP3    H272246   6.225   6.556   4.387  0.4890  0.0040  1.9998
16919TIP3   OH272247   4.304   5.262   1.503 -0.2617  0.2368  0.3135
16919TIP3    H172248   4.278   5.295   1.417  0.4856  1.0276  0.3775
16919TIP3    H272249   4.234   5.200   1.527 -0.4015 -0.1167 -0.9174
16920TIP3   OH272250   6.309   4.875  15.507 -0.0438  0.4744  0.1963
16920TIP3    H172251   6.400   4.864  15.536 -0.5744 -0.5422  1.5760
16920TIP3    H272252   6.309   4.958  15.460  1.7425  0.1506 -0.4370
16921TIP3   OH272253   5.850   3.062   5.715 -0.3957 -0.0702 -0.6850
16921TIP3    H172254   5.936   3.103   5.725 -0.9700  1.4843 -1.7109
16921TIP3    H272255   5.788   3.133   5.729 -1.5858 -1.3650  0.9994
16922TIP3   OH272256   3.983   3.463  16.936 -0.2629 -0.3303  0.3527
16922TIP3    H172257   4.017   3.461  16.846  1.2624  1.5149  0.8077
16922TIP3    H272258   3.921   3.536  16.936 -0.0612 -0.1544  0.8314
16923TIP3   OH272259   3.634   0.195  14.923  0.3261  0.2190  0.2565
16923TIP3    H172260   3.569   0.235  14.982 -0.7902  0.3122 -0.9926
16923TIP3    H272261   3.610   0.103  14.920  0.4734  0.1857  0.0653
16924TIP3   OH272262   1.552   3.546   1.817 -0.4093  0.3059  1.3171
16924TIP3    H172263   1.519   3.589   1.738 -0.5122 -3.2539 -0.8262
16924TIP3    H272264   1.647   3.559   1.813 -0.3685 -0.2195  0.3203
16925TIP3   OH272265   5.281   2.359   0.344 -0.5491 -0.1974 -0.6638
16925TIP3    H172266   5.341   2.291   0.316  0.5624  0.2611  0.5261
16925TIP3    H272267   5.219   2.368   0.272 -0.3175 -1.9778 -1.1216
16926TIP3   OH272268   5.922   2.900  13.636 -0.2059  0.4170 -0.0789
16926TIP3    H172269   5.972   2.820  13.618 -0.6214  0.0047  0.5598
16926TIP3    H272270   5.986   2.959  13.678  0.3305  0.7706 -1.3285
16927TIP3   OH272271   4.422   1.814   6.428 -0.5020  0.3446  0.3415
16927TIP3    H172272   4.507   1.857   6.432  0.2838 -1.1894  0.7094
16927TIP3    H272273   4.441   1.725   6.398 -1.9509 -0.1095  0.6796
16928TIP3   OH272274   5.129   0.663  14.786 -1.2077  0.3090  0.4145
16928TIP3    H172275   5.171   0.614  14.716 -0.9315  0.2329  0.6307
16928TIP3    H272276   5.109   0.598  14.853  2.7506  0.9247  2.4856
16929TIP3   OH272277   2.080   0.564  16.649  0.2938 -0.3829 -0.0224
16929TIP3    H172278   2.108   0.651  16.621  0.3388 -0.5478 -0.5057
16929TIP3    H272279   1.988   0.559  16.623  0.8538 -1.2796 -2.0267
16930TIP3   OH272280   4.519   1.185   4.723  0.4255  0.1631 -0.4352
16930TIP3    H172281   4.489   1.145   4.642  0.5718  1.1786 -1.0064
16930TIP3    H272282   4.571   1.260   4.695  0.6589  0.4044  0.5966
16931TIP3   OH272283   1.237   5.447  14.250  0.3677  0.1441  0.5447
16931TIP3    H172284   1.152   5.465  14.289 -0.3318  2.4750 -1.7799
16931TIP3    H272285   1.299   5.496  14.303  0.0128 -0.0377  1.1343
16932TIP3   OH272286   2.105   0.987   5.331  0.3053 -0.6236 -0.7241
16932TIP3    H172287   2.094   1.081   5.318 -0.9073 -0.8273 -1.2859
16932TIP3    H272288   2.079   0.947   5.248 -0.1173 -1.5096 -0.1844
16933TIP3   OH272289   4.683   3.672  16.188  0.5401 -0.2152  0.1049
16933TIP3    H172290   4.755   3.734  16.180 -1.9864  3.0542  0.4411
16933TIP3    H272291   4.604   3.727  16.184 -1.9550 -3.5351 -0.1752
16934TIP3   OH272292   5.650   0.625  12.976  0.5341  0.6096  0.1548
16934TIP3    H172293   5.625   0.532  12.983  2.1979 -0.1191 -2.2123
16934TIP3    H272294   5.570   0.668  12.946 -0.1802 -0.0983  0.9666
16935TIP3   OH272295   0.430   3.107  11.618  0.2695 -0.2298  0.0727
16935TIP3    H172296   0.502   3.071  11.669 -1.8803 -4.2808  0.5959
16935TIP3    H272297   0.396   3.033  11.567 -1.0542  2.4084 -3.3172
16936TIP3   OH272298   0.764   2.856   0.420  0.2220  1.2570  0.3990
16936TIP3    H172299   0.823   2.885   0.489  0.6516  4.3015 -1.0714
16936TIP3    H272300   0.733   2.937   0.379 -0.5581 -0.3528 -2.5046
16937TIP3   OH272301   1.859   4.400  16.414 -0.0574  0.5479 -0.2001
16937TIP3    H172302   1.863   4.319  16.465  0.9043  0.6986 -0.0243
16937TIP3    H272303   1.769   4.431  16.425 -0.9012 -1.2948 -1.5320
16938TIP3   OH272304   3.749   0.665  14.249 -0.4297 -0.6348 -0.6906
16938TIP3    H172305   3.756   0.642  14.157  0.8016  1.7307 -1.2722
16938TIP3    H272306   3.671   0.720  14.255  0.4203  0.6383 -0.7240
16939TIP3   OH272307   5.945   4.157  15.461 -0.1682  0.1024 -0.3488
16939TIP3    H172308   6.000   4.128  15.388 -0.2514  0.8316 -0.7098
16939TIP3    H272309   6.000   4.146  15.538 -0.9351 -3.2096 -0.1053
16940TIP3   OH272310   4.066   0.455  11.482 -0.0986 -0.2194 -0.0276
16940TIP3    H172311   4.131   0.453  11.551 -0.5395  0.2394  0.4096
16940TIP3    H272312   4.115   0.473  11.402  0.4341 -0.9233  0.1349
16941TIP3   OH272313   2.534   6.229   1.627 -0.4546  0.0668  0.3765
16941TIP3    H172314   2.528   6.323   1.646 -1.3490 -0.4042  2.7777
16941TIP3    H272315   2.602   6.198   1.686  0.0630 -0.7606 -0.6407
16942TIP3   OH272316   2.530   1.170  16.429  0.1480  0.5585 -0.1656
16942TIP3    H172317   2.475   1.245  16.405  1.2792  1.0181 -1.4490
16942TIP3    H272318   2.536   1.118  16.348 -0.4079 -0.8205  0.6291
16943TIP3   OH272319   5.247   5.214   3.241  0.2468 -0.0083  0.3456
16943TIP3    H172320   5.216   5.275   3.307  1.2151  1.0934 -0.1685
16943TIP3    H272321   5.168   5.183   3.197 -0.4063 -0.8207  2.0516
16944TIP3   OH272322   2.296   6.490  16.670  0.0233 -0.4406  0.3290
16944TIP3    H172323   2.252   6.430  16.609 -0.2963  1.4064 -1.3631
16944TIP3    H272324   2.382   6.504  16.630  0.2484 -0.1035  0.9281
16945TIP3   OH272325   4.659   5.575   5.237  0.1029 -0.5111 -0.3209
16945TIP3    H172326   4.672   5.480   5.244  1.4770 -0.5236 -2.2247
16945TIP3    H272327   4.726   5.613   5.294 -1.4892 -0.6259  1.7427
16946TIP3   OH272328   3.989   1.178   4.262  0.2029  0.0714  0.3518
16946TIP3    H172329   4.002   1.210   4.351  0.0725 -0.3083  0.5089
16946TIP3    H272330   4.041   1.237   4.208  1.1062 -0.3109  0.7831
16947TIP3   OH272331   6.046   2.805  10.608 -0.1358 -0.1324  0.2569
16947TIP3    H172332   6.115   2.837  10.550  0.7372 -4.4484 -1.5296
16947TIP3    H272333   5.965   2.836  10.567  0.5765  1.8945  0.2559
16948TIP3   OH272334   2.886   2.675  12.659  0.1512  0.2010 -0.5300
16948TIP3    H172335   2.868   2.591  12.617 -0.3598  0.5566 -1.0370
16948TIP3    H272336   2.858   2.664  12.750  0.9687 -0.4737 -0.3462
16949TIP3   OH272337   5.291   4.944  14.915  0.4851 -0.2694  0.0558
16949TIP3    H172338   5.259   4.979  14.998 -1.6996 -1.4663 -0.1871
16949TIP3    H272339   5.295   4.849  14.928 -2.5548 -0.8166 -1.8741
16950TIP3   OH272340   4.457   6.709  13.862  0.1185 -0.2165  0.5681
16950TIP3    H172341   4.482   6.712  13.955  2.2175  0.4754  0.0393
16950TIP3    H272342   4.520   6.649  13.823 -0.3842 -0.0489 -0.5232
16951TIP3   OH272343   2.684   1.820   4.847  0.3355  0.3003  0.0476
16951TIP3    H172344   2.590   1.818   4.862  0.4679  1.6451  1.4216
16951TIP3    H272345   2.717   1.880   4.915  2.0859  0.4064 -0.8420
16952TIP3   OH272346   3.219   3.118   1.474  0.1448 -0.4841 -0.2582
16952TIP3    H172347   3.218   3.037   1.525 -0.8929 -0.1102  0.3388
16952TIP3    H272348   3.248   3.091   1.387 -2.3977 -1.9429 -0.7632
16953TIP3   OH272349   4.237   2.431   6.404  0.0527 -0.2733 -0.2311
16953TIP3    H172350   4.169   2.387   6.353 -1.6160 -0.1231  1.7090
16953TIP3    H272351   4.192   2.507   6.442  1.0743 -0.5975  1.7488
16954TIP3   OH272352   3.908   3.863   4.964  0.3134 -0.0470  0.4487
16954TIP3    H172353   3.858   3.783   4.953 -3.4686  2.3308 -2.1465
16954TIP3    H272354   3.925   3.893   4.874  3.2432  1.2136  1.3095
16955TIP3   OH272355   2.123   3.412  12.312 -0.7264 -0.0524  0.0110
16955TIP3    H172356   2.199   3.454  12.354  0.8381 -1.1235 -1.6049
16955TIP3    H272357   2.079   3.366  12.384  0.6041 -0.0406  0.8781
16956TIP3   OH272358   1.446   3.177  12.428 -0.4048  0.5817  0.3388
16956TIP3    H172359   1.373   3.118  12.443 -0.3924  0.7035  0.8895
16956TIP3    H272360   1.524   3.125  12.448 -0.4119  0.9129  1.3131
16957TIP3   OH272361   1.205   5.949  12.610  0.1481 -0.2203 -0.2394
16957TIP3    H172362   1.153   6.026  12.632 -1.3128 -0.9204 -1.0636
16957TIP3    H272363   1.296   5.980  12.609 -0.4841  1.8530 -1.8889
16958TIP3   OH272364   1.061   2.798  15.328  0.1035  0.4078  0.0364
16958TIP3    H172365   0.973   2.834  15.320  0.1116  1.0365  2.1806
16958TIP3    H272366   1.086   2.815  15.419  1.4535 -2.0349  0.2143
16959TIP3   OH272367   1.918   5.624  11.029  0.4437  0.2356  0.3953
16959TIP3    H172368   1.877   5.563  10.967  2.5091 -0.6359 -0.2170
16959TIP3    H272369   2.012   5.606  11.021  0.9977  2.3195  1.4973
16960TIP3   OH272370   4.510   3.454   1.969 -0.0616 -0.5514  0.4981
16960TIP3    H172371   4.539   3.462   1.878 -1.9126  1.9626  0.0036
16960TIP3    H272372   4.576   3.503   2.018  0.2572 -0.8271  0.3527
16961TIP3   OH272373   0.220   2.028  12.579  0.0930  0.7111 -0.1795
16961TIP3    H172374   0.281   2.094  12.613  1.5655 -0.0515 -1.2538
16961TIP3    H272375   0.257   2.001  12.495 -2.0691  0.6434 -1.1823
16962TIP3   OH272376   4.821   2.347   4.853 -0.3200  0.3591  0.0862
16962TIP3    H172377   4.727   2.328   4.847 -0.4144  1.0969 -0.9061
16962TIP3    H272378   4.858   2.269   4.894 -0.9503 -1.2039 -2.1628
16963TIP3   OH272379   4.749   0.893  17.288  0.0533 -0.1470 -0.0597
16963TIP3    H172380   4.672   0.859  17.333 -0.1761  1.2718  0.6931
16963TIP3    H272381   4.777   0.968  17.341  2.0442 -0.7004 -0.2545
16964TIP3   OH272382   6.435   5.937   4.066  0.3239 -0.1470 -0.0646
16964TIP3    H172383   6.489   5.920   3.989  0.1312  0.4472 -0.3353
16964TIP3    H272384   6.467   5.876   4.132  0.7962 -0.3421 -0.4711
16965TIP3   OH272385   6.478   6.164  11.936  0.3223  0.2296 -0.0775
16965TIP3    H172386   6.538   6.198  12.003  0.8107 -1.2484  0.2583
16965TIP3    H272387   6.418   6.108  11.984 -1.8752  2.2282 -0.2802
16966TIP3   OH272388   4.510   2.933   1.717  0.4111  0.3854  0.1360
16966TIP3    H172389   4.569   2.894   1.781 -1.1447 -1.4670  0.5198
16966TIP3    H272390   4.448   2.984   1.770 -2.1920 -2.8458  0.4875
16967TIP3   OH272391   3.385   1.662  10.242 -0.3327  0.1591 -0.7634
16967TIP3    H172392   3.352   1.712  10.317 -0.8967  0.9771 -1.5357
16967TIP3    H272393   3.311   1.657  10.182  0.0377 -0.7063 -1.1725
16968TIP3   OH272394   6.395   5.972  10.645 -0.0748 -0.1322 -0.0408
16968TIP3    H172395   6.405   6.046  10.704  2.1068  0.3864 -0.9642
16968TIP3    H272396   6.301   5.953  10.645 -0.4646  1.6145  1.4132
16969TIP3   OH272397   6.589   1.670  11.565 -0.0511 -0.3379 -0.7378
16969TIP3    H172398   6.599   1.764  11.577  1.8515 -0.6269  0.2719
16969TIP3    H272399   6.557   1.660  11.475 -1.9092  1.3153 -0.3166
16970TIP3   OH272400   5.675   0.458  16.593  0.3804  0.0338  0.1408
16970TIP3    H172401   5.664   0.373  16.635 -3.2184 -0.2842 -1.1147
16970TIP3    H272402   5.698   0.517  16.665  0.1910 -1.4948  1.5190
16971TIP3   OH272403   1.113   1.444   4.550 -0.1261 -0.2080 -0.3295
16971TIP3    H172404   1.044   1.442   4.484 -0.5928 -1.0445  0.1632
16971TIP3    H272405   1.165   1.521   4.528 -1.6327  0.8682 -0.2690
16972TIP3   OH272406   0.730   0.080  12.587  0.1042  0.4419  0.1147
16972TIP3    H172407   0.677   0.042  12.517  0.3508 -2.1278  1.2209
16972TIP3    H272408   0.732   0.013  12.655  1.4959  2.0663  1.7773
16973TIP3   OH272409   3.360   1.106   4.423 -0.2943 -0.6435  0.9165
16973TIP3    H172410   3.421   1.069   4.359 -1.4081 -0.2753 -0.4227
16973TIP3    H272411   3.324   1.030   4.469 -0.9792 -1.1077 -0.3285
16974TIP3   OH272412   3.651   3.803   1.640  0.4518  0.5142  0.0460
16974TIP3    H172413   3.711   3.733   1.616  0.9605  0.6725  0.8186
16974TIP3    H272414   3.625   3.842   1.556 -0.3445 -0.9740 -0.4482
16975TIP3   OH272415   2.015   0.913  15.488  0.8559 -0.0587 -1.0986
16975TIP3    H172416   2.062   0.986  15.448  1.0414  0.0190 -0.7460
16975TIP3    H272417   2.084   0.850  15.512  0.9209  0.5830  0.5146
16976TIP3   OH272418   4.565   2.990  11.591 -0.2784 -0.2125 -0.1910
16976TIP3    H172419   4.500   3.011  11.525  0.5171  0.6168 -0.7299
16976TIP3    H272420   4.644   3.037  11.563 -0.0233  0.4494  1.5279
16977TIP3   OH272421   5.449   5.815  15.585 -0.3329  0.6054  0.0139
16977TIP3    H172422   5.390   5.796  15.658  0.5954 -0.2997  0.5516
16977TIP3    H272423   5.416   5.760  15.513 -1.2397  1.4893 -0.2801
16978TIP3   OH272424   2.173   3.828  16.784  0.5913  0.4383 -0.6823
16978TIP3    H172425   2.101   3.842  16.845 -0.1993  0.3951 -1.5854
16978TIP3    H272426   2.252   3.832  16.839 -0.0904  0.4343  0.3261
16979TIP3   OH272427   1.587   6.133  16.693  0.1541 -0.6700 -0.2574
16979TIP3    H172428   1.582   6.227  16.711 -0.8002 -0.8617  0.5886
16979TIP3    H272429   1.518   6.094  16.747 -2.6487 -1.3976 -3.9132
16980TIP3   OH272430   6.786   6.199   2.185 -0.4543  0.1323 -0.5842
16980TIP3    H172431   6.836   6.117   2.184  0.8418  0.8725 -2.3495
16980TIP3    H272432   6.848   6.264   2.219 -1.2808  0.5199  0.2261
16981TIP3   OH272433   0.096   6.561  15.197  0.4100  0.4984 -0.0398
16981TIP3    H172434   0.180   6.604  15.179  1.0059 -0.8582 -0.6561
16981TIP3    H272435   0.069   6.596  15.282  0.9351  1.9362 -0.4240
16982TIP3   OH272436   4.224   0.513  12.064  0.5273 -0.3907  0.0162
16982TIP3    H172437   4.249   0.571  12.136  0.4027 -2.1820  1.5707
16982TIP3    H272438   4.130   0.498  12.076  0.4860 -0.6478 -0.5689
16983TIP3   OH272439   6.077   5.696  11.014  0.4497 -0.2791  0.5455
16983TIP3    H172440   6.136   5.627  10.983  1.8051  0.7222  0.7696
16983TIP3    H272441   6.017   5.711  10.941  0.8237 -0.9372  0.0868
16984TIP3   OH272442   4.174   3.900   2.419 -0.4873 -0.3933 -0.7955
16984TIP3    H172443   4.207   3.976   2.371 -0.7318 -0.5391 -1.1985
16984TIP3    H272444   4.189   3.826   2.360  0.6386 -0.8103 -0.0287
16985TIP3   OH272445   1.874   0.469   0.267  0.3459 -0.9529 -0.7848
16985TIP3    H172446   1.969   0.470   0.279  0.2921  1.6384 -0.1036
16985TIP3    H272447   1.841   0.426   0.346  0.9007 -0.9441 -0.5388
16986TIP3   OH272448   3.253   2.999  13.012  0.1725  0.4214 -0.0507
16986TIP3    H172449   3.194   2.971  13.083  1.0261  0.9320  0.8918
16986TIP3    H272450   3.326   2.938  13.017  0.5978  0.9293  0.0096
16987TIP3   OH272451   0.719   0.034  13.763  0.5330 -0.1433  0.2962
16987TIP3    H172452   0.705   0.081  13.681 -1.5333 -1.0297  0.0748
16987TIP3    H272453   0.767   0.095  13.819 -2.8512  2.7325  0.3924
16988TIP3   OH272454   1.056   0.301  16.528 -0.0169 -0.0953  0.0228
16988TIP3    H172455   1.072   0.393  16.550 -1.7997  0.4126 -0.6197
16988TIP3    H272456   1.126   0.279  16.467 -0.4795  1.3634 -1.0869
16989TIP3   OH272457   2.263   5.433   1.984  0.3049 -0.8492 -0.3037
16989TIP3    H172458   2.201   5.502   1.962 -1.1349 -1.8102  0.6100
16989TIP3    H272459   2.302   5.408   1.900 -1.5196 -1.1284 -1.1066
16990TIP3   OH272460   5.249   4.874   5.218  0.3860  0.7233  0.0778
16990TIP3    H172461   5.280   4.841   5.303  1.2510  2.3862  0.4527
16990TIP3    H272462   5.328   4.908   5.175 -0.5257  3.0772  0.1217
16991TIP3   OH272463   0.276   6.303  11.368  0.1429  0.4582 -0.4783
16991TIP3    H172464   0.294   6.231  11.308  1.0416  0.5229 -0.3028
16991TIP3    H272465   0.359   6.317  11.414 -1.0497 -1.0908  2.4269
16992TIP3   OH272466   3.621   6.533  16.723  0.6283 -0.2776 -0.2455
16992TIP3    H172467   3.688   6.476  16.761  1.0153  0.7895  0.7341
16992TIP3    H272468   3.635   6.528  16.629  1.6156 -0.6352 -0.0884
16993TIP3   OH272469   2.330   1.465  13.412 -0.6488  0.4227  0.1358
16993TIP3    H172470   2.281   1.491  13.490  2.1408  1.5431  1.6604
16993TIP3    H272471   2.308   1.531  13.346  0.4653  2.3143  1.5457
16994TIP3   OH272472   6.279   0.505  16.220 -0.6171  0.3291  0.9685
16994TIP3    H172473   6.294   0.567  16.292 -1.1985 -0.5998  1.9191
16994TIP3    H272474   6.184   0.496  16.216 -0.5345 -0.5278  0.8712
16995TIP3   OH272475   5.966   5.097   2.458  0.1293  0.0613 -0.0110
16995TIP3    H172476   6.011   5.075   2.376 -1.3797  0.1912 -0.9187
16995TIP3    H272477   5.984   5.190   2.471 -0.7020  0.3753 -0.9484
16996TIP3   OH272478   5.272   1.393  10.259 -0.0581  0.1428 -0.4425
16996TIP3    H172479   5.334   1.338  10.212 -0.3994 -0.7239  0.1075
16996TIP3    H272480   5.318   1.418  10.340 -0.6443 -1.0519  0.2835
16997TIP3   OH272481   1.766   1.910  13.246  0.5778  0.5862  0.1764
16997TIP3    H172482   1.792   1.827  13.286 -0.4196 -0.1261 -0.6404
16997TIP3    H272483   1.671   1.911  13.250  0.5137  1.0471 -1.1086
16998TIP3   OH272484   1.562   2.897  13.617 -0.4240  0.0392  0.0727
16998TIP3    H172485   1.495   2.942  13.669  0.5007 -0.4951  1.8270
16998TIP3    H272486   1.540   2.804  13.626  0.8557 -0.1942  1.2116
16999TIP3   OH272487   5.872   6.243   1.610  0.0178 -0.0088  0.2897
16999TIP3    H172488   5.905   6.324   1.651  1.4452  0.1300 -1.0332
16999TIP3    H272489   5.785   6.267   1.577  0.3866  0.9748 -0.0097
17000TIP3   OH272490   0.229   2.759   3.156  0.0649  0.2786 -0.1592
17000TIP3    H172491   0.141   2.722   3.150  0.8574 -1.6896 -0.3450
17000TIP3    H272492   0.230   2.829   3.091 -0.9670 -0.5406 -1.1016
17001TIP3   OH272493   2.492   6.453  15.263  0.1219  0.4883 -0.4478
17001TIP3    H172494   2.437   6.530  15.277 -0.6169 -0.1129  0.0942
17001TIP3    H272495   2.430   6.379  15.265  0.7346 -0.0847 -1.4755
17002TIP3   OH272496   1.207   4.739   5.087 -0.2358 -0.3865  0.5898
17002TIP3    H172497   1.227   4.831   5.105  3.2605 -0.7115 -0.9040
17002TIP3    H272498   1.224   4.729   4.993 -2.2267 -2.2504  0.3497
17003TIP3   OH272499   3.462   0.099  16.092  0.8097  0.5971  0.5580
17003TIP3    H172500   3.477   0.008  16.067  2.4346  0.8361  0.5954
17003TIP3    H272501   3.458   0.147  16.009  1.0786  0.6485  0.5739
17004TIP3   OH272502   1.954   4.975   5.188  0.0500  0.7224  0.1039
17004TIP3    H172503   1.927   4.948   5.100 -0.3054 -0.8856  0.6732
17004TIP3    H272504   1.981   4.894   5.230  0.0500  1.4486  1.5449
17005TIP3   OH272505   4.393   0.327   1.161  0.0055  0.3741  0.7103
17005TIP3    H172506   4.347   0.404   1.195 -1.3830 -0.5678  1.0885
17005TIP3    H272507   4.332   0.290   1.097  0.1775 -0.9470  1.2685
17006TIP3   OH272508   1.178   4.335   0.047  0.3579  0.4880  0.5098
17006TIP3    H172509   1.179   4.430   0.044  0.5154  0.4728 -1.2946
17006TIP3    H272510   1.167   4.308  -0.044 -2.3357 -1.2066  1.2273
17007TIP3   OH272511   1.460   6.472  13.301 -1.2347 -0.0588 -0.4479
17007TIP3    H172512   1.462   6.496  13.394 -2.0325  0.8049 -0.6437
17007TIP3    H272513   1.369   6.485  13.275 -1.5213 -2.3945 -0.8272
17008TIP3   OH272514   4.414   1.921   4.906  0.2187  0.2860  0.7985
17008TIP3    H172515   4.331   1.916   4.860  1.6764 -0.3352 -2.0151
17008TIP3    H272516   4.394   1.966   4.988 -2.4593  2.2064 -0.7564
17009TIP3   OH272517   1.101   2.055  17.224  0.3343  0.5528 -0.0667
17009TIP3    H172518   1.144   1.988  17.277 -2.3414 -0.4040  1.0392
17009TIP3    H272519   1.108   2.135  17.276 -0.8344 -0.0176  1.0010
17010TIP3   OH272520   5.945   1.027   3.393 -0.3565 -0.4572  0.1602
17010TIP3    H172521   6.006   0.994   3.459  0.8757 -1.4651 -1.4363
17010TIP3    H272522   5.966   1.120   3.386  1.3622 -0.8842 -0.7058
17011TIP3   OH272523   3.311   6.732  13.721  0.3462 -0.1971 -0.0592
17011TIP3    H172524   3.337   6.820  13.745 -0.2649 -0.1401  0.4204
17011TIP3    H272525   3.360   6.713  13.641  0.6308  0.4993 -0.0523
17012TIP3   OH272526   5.674   5.583  13.264 -0.1234  1.0262 -0.8657
17012TIP3    H172527   5.629   5.503  13.293  0.4437  0.7609 -0.6989
17012TIP3    H272528   5.744   5.551  13.207  2.3562  1.0773  1.9046
17013TIP3   OH272529   0.643   4.381  13.519  0.5652  0.0182 -0.0920
17013TIP3    H172530   0.731   4.345  13.526  1.5150  2.2198  0.1880
17013TIP3    H272531   0.617   4.401  13.609  0.3074  0.5618 -0.2812
17014TIP3   OH272532   1.950   1.118  14.705 -0.6763  0.8935  0.1837
17014TIP3    H172533   2.018   1.108  14.772 -0.9770  0.1477  0.3825
17014TIP3    H272534   1.972   1.201  14.661  2.7656 -1.1409 -2.4615
17015TIP3   OH272535   0.553   3.526   1.132 -0.1498 -0.4468  0.5422
17015TIP3    H172536   0.598   3.453   1.091 -2.6651 -0.7412 -2.0412
17015TIP3    H272537   0.461   3.501   1.133 -1.1351  2.6112 -0.4677
17016TIP3   OH272538   6.425   3.955   5.678 -0.3067  0.0192 -0.5348
17016TIP3    H172539   6.358   3.953   5.747 -0.9066  2.1007 -0.9703
17016TIP3    H272540   6.508   3.959   5.726 -0.4784 -1.9027  0.0144
17017TIP3   OH272541   0.320   5.049  17.232 -0.2235  0.1703  0.5881
17017TIP3    H172542   0.266   5.115  17.276 -1.1881 -0.1987 -0.0055
17017TIP3    H272543   0.404   5.093  17.218 -0.6577  1.0792  0.7157
17018TIP3   OH272544   4.854   0.855   3.844  0.3201 -0.3300  0.4062
17018TIP3    H172545   4.823   0.825   3.930 -0.7675  0.6104  0.3627
17018TIP3    H272546   4.816   0.793   3.782  1.6445 -1.4056  0.6233
17019TIP3   OH272547   0.920   3.748  14.552 -0.8779 -0.0738 -0.1353
17019TIP3    H172548   0.895   3.830  14.594 -0.6182  0.5718 -1.2111
17019TIP3    H272549   0.947   3.773  14.464  0.4494 -1.1501 -0.0704
17020TIP3   OH272550   1.084   2.145  14.704  0.1953 -0.7211 -0.2224
17020TIP3    H172551   1.018   2.212  14.723  0.6077 -0.0070 -1.2099
17020TIP3    H272552   1.139   2.185  14.636  0.8599 -1.8057 -0.3358
17021TIP3   OH272553   5.510   2.544   1.336  0.0405  0.0875 -0.1696
17021TIP3    H172554   5.439   2.583   1.285 -0.6059  1.1621  1.4552
17021TIP3    H272555   5.526   2.608   1.406  3.9065  0.8237 -1.4974
17022TIP3   OH272556   0.751   5.762   6.010 -0.0989 -0.1316  0.4656
17022TIP3    H172557   0.728   5.669   6.010  0.4405 -0.3086  2.8794
17022TIP3    H272558   0.700   5.798   5.937 -0.2843 -2.3003 -0.5686
17023TIP3   OH272559   4.703   2.757   0.472 -0.0169 -0.5457  0.6498
17023TIP3    H172560   4.627   2.699   0.468  0.3347 -1.0223  0.7555
17023TIP3    H272561   4.778   2.700   0.451  0.4434 -0.3339  1.6513
17024TIP3   OH272562   0.712   1.420   1.394  0.2468 -0.7183  0.2102
17024TIP3    H172563   0.684   1.386   1.309  0.9691 -1.5677  0.3026
17024TIP3    H272564   0.633   1.418   1.448 -0.0206 -0.9672 -0.1844
17025TIP3   OH272565   0.034   2.441  13.144  0.0827  0.0563  0.6832
17025TIP3    H172566  -0.006   2.367  13.099  0.4672 -0.6070  1.4089
17025TIP3    H272567  -0.040   2.487  13.185 -0.2572  0.5936 -0.4767
17026TIP3   OH272568   6.031   1.093  12.587 -1.0287 -0.0587 -0.2021
17026TIP3    H172569   6.086   1.112  12.664 -0.3948 -2.3101 -0.0320
17026TIP3    H272570   5.999   1.179  12.559  0.1000  1.0026  1.5497
17027TIP3   OH272571   1.544   3.544  13.179 -0.1797  0.3877  0.0659
17027TIP3    H172572   1.466   3.499  13.148 -0.4705  0.2729  0.9304
17027TIP3    H272573   1.607   3.474  13.196 -0.0163  0.4509 -0.2662
17028TIP3   OH272574   4.562   0.272   6.080 -0.2650 -0.0871 -0.0715
17028TIP3    H172575   4.638   0.280   6.023  0.3332 -1.4899  0.4854
17028TIP3    H272576   4.487   0.268   6.021 -0.0008  1.8694 -0.6073
17029TIP3   OH272577   3.428   1.505   0.415  0.0857 -0.2726 -0.4090
17029TIP3    H172578   3.480   1.454   0.478  0.1822  0.4828  0.1418
17029TIP3    H272579   3.493   1.547   0.359 -0.0220 -2.6666 -2.4796
17030TIP3   OH272580   4.193   5.000  16.676  0.4385 -0.0438 -0.1043
17030TIP3    H172581   4.234   4.985  16.591  1.3624  1.4671  0.0389
17030TIP3    H272582   4.253   5.060  16.721  0.5007 -1.5971  2.0295
17031TIP3   OH272583   2.071   6.559  17.296  0.0054 -0.4116  0.4569
17031TIP3    H172584   2.155   6.572  17.339 -0.6355  2.5725  1.0258
17031TIP3    H272585   2.006   6.587  17.361 -1.2723 -0.2982 -0.8233
17032TIP3   OH272586   4.142   2.990   1.789  0.6445 -0.4105  0.3522
17032TIP3    H172587   4.062   2.973   1.839  0.9640 -1.1086  0.6383
17032TIP3    H272588   4.140   3.084   1.771  0.0018 -0.3407  0.7794
17033TIP3   OH272589   0.272   5.010   5.604  0.0918 -0.4492 -0.1741
17033TIP3    H172590   0.252   5.004   5.698 -0.6142 -1.7322 -0.3721
17033TIP3    H272591   0.357   5.053   5.600  0.0548 -0.2228  1.0467
17034TIP3   OH272592   4.202   5.113   0.549 -0.3768 -0.9680  0.3324
17034TIP3    H172593   4.213   5.112   0.454  1.1680 -0.0627  0.4634
17034TIP3    H272594   4.107   5.107   0.563 -0.5135 -3.1991 -1.1837
17035TIP3   OH272595   2.020   1.804  13.181 -0.1341  0.3302  0.0609
17035TIP3    H172596   1.970   1.738  13.229  0.0717 -0.1214 -0.3353
17035TIP3    H272597   1.964   1.882  13.182 -0.8733 -0.1825 -0.4271
17036TIP3   OH272598   1.426   1.111   4.545  0.4637 -0.6499 -0.1764
17036TIP3    H172599   1.338   1.109   4.581  1.2529 -0.4158  1.8928
17036TIP3    H272600   1.444   1.203   4.529 -0.1411 -0.8038 -1.9573
17037TIP3   OH272601   4.814   6.423  10.830  0.2785  0.9236  0.4214
17037TIP3    H172602   4.850   6.507  10.801  3.1780 -0.4491 -0.2738
17037TIP3    H272603   4.872   6.357  10.792 -0.3852 -1.3287  2.9918
17038TIP3   OH272604   3.525   0.627   3.498 -0.3833 -0.3522 -0.0727
17038TIP3    H172605   3.596   0.619   3.563  1.7678  0.3373 -2.1935
17038TIP3    H272606   3.498   0.537   3.481 -0.0766 -0.6295  0.8351
17039TIP3   OH272607   1.583   4.245   3.109 -0.0367 -0.2979  0.5537
17039TIP3    H172608   1.604   4.293   3.189 -0.9409  1.1464 -0.0407
17039TIP3    H272609   1.627   4.294   3.039  0.6442 -1.4698  0.1103
17040TIP3   OH272610   6.180   3.295  15.547 -0.1460 -0.0069  0.0420
17040TIP3    H172611   6.178   3.353  15.471 -0.0673 -0.3270 -0.2028
17040TIP3    H272612   6.259   3.243  15.536  0.1811  0.3408  0.6399
17041TIP3   OH272613   4.618   5.078   5.127  0.4086 -0.3519 -0.2486
17041TIP3    H172614   4.618   4.991   5.166 -1.1464 -0.1995  0.1446
17041TIP3    H272615   4.581   5.135   5.194 -1.5945  0.0453 -1.5757
17042TIP3   OH272616   1.677   5.883   2.124 -0.2137  0.0562 -0.2366
17042TIP3    H172617   1.743   5.934   2.171  0.1841 -0.8479  0.2144
17042TIP3    H272618   1.653   5.938   2.049  0.1837  0.9050  0.2435
17043TIP3   OH272619   5.709   6.765   1.889  0.2252  0.2678  0.1040
17043TIP3    H172620   5.664   6.738   1.969  0.0434  1.6910  0.5032
17043TIP3    H272621   5.775   6.697   1.875 -1.4792 -1.4421 -0.0566
17044TIP3   OH272622   1.882   5.489   1.634 -0.0297  0.3303 -0.1656
17044TIP3    H172623   1.904   5.395   1.629  2.0914  0.7212  0.5472
17044TIP3    H272624   1.885   5.518   1.542  0.5169 -0.0820 -0.2901
17045TIP3   OH272625   4.071   4.418  14.314 -0.7204  0.0518 -0.0081
17045TIP3    H172626   4.081   4.371  14.231  1.0887  0.8252 -0.2821
17045TIP3    H272627   4.160   4.445  14.336 -1.1847 -0.0330  2.1460
17046TIP3   OH272628   1.370   5.532  14.780  0.1179 -0.7155 -0.2579
17046TIP3    H172629   1.291   5.553  14.729 -0.4376 -0.8976  0.5062
17046TIP3    H272630   1.429   5.606  14.765  0.1964 -1.0200 -1.6006
17047TIP3   OH272631   5.862   1.932   4.465  0.0657 -0.3689 -0.6408
17047TIP3    H172632   5.911   1.906   4.543 -0.5591  1.4274  0.4080
17047TIP3    H272633   5.804   1.857   4.448 -0.2425 -0.5575  1.0215
17048TIP3   OH272634   0.234   6.826   4.517 -0.1296  0.2045 -0.4468
17048TIP3    H172635   0.269   6.882   4.586 -0.0792  0.3718 -0.6083
17048TIP3    H272636   0.235   6.881   4.439  0.6636 -0.2585 -0.7813
17049TIP3   OH272637   2.173   6.356  14.568  0.1116 -0.2780 -0.0643
17049TIP3    H172638   2.156   6.271  14.527  1.0672 -0.2127 -0.6175
17049TIP3    H272639   2.186   6.335  14.661  1.4835 -0.9097 -0.3727
17050TIP3   OH272640   4.754   6.646  16.350  0.5767 -0.1489 -0.2269
17050TIP3    H172641   4.831   6.637  16.293  2.0740  1.8067  1.3698
17050TIP3    H272642   4.786   6.690  16.428 -2.1877  0.7763  0.5086
17051TIP3   OH272643   3.583   2.563  15.561  0.3514 -0.2911 -0.0299
17051TIP3    H172644   3.595   2.585  15.654  1.6227  1.9740 -0.6555
17051TIP3    H272645   3.495   2.524  15.557  0.4727 -0.9499  2.1760
17052TIP3   OH272646   4.613   6.406  15.974 -0.6951 -0.0057  0.3462
17052TIP3    H172647   4.656   6.377  16.055 -1.6704 -2.6978 -0.0283
17052TIP3    H272648   4.685   6.438  15.920  0.8462 -3.3519  0.1728
17053TIP3   OH272649   2.983   3.019   1.274  0.0962  0.2664 -0.0009
17053TIP3    H172650   2.986   2.940   1.328 -1.2250  0.4295  0.3438
17053TIP3    H272651   2.890   3.041   1.268  0.3077  0.9022 -1.4117
17054TIP3   OH272652   3.305   0.053  12.219 -0.1844 -0.2854  0.1166
17054TIP3    H172653   3.390   0.009  12.219 -0.7524 -1.4439 -0.8078
17054TIP3    H272654   3.265   0.028  12.303 -0.3270 -1.2315 -0.2188
17055TIP3   OH272655   4.907   0.367   3.094 -0.2226  0.0185  0.0715
17055TIP3    H172656   4.979   0.425   3.070 -0.3700  0.0122 -0.4096
17055TIP3    H272657   4.880   0.396   3.181  0.2757  0.1016  0.1998
17056TIP3   OH272658   0.096   1.926  13.197 -0.8698 -0.1762  0.1331
17056TIP3    H172659   0.031   1.855  13.201 -0.5548 -0.4861 -0.1116
17056TIP3    H272660   0.089   1.959  13.107 -1.4483  0.5224  0.4319
17057TIP3   OH272661   6.565   0.127   2.267  0.0560  0.0116 -0.1572
17057TIP3    H172662   6.615   0.146   2.188  1.3357  1.3069  0.8864
17057TIP3    H272663   6.632   0.104   2.332 -0.8009  0.5331  0.9518
17058TIP3   OH272664   0.043   5.188   1.934  0.4533  0.1065  0.0887
17058TIP3    H172665   0.042   5.100   1.896  1.5890  0.5025 -0.9009
17058TIP3    H272666  -0.024   5.235   1.886 -0.5639 -0.3516  1.0131
17059TIP3   OH272667   3.032   1.106   5.347  0.0538  0.0911 -0.4357
17059TIP3    H172668   3.055   1.018   5.377 -0.7551 -0.0388 -0.1718
17059TIP3    H272669   3.095   1.125   5.278  0.9280 -0.2565  0.2499
17060TIP3   OH272670   3.107   0.879  15.695 -0.3600 -0.2809  0.5404
17060TIP3    H172671   3.098   0.792  15.735 -0.2898 -0.1447  0.8517
17060TIP3    H272672   3.017   0.908  15.680 -0.3829 -0.4487  0.3385
17061TIP3   OH272673   1.782   2.145   4.664 -0.1163  0.2418 -0.5251
17061TIP3    H172674   1.831   2.067   4.637  1.4139  1.9342 -3.0053
17061TIP3    H272675   1.691   2.118   4.660  0.2930 -2.7760  3.4335
17062TIP3   OH272676   1.893   4.958   1.087  0.1681 -0.3511  0.3105
17062TIP3    H172677   1.852   4.888   1.138 -0.1923 -1.3735 -1.3141
17062TIP3    H272678   1.981   4.966   1.124  0.4134 -2.0765  0.1882
17063TIP3   OH272679   4.361   6.642  15.462  0.3970  0.7558  0.5331
17063TIP3    H172680   4.343   6.679  15.548  0.3630  0.4984  0.6368
17063TIP3    H272681   4.395   6.716  15.411 -3.1853  1.9151 -0.4418
17064TIP3   OH272682   6.099   5.193  11.177 -0.2607 -0.7515 -0.4885
17064TIP3    H172683   6.188   5.183  11.212  1.1233 -0.2582 -3.5610
17064TIP3    H272684   6.055   5.250  11.240  1.5533 -1.0573  1.1664
17065TIP3   OH272685   3.201   3.194  11.512  0.2934 -0.8923 -0.4967
17065TIP3    H172686   3.186   3.101  11.494 -1.1600 -0.6639 -0.6098
17065TIP3    H272687   3.148   3.239  11.446  0.2641  0.0075  0.1279
17066TIP3   OH272688   4.451   1.163  13.615 -0.0838 -0.5114 -0.2540
17066TIP3    H172689   4.483   1.076  13.638  0.6942  0.0181  0.8099
17066TIP3    H272690   4.443   1.162  13.520 -0.2657 -1.7911 -0.2410
17067TIP3   OH272691   3.175   6.671  17.185 -0.3913 -0.7616 -0.2154
17067TIP3    H172692   3.178   6.688  17.090 -2.1631  0.8743 -0.0364
17067TIP3    H272693   3.089   6.632  17.200 -2.2122  3.3221  1.2319
17068TIP3   OH272694   3.914   4.255  16.957  0.0502 -0.0761 -0.0833
17068TIP3    H172695   3.832   4.206  16.960  0.1750 -0.3051 -0.2968
17068TIP3    H272696   3.896   4.336  17.005 -0.7441  0.5588 -1.4098
17069TIP3   OH272697   6.643   2.906  10.728  0.8120  0.2647  0.2744
17069TIP3    H172698   6.672   2.847  10.658  0.0521  1.9006 -1.5052
17069TIP3    H272699   6.688   2.988  10.709  0.4070  0.8052  1.5900
17070TIP3   OH272700   0.440   5.203  11.213  0.6216  0.6945 -0.1097
17070TIP3    H172701   0.403   5.229  11.129  1.3666  0.4284 -0.5312
17070TIP3    H272702   0.460   5.285  11.257  0.5111  0.8342 -0.3200
17071TIP3   OH272703   1.474   3.724   5.775  0.6146 -0.1897 -0.3386
17071TIP3    H172704   1.534   3.662   5.817  0.6753  0.0521 -0.0654
17071TIP3    H272705   1.390   3.709   5.819  0.9422  0.8546  0.6776
17072TIP3   OH272706   4.754   2.856  15.809 -0.1311  0.0235  0.4277
17072TIP3    H172707   4.815   2.828  15.877 -1.7654 -0.0001  1.9562
17072TIP3    H272708   4.717   2.775  15.775 -0.4725  0.0912  0.6337
17073TIP3   OH272709   0.340   1.789   3.339 -0.0305 -0.3070  0.2172
17073TIP3    H172710   0.290   1.819   3.263  0.1773  0.6688  0.4474
17073TIP3    H272711   0.284   1.723   3.380 -1.0251  0.5592  0.3088
17074TIP3   OH272712   0.949   5.089   5.326 -0.2346 -0.2706  0.4080
17074TIP3    H172713   1.026   5.083   5.382 -0.4719  0.6720  0.8554
17074TIP3    H272714   0.941   5.182   5.306 -0.3431 -0.5576 -0.9447
17075TIP3   OH272715   5.961   6.541   5.730  0.0240 -0.8514  0.2798
17075TIP3    H172716   5.968   6.632   5.757  0.4876 -0.1542 -2.0220
17075TIP3    H272717   5.891   6.505   5.785 -0.4665  0.9811  0.9194
17076TIP3   OH272718   3.320   1.405   0.782 -0.1447 -0.0545  0.1531
17076TIP3    H172719   3.273   1.451   0.852  2.1664  2.8117 -0.0522
17076TIP3    H272720   3.250   1.367   0.728 -2.0457 -1.9065  3.5240
17077TIP3   OH272721   1.119   5.738   3.643 -0.4012  0.2111  0.4810
17077TIP3    H172722   1.087   5.688   3.568  0.1010  0.2231  0.2576
17077TIP3    H272723   1.083   5.692   3.719 -0.2774 -0.2487  0.2634
17078TIP3   OH272724   5.746   0.568  13.711  0.4652  0.0320  0.1411
17078TIP3    H172725   5.824   0.512  13.709 -1.0025 -2.1031 -1.5383
17078TIP3    H272726   5.760   0.630  13.639 -0.2964 -1.7815 -1.6504
17079TIP3   OH272727   6.426   5.493  15.205  0.0639 -0.2520  0.0411
17079TIP3    H172728   6.423   5.525  15.115 -0.2070 -0.7612 -0.1326
17079TIP3    H272729   6.434   5.398  15.197  0.3892 -0.2721  0.5544
17080TIP3   OH272730   1.636   4.636  15.001  0.2544 -0.4716 -0.0639
17080TIP3    H172731   1.640   4.561  15.060 -1.3267 -0.1346  0.5292
17080TIP3    H272732   1.642   4.712  15.059 -1.0624 -0.1392 -0.3380
17081TIP3   OH272733   3.949   6.281   0.844 -0.3530  0.3297  0.4428
17081TIP3    H172734   3.915   6.354   0.793  0.1458  0.9626  1.0082
17081TIP3    H272735   3.987   6.222   0.778  1.9303  1.9865  0.1467
17082TIP3   OH272736   4.310   3.802   3.187 -0.0821  0.0118 -0.3725
17082TIP3    H172737   4.352   3.745   3.123 -1.4302  0.2930 -1.5631
17082TIP3    H272738   4.377   3.817   3.253  1.6607  0.3593 -2.1177
17083TIP3   OH272739   1.261   2.160  11.624 -0.6321 -0.2598  0.3584
17083TIP3    H172740   1.209   2.174  11.704  0.7347  0.5300  1.1434
17083TIP3    H272741   1.339   2.214  11.637  0.4602 -1.5325 -0.7308
17084TIP3   OH272742   5.136   0.981  12.778 -0.0782  0.2601  0.4021
17084TIP3    H172743   5.111   0.913  12.841  2.1234  0.9130  2.1381
17084TIP3    H272744   5.077   0.969  12.704 -2.2390 -1.1315  2.2140
17085TIP3   OH272745   0.298   2.312   1.485 -0.0820 -0.2294  0.0913
17085TIP3    H172746   0.222   2.272   1.441 -1.2471  0.6691  1.2020
17085TIP3    H272747   0.354   2.238   1.509 -0.5234 -0.8969 -0.9110
17086TIP3   OH272748   2.729   4.450   6.343  0.4333  0.5212 -0.1925
17086TIP3    H172749   2.722   4.356   6.355  1.2543  0.7560  3.1410
17086TIP3    H272750   2.808   4.462   6.290  0.3660 -0.6237 -0.5637
17087TIP3   OH272751   3.819   3.614   5.697  1.0653 -0.3923 -0.0767
17087TIP3    H172752   3.810   3.636   5.604  0.6838 -0.1800  0.0093
17087TIP3    H272753   3.729   3.604   5.728  1.2065 -1.0269  0.1365
17088TIP3   OH272754   0.576   1.753  15.552  0.2167 -0.1249  0.0840
17088TIP3    H172755   0.594   1.673  15.503 -0.5601 -0.0608 -0.3314
17088TIP3    H272756   0.657   1.771  15.600  1.7927  0.9661 -2.7442
17089TIP3   OH272757   5.550   3.119   4.336  0.5781 -0.4045  0.0780
17089TIP3    H172758   5.510   3.032   4.338 -0.3593 -0.1306 -2.8217
17089TIP3    H272759   5.499   3.171   4.398  1.3900 -1.9430  2.1386
17090TIP3   OH272760   2.341   4.567  15.302 -0.4087  0.5990 -0.3647
17090TIP3    H172761   2.349   4.571  15.207  0.3985 -0.2609 -0.3365
17090TIP3    H272762   2.374   4.481  15.326 -0.2951  0.9293  0.7265
17091TIP3   OH272763   0.044   4.465  14.176  0.5208 -0.4762 -0.3717
17091TIP3    H172764   0.078   4.389  14.223  2.9495 -1.2331 -3.0731
17091TIP3    H272765   0.119   4.526  14.171 -1.2399  2.0320  1.3772
17092TIP3   OH272766   5.009   0.422  15.059 -0.0396 -0.3545 -0.4664
17092TIP3    H172767   5.019   0.328  15.074 -0.5848 -0.3506 -0.0088
17092TIP3    H272768   4.986   0.430  14.967  0.6826 -0.6154 -0.6712
17093TIP3   OH272769   5.030   2.324  13.139  1.1324  0.6429 -0.4614
17093TIP3    H172770   4.989   2.307  13.054  0.0538 -0.9782  0.3514
17093TIP3    H272771   5.093   2.253  13.150  2.0538  1.4540 -0.3582
17094TIP3   OH272772   2.970   5.520   2.617 -0.5784  0.5776 -0.6560
17094TIP3    H172773   2.994   5.529   2.709  0.3384  1.4360 -0.9554
17094TIP3    H272774   2.944   5.429   2.607 -0.1654  0.3434  0.3273
17095TIP3   OH272775   5.911   3.957  13.643 -0.0838 -0.3960 -0.1221
17095TIP3    H172776   5.864   3.967  13.560  0.3178 -0.7726 -0.3972
17095TIP3    H272777   5.845   3.926  13.705 -0.9328  1.9523  0.2782
17096TIP3   OH272778   0.414   5.564  11.789 -0.1296 -0.0510 -0.1567
17096TIP3    H172779   0.351   5.630  11.763 -1.9530 -1.5347  0.2554
17096TIP3    H272780   0.443   5.591  11.877 -3.1005 -1.2021  1.3336
17097TIP3   OH272781   6.794   1.489  15.428 -0.0301 -0.7350  0.4242
17097TIP3    H172782   6.760   1.463  15.342  2.2425 -1.1062 -0.4433
17097TIP3    H272783   6.886   1.510  15.411  0.6761 -1.5227  2.9017
17098TIP3   OH272784   1.284   4.796  11.769 -0.1706  0.1043 -0.0822
17098TIP3    H172785   1.350   4.732  11.798 -1.3152 -0.9112  0.3539
17098TIP3    H272786   1.264   4.848  11.846 -0.7176 -0.3470  0.0819
17099TIP3   OH272787   2.659   3.485  17.263 -0.0537 -0.1259 -0.5595
17099TIP3    H172788   2.663   3.426  17.188 -0.4789 -0.1744 -0.5408
17099TIP3    H272789   2.625   3.432  17.335 -0.3182  0.1089 -0.5114
17100TIP3   OH272790   5.279   1.714  17.219 -0.0371 -0.3515 -0.0292
17100TIP3    H172791   5.238   1.800  17.225  0.6004  0.0101 -0.7453
17100TIP3    H272792   5.353   1.717  17.279 -0.3327 -0.6020  0.3615
17101TIP3   OH272793   3.958   5.360  14.502 -0.1522 -0.4364 -0.0770
17101TIP3    H172794   3.911   5.279  14.481 -1.6724  0.4350 -0.1655
17101TIP3    H272795   3.891   5.419  14.536  0.9385  0.7634  0.0817
17102TIP3   OH272796   1.458   2.269  10.572 -0.0569 -0.1040  0.4287
17102TIP3    H172797   1.499   2.228  10.495 -1.1206  0.0068 -0.2115
17102TIP3    H272798   1.518   2.340  10.595  1.0846 -1.1204  0.6829
17103TIP3   OH272799   1.089   6.485  12.873  0.6752  0.4984 -0.4954
17103TIP3    H172800   1.154   6.432  12.919  0.3620 -0.4505 -1.0972
17103TIP3    H272801   1.139   6.536  12.810  0.7475 -1.7938 -2.4660
17104TIP3   OH272802   3.757   6.497   3.511 -0.4114 -0.6352 -0.2943
17104TIP3    H172803   3.718   6.424   3.463 -1.5854 -0.0853 -0.2083
17104TIP3    H272804   3.834   6.521   3.460  0.2231 -2.1583 -0.1264
17105TIP3   OH272805   5.577   3.890   4.383 -0.1171 -0.4513  0.4688
17105TIP3    H172806   5.666   3.878   4.418  1.1452  0.4000 -2.1546
17105TIP3    H272807   5.564   3.814   4.325 -0.9748 -0.3998  0.5931
17106TIP3   OH272808   5.770   0.744  15.957 -0.2217  0.0488  0.1475
17106TIP3    H172809   5.801   0.689  15.885  0.1947  1.0707 -0.4756
17106TIP3    H272810   5.759   0.831  15.918 -0.4239  0.5199  1.2161
17107TIP3   OH272811   6.362   3.178   1.748 -0.1129 -0.2598  0.0797
17107TIP3    H172812   6.323   3.266   1.747 -0.0388 -0.2309 -0.4963
17107TIP3    H272813   6.292   3.121   1.716  0.8767  0.0456 -2.9063
17108TIP3   OH272814   5.714   0.989  15.874 -0.3670  0.5393  0.6202
17108TIP3    H172815   5.774   1.034  15.934 -0.3237 -0.0318  1.0064
17108TIP3    H272816   5.668   1.060  15.830  0.5995  0.9896  0.3037
17109TIP3   OH272817   3.656   1.585   4.140  0.3873  0.3266 -0.5815
17109TIP3    H172818   3.592   1.519   4.168  1.9493 -0.8988  0.2302
17109TIP3    H272819   3.606   1.667   4.139 -0.8475 -0.3099  1.5489
17110TIP3   OH272820   0.952   6.819  13.542  0.0372  0.3646  0.6070
17110TIP3    H172821   1.021   6.802  13.477 -0.5576  2.3276 -0.6445
17110TIP3    H272822   0.999   6.829  13.624  1.0146 -0.3759  0.1695
17111TIP3   OH272823   6.554   3.645  16.064  0.1778  0.5233  0.2794
17111TIP3    H172824   6.514   3.723  16.102 -1.2754  0.2934 -0.6924
17111TIP3    H272825   6.550   3.661  15.969  0.6685 -0.3533  0.1071
17112TIP3   OH272826   2.831   5.067   2.742 -0.0654 -0.1080  0.1153
17112TIP3    H172827   2.910   5.105   2.779  0.6749 -0.5174 -0.9997
17112TIP3    H272828   2.760   5.119   2.779  0.6138 -0.5345  2.1226
17113TIP3   OH272829   0.999   2.392   1.930 -0.1857 -0.1817 -0.2412
17113TIP3    H172830   0.934   2.354   1.990 -0.1446  1.0157  0.6076
17113TIP3    H272831   1.083   2.377   1.974 -0.0358 -0.3560 -0.5852
17114TIP3   OH272832   4.730   0.131  16.058 -0.2681 -0.5820  0.3178
17114TIP3    H172833   4.724   0.132  15.963  0.2018 -0.3096  0.2826
17114TIP3    H272834   4.679   0.055  16.086 -3.4111  1.2773  0.0861
17115TIP3   OH272835   6.793   0.464  13.675  0.3596 -0.4159 -0.1372
17115TIP3    H172836   6.762   0.420  13.754 -1.0518  1.1563  0.2529
17115TIP3    H272837   6.859   0.526  13.705 -0.1514  0.1578 -0.1778
17116TIP3   OH272838   1.625   6.037  17.231  0.3239  0.6991 -0.2879
17116TIP3    H172839   1.637   6.077  17.145  0.9156  0.8901 -0.1233
17116TIP3    H272840   1.652   5.946  17.221  0.4284  0.7313 -0.2949
17117TIP3   OH272841   1.858   2.829  16.794  0.0843 -0.3724  0.5922
17117TIP3    H172842   1.846   2.735  16.786 -0.5759 -0.1075 -2.5696
17117TIP3    H272843   1.770   2.866  16.785  0.4301  0.5900  1.0144
17118TIP3   OH272844   2.897   1.620  15.948  0.4509 -0.1883 -0.0004
17118TIP3    H172845   2.915   1.662  16.032  2.0294 -1.4306  0.3470
17118TIP3    H272846   2.971   1.644  15.892 -0.1221 -0.1234 -0.7539
17119TIP3   OH272847   1.684   5.958  12.595  0.1628  0.0700  0.2068
17119TIP3    H172848   1.687   5.881  12.538 -1.0219 -0.1151  0.3776
17119TIP3    H272849   1.745   6.020  12.554 -0.8953  0.0762 -1.4609
17120TIP3   OH272850   3.837   6.117   4.137 -0.4392 -0.3626  0.5006
17120TIP3    H172851   3.864   6.096   4.226 -0.0983  0.2181  0.5368
17120TIP3    H272852   3.913   6.161   4.099 -1.6810  2.3545  0.9755
17121TIP3   OH272853   5.777   0.668  15.682  0.3999  0.2031 -0.5402
17121TIP3    H172854   5.785   0.573  15.698 -1.2723 -0.0521 -1.0379
17121TIP3    H272855   5.856   0.690  15.633  0.5102 -1.0604 -0.9812
17122TIP3   OH272856   5.402   6.713  11.343 -0.0731  0.0286  0.1434
17122TIP3    H172857   5.421   6.749  11.257  1.9456 -1.5430 -0.1430
17122TIP3    H272858   5.414   6.787  11.403  0.9626  0.5644 -0.6879
17123TIP3   OH272859   0.830   3.876  14.248 -0.2058  0.6050  0.5811
17123TIP3    H172860   0.823   3.781  14.233 -0.2717  0.6145  0.5527
17123TIP3    H272861   0.913   3.901  14.207 -0.7391  0.7669 -0.4275
17124TIP3   OH272862   2.395   6.783   2.485  0.3598 -0.4345 -0.3579
17124TIP3    H172863   2.424   6.731   2.410 -2.5211  0.6947 -2.4915
17124TIP3    H272864   2.443   6.866   2.476 -0.9178  0.2087 -1.8958
17125TIP3   OH272865   6.542   0.460  14.624 -0.6689  0.2154  0.2894
17125TIP3    H172866   6.503   0.390  14.677 -0.4016  0.7594  1.2122
17125TIP3    H272867   6.516   0.541  14.667 -1.7265  0.7524 -1.2782
17126TIP3   OH272868   1.498   5.499   0.672 -0.5142 -0.7159  0.4245
17126TIP3    H172869   1.512   5.485   0.578  0.0101  0.8068  0.2519
17126TIP3    H272870   1.403   5.495   0.683 -0.5708 -1.0665 -0.1345
17127TIP3   OH272871   2.385   5.808  14.803  0.1574 -0.2057 -0.0710
17127TIP3    H172872   2.364   5.897  14.776  0.5240 -0.3745 -0.9238
17127TIP3    H272873   2.443   5.819  14.878  1.8060  0.3047 -1.3750
17128TIP3   OH272874   4.040   0.839   6.083 -0.0993  0.0405 -0.4083
17128TIP3    H172875   3.961   0.848   6.136  1.1507  0.8832  1.4069
17128TIP3    H272876   4.100   0.790   6.138  1.1668  0.7247 -1.1421
17129TIP3   OH272877   3.712   0.099  12.622  0.0384 -0.2699 -0.0276
17129TIP3    H172878   3.780   0.121  12.558 -0.3593 -0.3026 -0.4691
17129TIP3    H272879   3.747   0.127  12.706  0.9600 -1.0547 -0.1301
17130TIP3   OH272880   5.531   5.875   3.550 -0.6340  0.1569  0.1381
17130TIP3    H172881   5.459   5.874   3.486 -1.4530 -0.7316  1.0325
17130TIP3    H272882   5.487   5.885   3.635  0.4208  1.0985  0.5944
17131TIP3   OH272883   6.565   3.809   5.105 -0.0666 -0.2549  0.5209
17131TIP3    H172884   6.515   3.807   5.023  0.8921  1.1854 -0.1297
17131TIP3    H272885   6.555   3.899   5.137 -2.1423 -1.2547  3.1349
17132TIP3   OH272886   1.512   2.673   5.863  0.0065  0.2642  0.1881
17132TIP3    H172887   1.552   2.588   5.884 -0.7812 -0.4211 -0.9995
17132TIP3    H272888   1.511   2.676   5.767 -2.7949  0.2225  0.1560
17133TIP3   OH272889   6.823   6.015  12.521 -0.6146 -0.8780 -0.2621
17133TIP3    H172890   6.728   6.015  12.507 -0.6029 -1.9027 -0.3983
17133TIP3    H272891   6.833   6.034  12.614 -0.9409 -0.5584 -0.2879
17134TIP3   OH272892   1.317   6.238   0.535 -0.1850 -0.4560 -0.3834
17134TIP3    H172893   1.399   6.288   0.536 -0.6681  0.3559 -0.4750
17134TIP3    H272894   1.250   6.300   0.564 -0.9151 -0.8509 -1.1748
17135TIP3   OH272895   3.598   1.285  15.254 -0.5359  0.2249 -0.4193
17135TIP3    H172896   3.505   1.266  15.242 -0.7047  1.5123 -1.5317
17135TIP3    H272897   3.633   1.289  15.164  0.3544  0.7658 -0.0661
17136TIP3   OH272898   0.128   4.908  16.177 -0.1097 -0.1787 -0.3902
17136TIP3    H172899   0.172   4.892  16.261  0.1982 -0.0344 -0.5234
17136TIP3    H272900   0.051   4.851  16.179  1.2227 -2.1014 -1.0641
17137TIP3   OH272901   1.341   6.533   0.841 -0.1344  0.1374 -0.6522
17137TIP3    H172902   1.273   6.597   0.861 -1.7100 -1.6141 -0.1209
17137TIP3    H272903   1.395   6.529   0.920 -0.5596  0.1520 -0.3606
17138TIP3   OH272904   0.514   5.488  14.318 -0.3882 -0.3616  0.6144
17138TIP3    H172905   0.546   5.437  14.244  0.1532 -0.6785  1.0575
17138TIP3    H272906   0.591   5.502  14.373 -0.6496  0.4316  0.7994
17139TIP3   OH272907   3.062   5.679  13.257 -0.2751  0.1691  0.1871
17139TIP3    H172908   3.034   5.668  13.348  1.2414 -0.8547  0.5597
17139TIP3    H272909   3.027   5.764  13.232 -1.0298  0.3118  1.6026
17140TIP3   OH272910   6.812   2.171  13.727 -1.0570  0.0164 -0.2393
17140TIP3    H172911   6.891   2.214  13.694 -1.8200 -0.0353 -2.2377
17140TIP3    H272912   6.752   2.170  13.653 -1.6997 -3.0134  0.2133
17141TIP3   OH272913   3.996   6.053  13.290  0.1242 -0.6523 -0.0293
17141TIP3    H172914   3.977   6.067  13.382  0.1959 -1.4982  0.1231
17141TIP3    H272915   3.919   6.088  13.244 -1.5068 -3.2600  0.5337
17142TIP3   OH272916   0.292   4.923  14.676 -0.2680  0.1064  0.4876
17142TIP3    H172917   0.289   4.943  14.770  0.4105  1.5675  0.2236
17142TIP3    H272918   0.320   4.831  14.672 -2.0953 -0.5655  1.7381
17143TIP3   OH272919   4.113   0.876  15.155  0.3758  0.4061  0.0684
17143TIP3    H172920   4.182   0.888  15.220  1.3848 -0.9308 -0.7022
17143TIP3    H272921   4.090   0.783  15.161  0.4914  0.2495 -1.4581
17144TIP3   OH272922   3.001   4.869   2.298  0.1070  0.1298 -0.0974
17144TIP3    H172923   3.044   4.955   2.303  1.3765 -0.4933  0.1141
17144TIP3    H272924   3.006   4.845   2.206  0.7291 -0.1890  0.0157
17145TIP3   OH272925   5.170   6.036  15.999  0.7151  0.2113  0.7714
17145TIP3    H172926   5.224   5.958  16.015 -1.3389 -1.5364 -0.2879
17145TIP3    H272927   5.083   6.012  16.029 -0.3393  1.5147 -1.0173
17146TIP3   OH272928   4.894   6.407   4.837  0.3931 -1.1059 -0.0139
17146TIP3    H172929   4.912   6.433   4.747  0.1249 -1.3488 -0.1400
17146TIP3    H272930   4.798   6.409   4.844  0.4361 -0.5160  0.4396
17147TIP3   OH272931   1.555   5.848   1.536  0.2875 -0.0996  0.2989
17147TIP3    H172932   1.605   5.799   1.601  0.2238 -0.0034  0.4226
17147TIP3    H272933   1.574   5.806   1.453 -0.3170 -0.7735  0.4941
17148TIP3   OH272934   0.744   4.554  10.437  0.0585  0.4145  1.1900
17148TIP3    H172935   0.689   4.503  10.378  1.0934 -0.2211  0.7437
17148TIP3    H272936   0.696   4.636  10.451  0.1890  0.9678 -1.2678
17149TIP3   OH272937   3.096   5.177  14.868 -0.1297  0.2257  0.8237
17149TIP3    H172938   3.112   5.085  14.887  1.3620  0.2943  0.1079
17149TIP3    H272939   3.127   5.223  14.947  2.6892  0.2910 -0.1942
17150TIP3   OH272940   2.832   6.690   0.091  0.2672 -0.0074  0.1443
17150TIP3    H172941   2.859   6.673   0.001 -0.0771  0.9461 -0.1540
17150TIP3    H272942   2.849   6.608   0.137  0.0561 -0.6426 -0.8761
17151TIP3   OH272943   4.464   0.551   1.489 -0.2495 -0.3511  0.1246
17151TIP3    H172944   4.395   0.606   1.453  0.3079  0.1359 -0.2216
17151TIP3    H272945   4.420   0.496   1.554 -1.0856 -0.5393 -0.5848
17152TIP3   OH272946   3.318   1.851   0.678 -0.1682 -0.1260  0.3129
17152TIP3    H172947   3.250   1.872   0.742  0.2722  0.0248  0.7297
17152TIP3    H272948   3.367   1.932   0.667  0.1234 -0.3114  0.2279
17153TIP3   OH272949   0.502   2.483  15.268  0.0184 -0.7986 -0.0173
17153TIP3    H172950   0.423   2.455  15.314 -0.6218 -0.0852 -0.6616
17153TIP3    H272951   0.513   2.575  15.293  0.6963 -0.9094  0.1253
17154TIP3   OH272952   1.960   2.724   2.678 -0.4513  0.0433  0.3783
17154TIP3    H172953   1.996   2.664   2.612  2.0971  1.7196  0.1141
17154TIP3    H272954   1.980   2.681   2.761  2.1940  0.7989  0.2365
17155TIP3   OH272955   6.576   2.816  16.843  0.5383  0.6913  0.3703
17155TIP3    H172956   6.652   2.776  16.887  0.4153  0.2643  0.1993
17155TIP3    H272957   6.598   2.811  16.750 -1.1482 -2.6016  0.0053
17156TIP3   OH272958   2.883   3.415   1.525 -0.1633 -0.1725  0.0902
17156TIP3    H172959   2.840   3.333   1.548 -2.9936  0.5617 -2.0103
17156TIP3    H272960   2.904   3.405   1.432 -1.7746  1.8781 -0.5746
17157TIP3   OH272961   6.212   4.286  13.491  0.3480 -0.4589 -0.0486
17157TIP3    H172962   6.120   4.267  13.473  0.0131  1.5341 -0.6582
17157TIP3    H272963   6.256   4.201  13.483 -1.4258 -1.4610  0.3375
17158TIP3   OH272964   0.193   0.933  10.990  0.1995 -0.4208  0.3139
17158TIP3    H172965   0.122   0.975  10.941  1.0443  0.6345 -0.0431
17158TIP3    H272966   0.158   0.847  11.013 -2.1539  0.9327  2.3367
17159TIP3   OH272967   6.213   6.161  12.025  0.6869 -0.5944  0.5750
17159TIP3    H172968   6.120   6.170  12.045  1.3209  0.7426  3.4869
17159TIP3    H272969   6.229   6.225  11.957 -0.3883 -0.2839  0.5874
17160TIP3   OH272970   0.761   6.412   0.568  0.3499 -0.2238  0.3377
17160TIP3    H172971   0.745   6.496   0.525  1.4904 -0.2408 -0.1419
17160TIP3    H272972   0.835   6.374   0.520  0.0651 -1.3502  0.7657
17161TIP3   OH272973   1.755   4.842  10.847  0.2608 -0.0597  0.1027
17161TIP3    H172974   1.740   4.754  10.882  1.3356 -0.5580 -0.6478
17161TIP3    H272975   1.709   4.900  10.908 -0.8344 -1.1597  0.3664
17162TIP3   OH272976   2.303   6.756  17.057  0.0315  0.0578 -0.0326
17162TIP3    H172977   2.383   6.745  17.110  0.8345  0.6985 -1.0624
17162TIP3    H272978   2.321   6.833  17.003 -1.2077  0.0732 -0.4431
17163TIP3   OH272979   4.168   3.542  11.910 -0.4126 -0.1681 -0.2100
17163TIP3    H172980   4.173   3.633  11.880 -2.2562  0.7839  2.0006
17163TIP3    H272981   4.083   3.512  11.877  0.0606 -1.0193 -0.6766
17164TIP3   OH272982   5.501   6.175  12.612  0.5263  0.1350 -0.3053
17164TIP3    H172983   5.454   6.163  12.529 -0.5168 -0.0934  0.2897
17164TIP3    H272984   5.447   6.237  12.661  1.6402  1.0192 -0.1654
17165TIP3   OH272985   6.411   4.947   5.496 -0.1896 -0.2889 -0.4324
17165TIP3    H172986   6.321   4.947   5.528 -0.0399 -1.1701 -0.0004
17165TIP3    H272987   6.405   4.908   5.409 -0.3774  0.7321 -0.9006
17166TIP3   OH272988   6.735   1.009   5.378 -0.7632 -0.5332 -0.0330
17166TIP3    H172989   6.702   1.074   5.439 -0.2560  0.8513 -1.1703
17166TIP3    H272990   6.658   0.959   5.352 -1.3023  0.1208  0.2736
17167TIP3   OH272991   2.454   1.392  10.448 -0.0011  0.5710  0.1911
17167TIP3    H172992   2.457   1.485  10.472  2.3160  0.2742  1.3187
17167TIP3    H272993   2.517   1.384  10.377 -1.0113  0.0208 -0.6660
17168TIP3   OH272994   5.710   4.060   1.266  0.0521 -0.3694 -0.3789
17168TIP3    H172995   5.694   4.095   1.178  1.6528 -1.7061 -1.2795
17168TIP3    H272996   5.624   4.059   1.308 -0.9310 -0.6058 -2.2840
17169TIP3   OH272997   0.005   4.480  10.866  0.4680  0.2987 -0.1188
17169TIP3    H172998  -0.066   4.519  10.917  1.2183  0.1030  1.1399
17169TIP3    H272999  -0.018   4.496  10.775 -1.3876 -0.1238  0.2403
17170TIP3   OH273000   0.458   1.194   3.797  0.0082 -0.0686 -0.0990
17170TIP3    H173001   0.485   1.279   3.830  0.1367  0.6105 -1.8483
17170TIP3    H273002   0.367   1.207   3.769 -0.1252 -0.6438  0.0504
17171TIP3   OH273003   4.597   6.720   1.653 -0.1242 -0.1824  0.5207
17171TIP3    H173004   4.689   6.711   1.628 -0.3558 -0.2759 -0.3265
17171TIP3    H273005   4.553   6.648   1.608 -0.4329 -0.9123  1.9387
17172TIP3   OH273006   6.263   4.955  10.435  0.5428 -0.0457  0.6821
17172TIP3    H173007   6.168   4.964  10.433  0.2155 -2.6563 -1.4941
17172TIP3    H273008   6.295   5.045  10.430 -1.7273  0.9750  2.4529
17173TIP3   OH273009   5.465   0.152  13.702  0.2550 -0.0064 -0.4122
17173TIP3    H173010   5.517   0.229  13.727  0.1115 -0.8364  2.9850
17173TIP3    H273011   5.374   0.179  13.714  0.2159 -0.8003  1.5646
17174TIP3   OH273012   3.554   4.212  12.144 -0.0200 -0.1769 -0.1137
17174TIP3    H173013   3.588   4.292  12.184 -0.3599 -0.0793 -0.0207
17174TIP3    H273014   3.532   4.238  12.054  2.1248 -0.7414 -0.8683
17175TIP3   OH273015   2.095   6.811  14.460 -0.2513 -0.0539  0.4412
17175TIP3    H173016   2.161   6.745  14.481 -1.7456 -1.7144  0.1881
17175TIP3    H273017   2.073   6.794  14.369  1.3992  2.7523 -0.5846
17176TIP3   OH273018   2.702   4.716   6.276  0.3451 -0.3579  0.1671
17176TIP3    H173019   2.724   4.728   6.368  1.0014 -1.4161  0.1690
17176TIP3    H273020   2.703   4.621   6.263 -2.7290 -0.4300 -0.2259
17177TIP3   OH273021   0.547   1.107  15.893 -1.0633  0.1208  0.3675
17177TIP3    H173022   0.576   1.164  15.965  1.0200  1.0978 -1.1548
17177TIP3    H273023   0.554   1.019  15.929  0.0075  0.5733  1.3737
17178TIP3   OH273024   4.021   2.463  16.937  0.0757  0.0566 -0.0922
17178TIP3    H173025   3.970   2.544  16.937  1.3617  0.8989 -0.5237
17178TIP3    H273026   3.980   2.408  17.004  0.5012  1.9419  1.8164
17179TIP3   OH273027   0.941   0.824  11.094 -0.7384  0.1601 -0.1361
17179TIP3    H173028   0.939   0.891  11.026 -0.5300  0.2544 -0.0502
17179TIP3    H273029   0.853   0.787  11.094 -0.9519  0.6563  0.0399
17180TIP3   OH273030   1.391   6.657  12.464  0.0352  0.5070  0.7277
17180TIP3    H173031   1.483   6.649  12.490 -0.2830  0.6769  1.9756
17180TIP3    H273032   1.388   6.623  12.375  1.1762 -0.2308  0.9535
17181TIP3   OH273033   1.220   5.204  12.296  0.1352  0.2349  0.0503
17181TIP3    H173034   1.247   5.277  12.351  0.2326  0.9658 -0.9511
17181TIP3    H273035   1.197   5.244  12.212 -0.7218 -0.7741 -0.2145
17182TIP3   OH273036   3.336   0.938   3.021 -0.1094  0.5230 -0.2428
17182TIP3    H173037   3.285   0.895   3.090  0.3670 -1.2065 -0.9155
17182TIP3    H273038   3.359   1.024   3.058 -1.2804  0.3112  1.0764
17183TIP3   OH273039   5.499   5.684   5.018 -0.7135  0.4775 -0.0870
17183TIP3    H173040   5.450   5.658   5.096  2.0539 -1.4647  1.1974
17183TIP3    H273041   5.580   5.721   5.052  1.2244 -1.7339 -1.8924
17184TIP3   OH273042   3.789   6.416  12.703 -0.0996  0.2327  0.4039
17184TIP3    H173043   3.820   6.409  12.794  2.2778 -0.8327 -0.4000
17184TIP3    H273044   3.866   6.446  12.654 -1.3234  0.7492 -1.2690
17185TIP3   OH273045   3.726   2.979  12.502  0.0928 -0.0037  0.1795
17185TIP3    H173046   3.663   2.927  12.552 -0.3816 -0.1929 -0.5897
17185TIP3    H273047   3.776   3.027  12.568 -0.1117 -0.6991  0.8517
17186TIP3   OH273048   2.471   1.293   0.997  0.3331 -0.8181  0.1821
17186TIP3    H173049   2.487   1.225   1.062  3.2668  0.4931  0.9936
17186TIP3    H273050   2.529   1.271   0.924 -0.1680 -0.2616 -0.3952
17187TIP3   OH273051   3.456   6.265  13.219 -0.3669  0.4851  0.0741
17187TIP3    H173052   3.518   6.197  13.245 -0.0868  0.9204  0.5680
17187TIP3    H273053   3.445   6.253  13.125  0.3622  0.3126  0.0041
17188TIP3   OH273054   6.824   6.824  11.112  0.1822  0.6777 -0.1472
17188TIP3    H173055   6.804   6.731  11.122  3.8125 -0.1781  0.8944
17188TIP3    H273056   6.874   6.829  11.030  1.4157  1.3660  0.6144
17189TIP3   OH273057   3.053   0.929  11.985  0.7045 -0.1759 -0.4412
17189TIP3    H173058   3.119   0.991  11.955 -0.7259  1.2363 -0.7832
17189TIP3    H273059   2.981   0.938  11.923 -0.5554 -0.3457  0.9511
17190TIP3   OH273060   6.796   3.882  10.493  0.2553  0.1295  0.1639
17190TIP3    H173061   6.808   3.975  10.511 -0.0992  0.2886 -0.4147
17190TIP3    H273062   6.767   3.878  10.402  2.4421 -0.6889 -0.5587
17191TIP3   OH273063   5.369   3.925  15.656 -0.1010  0.0752  0.0798
17191TIP3    H173064   5.363   4.020  15.663 -0.5126  0.0206  0.5729
17191TIP3    H273065   5.282   3.897  15.626 -0.1911 -0.1919  0.5728
17192TIP3   OH273066   6.231   1.397   5.383  0.6995 -0.4576 -0.4644
17192TIP3    H173067   6.221   1.465   5.449  1.0122  0.5174 -1.3776
17192TIP3    H273068   6.182   1.322   5.416  0.4860  0.1632  0.6441
17193TIP3   OH273069   3.448   0.292  13.967 -0.3863 -0.2378 -0.3843
17193TIP3    H173070   3.356   0.266  13.968 -0.6318  0.5186 -1.2444
17193TIP3    H273071   3.447   0.387  13.981  0.3765 -0.4277  1.1026
17194TIP3   OH273072   1.040   1.007   0.911 -0.1416 -0.1618  0.1714
17194TIP3    H173073   1.094   0.941   0.953  0.0998 -0.1997 -0.2020
17194TIP3    H273074   0.964   0.959   0.878  0.0395 -0.2540 -0.1106
17195TIP3   OH273075   1.782   6.774   4.784  0.4615 -0.6029  0.2325
17195TIP3    H173076   1.735   6.711   4.839  0.7669 -0.9285  0.1243
17195TIP3    H273077   1.719   6.797   4.716  0.0427 -0.1176  0.7672
17196TIP3   OH273078   1.553   0.269   0.042  0.0791 -0.7858  0.2787
17196TIP3    H173079   1.483   0.335   0.040  0.0112 -0.8402 -2.3582
17196TIP3    H273080   1.583   0.263  -0.049  2.6555 -1.7081  1.1101
17197TIP3   OH273081   2.677   3.538   1.645  0.4201  0.4042  0.7140
17197TIP3    H173082   2.744   3.471   1.630  0.2519  0.1962  0.8850
17197TIP3    H273083   2.632   3.510   1.725  0.4391  0.7963  0.8634
17198TIP3   OH273084   2.601   4.554  10.518 -0.0932 -0.0131 -0.3275
17198TIP3    H173085   2.578   4.466  10.548  1.9985 -0.2063  0.9556
17198TIP3    H273086   2.694   4.547  10.494  0.1662  1.8514 -0.0540
17199TIP3   OH273087   2.967   0.670  15.521 -0.2694  0.8688 -0.2511
17199TIP3    H173088   2.918   0.604  15.471  0.2137 -1.2362  1.8754
17199TIP3    H273089   2.997   0.732  15.454 -0.3300 -1.3187 -2.4956
17200TIP3   OH273090   1.703   3.083   1.983  0.2091  0.3617  0.4312
17200TIP3    H173091   1.660   3.015   2.035 -0.8112  0.2061 -0.5811
17200TIP3    H273092   1.751   3.035   1.916 -1.4952  0.5973 -1.0501
17201TIP3   OH273093   3.016   1.687   2.225  0.0896 -0.3334  0.5924
17201TIP3    H173094   3.029   1.624   2.154  0.2457  1.5883 -1.1834
17201TIP3    H273095   3.091   1.746   2.218  0.6858 -0.6800  3.0887
17202TIP3   OH273096   2.146   3.707   2.273  0.6083  0.2162  0.0630
17202TIP3    H173097   2.193   3.636   2.316 -0.6394  0.7224  2.4472
17202TIP3    H273098   2.213   3.754   2.223  1.6351 -1.9681 -0.7148
17203TIP3   OH273099   0.740   6.467  10.892 -0.6909  0.3208 -0.4213
17203TIP3    H173100   0.692   6.387  10.914 -1.7954  1.2313  0.6032
17203TIP3    H273101   0.673   6.536  10.895  0.3908  1.3975 -0.5255
17204TIP3   OH273102   2.009   1.276   4.961 -0.1699  0.3507  0.3572
17204TIP3    H173103   1.950   1.351   4.971 -0.2162  0.4141 -0.3221
17204TIP3    H273104   1.964   1.218   4.900 -0.0739 -0.1696  0.7830
17205TIP3   OH273105   3.012   4.469  12.087  0.8399 -0.1575  0.9991
17205TIP3    H173106   3.054   4.384  12.100  2.5080  0.5611  0.5795
17205TIP3    H273107   2.928   4.448  12.045  1.8434 -1.5143 -0.4381
17206TIP3   OH273108   2.300   4.989  14.645  0.2411 -0.0311 -0.0090
17206TIP3    H173109   2.348   5.055  14.595 -1.2966 -0.0758 -1.6651
17206TIP3    H273110   2.270   5.035  14.723 -1.7755  1.7068 -1.6471
17207TIP3   OH273111   2.044   3.665  11.972 -0.3529  0.3386 -0.3882
17207TIP3    H173112   1.982   3.599  12.002 -1.2393  1.0468 -0.6109
17207TIP3    H273113   2.044   3.731  12.041  1.2161 -0.2981  0.2666
17208TIP3   OH273114   6.627   0.601  15.348 -0.0811 -0.7159 -0.4224
17208TIP3    H173115   6.644   0.592  15.442 -1.0958 -2.9767 -0.3781
17208TIP3    H273116   6.532   0.616  15.343  0.1934  1.0359 -1.0615
17209TIP3   OH273117   3.005   5.933   2.558 -0.4145  0.3393  0.1441
17209TIP3    H173118   3.053   5.921   2.640  3.3329  1.1762 -1.7178
17209TIP3    H273119   3.032   5.859   2.504 -0.7666  1.1753 -1.2155
17210TIP3   OH273120   5.781   6.730  16.148  0.1458 -0.2797  0.0333
17210TIP3    H173121   5.812   6.653  16.101  1.6772  1.2270 -1.5532
17210TIP3    H273122   5.828   6.728  16.232  1.4217 -0.2335 -0.6594
17211TIP3   OH273123   0.632   3.740  16.094 -0.2832  0.1606 -0.2556
17211TIP3    H173124   0.538   3.759  16.093 -0.6617 -1.5103 -2.3350
17211TIP3    H273125   0.656   3.748  16.186 -1.9945  2.5751  0.1020
17212TIP3   OH273126   5.854   1.608  10.448 -0.0956  0.0062  0.0978
17212TIP3    H173127   5.758   1.602  10.442  0.0357 -1.3120 -1.3668
17212TIP3    H273128   5.873   1.585  10.539 -1.1401 -0.4885  0.2128
17213TIP3   OH273129   3.193   5.383   0.914 -0.8250  0.0137  0.6514
17213TIP3    H173130   3.168   5.424   0.832  1.7999  0.5869  0.0228
17213TIP3    H273131   3.114   5.385   0.968 -2.4102  0.2810 -1.5750
17214TIP3   OH273132   1.507   0.554   3.049  0.1980  0.1200 -0.1701
17214TIP3    H173133   1.556   0.491   3.102 -0.4152  0.0052  0.2726
17214TIP3    H273134   1.523   0.639   3.091 -0.1427  0.0540  0.0972
17215TIP3   OH273135   2.995   1.407   0.461  0.3140  0.5588  0.5973
17215TIP3    H173136   3.055   1.422   0.388  0.4348  1.4212  0.8595
17215TIP3    H273137   2.916   1.455   0.437  0.0769  0.2188  0.6919
17216TIP3   OH273138   0.721   1.566  12.871 -0.0685 -0.3161  0.7437
17216TIP3    H173139   0.786   1.499  12.890 -1.8441 -2.1363  0.6578
17216TIP3    H273140   0.683   1.588  12.956 -0.8063 -0.8132  0.5420
17217TIP3   OH273141   6.335   5.277  11.725 -0.3943 -0.0445 -0.1035
17217TIP3    H173142   6.261   5.339  11.727  0.2897  0.7674  0.7088
17217TIP3    H273143   6.410   5.329  11.752  0.2239 -1.2143  0.4801
17218TIP3   OH273144   5.531   2.291   5.387 -0.5009 -0.0144  0.2837
17218TIP3    H173145   5.616   2.265   5.349 -0.7299  0.2752 -0.4393
17218TIP3    H273146   5.517   2.380   5.356 -1.2985 -0.2286  0.0094
17219TIP3   OH273147   3.504   5.576  17.177  0.1268  0.1032 -0.0961
17219TIP3    H173148   3.543   5.508  17.233 -0.8805 -0.3863  0.0280
17219TIP3    H273149   3.424   5.536  17.143 -1.0555  1.6076  0.8209
17220TIP3   OH273150   0.677   4.233  12.004  0.2104 -0.4523 -0.5286
17220TIP3    H173151   0.751   4.291  12.025 -1.6731  1.5559  0.9907
17220TIP3    H273152   0.718   4.150  11.981  2.9682 -1.1978  5.2482
17221TIP3   OH273153   2.096   4.035  12.393 -0.2996 -0.2506  0.3269
17221TIP3    H173154   2.114   3.952  12.349  0.8642  0.0694  0.1725
17221TIP3    H273155   2.181   4.063  12.427 -1.1128 -0.4035  2.6561
17222TIP3   OH273156   4.676   6.082  13.720  0.0562 -0.7456  0.7063
17222TIP3    H173157   4.752   6.029  13.743 -0.2790 -1.3785  0.3662
17222TIP3    H273158   4.644   6.044  13.638  1.0132  1.2130 -0.6702
17223TIP3   OH273159   2.210   0.074  12.870 -0.1292 -0.2854 -0.0405
17223TIP3    H173160   2.220  -0.015  12.905  0.3829 -0.2595 -0.1125
17223TIP3    H273161   2.289   0.120  12.899 -0.9725  0.5127  1.0597
17224TIP3   OH273162   5.684   5.824  15.372 -0.7942 -0.4316  0.0490
17224TIP3    H173163   5.680   5.749  15.431  2.6607  0.8311  2.2044
17224TIP3    H273164   5.633   5.892  15.416 -1.6811 -0.6907 -0.5582
17225TIP3   OH273165   1.136   3.420   1.882  0.4705 -0.0727 -0.3386
17225TIP3    H173166   1.082   3.470   1.821 -2.6422 -0.0416  2.1872
17225TIP3    H273167   1.154   3.338   1.837 -0.1335  0.6493 -1.9634
17226TIP3   OH273168   1.237   3.188   3.798  0.6871 -0.4945 -0.0415
17226TIP3    H173169   1.229   3.095   3.820  0.9045 -0.2475  1.1563
17226TIP3    H273170   1.326   3.196   3.764  0.4225 -0.8448 -0.8478
17227TIP3   OH273171   4.230   3.385  16.314 -0.1020 -0.1194  0.7256
17227TIP3    H173172   4.251   3.315  16.253 -0.1122 -1.8912  2.6503
17227TIP3    H273173   4.313   3.403  16.360 -0.5748 -0.4196  1.7340
17228TIP3   OH273174   1.587   1.333  15.237  0.4317 -0.3883 -0.4583
17228TIP3    H173175   1.513   1.272  15.239 -1.7206  2.0840  1.0545
17228TIP3    H273176   1.602   1.356  15.328  1.0574  1.4565 -0.9822
17229TIP3   OH273177   0.320   2.951   3.595 -0.2258  0.2573  0.0166
17229TIP3    H173178   0.226   2.932   3.599 -0.5118  1.6391  0.5137
17229TIP3    H273179   0.356   2.882   3.540 -1.5940 -0.0940 -0.4812
17230TIP3   OH273180   2.249   5.653  14.055  0.3094 -0.3470  0.5954
17230TIP3    H173181   2.188   5.579  14.051 -0.0221 -0.0450 -1.1658
17230TIP3    H273182   2.302   5.643  13.976  0.3242  1.2267  0.3818
17231TIP3   OH273183   6.678   6.006   1.047  0.2813 -0.0716 -0.3238
17231TIP3    H173184   6.653   5.983   0.958 -0.1123 -2.1808  0.2758
17231TIP3    H273185   6.754   6.063   1.037 -0.8736  1.2914 -2.0231
17232TIP3   OH273186   6.590   6.485  14.217  0.6121  0.0009 -0.4835
17232TIP3    H173187   6.539   6.484  14.297 -0.1759 -1.2604 -0.9708
17232TIP3    H273188   6.525   6.497  14.147  1.3806  2.1116 -0.8946
17233TIP3   OH273189   1.716   5.119   4.087  0.1411 -0.3914  0.2405
17233TIP3    H173190   1.793   5.146   4.038  0.3876 -0.4130  0.6118
17233TIP3    H273191   1.644   5.168   4.047  0.7830  2.1236  1.9159
17234TIP3   OH273192   3.820   3.372   2.294  1.2105 -0.2270  0.4253
17234TIP3    H173193   3.783   3.293   2.332  0.0841  0.3418  0.5641
17234TIP3    H273194   3.827   3.433   2.367  1.2365  0.0943  0.1558
17235TIP3   OH273195   4.824   1.665   5.410 -0.0349 -0.1723 -0.1371
17235TIP3    H173196   4.730   1.680   5.421  0.2425  0.6341  1.4343
17235TIP3    H273197   4.844   1.701   5.323 -1.4359 -1.8132 -1.1957
17236TIP3   OH273198   2.961   5.400  12.252 -0.0799  0.5178 -0.4985
17236TIP3    H173199   2.889   5.373  12.195 -0.1998 -1.1208  0.3715
17236TIP3    H273200   3.026   5.331  12.244  0.3151  0.7372  0.5797
17237TIP3   OH273201   0.205   0.330   5.363 -1.0520 -0.6300 -0.4366
17237TIP3    H173202   0.215   0.249   5.413 -2.6117 -1.2227 -1.0087
17237TIP3    H273203   0.215   0.303   5.271 -0.6058  0.0018 -0.5801
17238TIP3   OH273204   0.251   5.593  16.501 -0.5059  0.0949 -0.1569
17238TIP3    H173205   0.250   5.551  16.587 -1.8959  0.6133  0.1166
17238TIP3    H273206   0.202   5.533  16.445  0.0451 -0.0468 -0.4867
17239TIP3   OH273207   1.005   4.874   4.456  0.1665  0.3163 -0.2015
17239TIP3    H173208   0.919   4.839   4.436 -0.8335  1.5395  1.6457
17239TIP3    H273209   1.059   4.797   4.473 -0.7675 -0.4395 -0.5708
17240TIP3   OH273210   0.072   4.979  16.792 -1.1035 -0.3851 -0.0330
17240TIP3    H173211   0.149   4.941  16.751 -0.9840 -0.7743  0.5372
17240TIP3    H273212   0.060   4.928  16.872  0.3522  2.1049  1.9269
17241TIP3   OH273213   1.868   0.692   5.990 -0.7949  0.5194  0.1494
17241TIP3    H173214   1.956   0.661   6.008 -0.2953  2.0332  0.5108
17241TIP3    H273215   1.856   0.766   6.049 -1.9138  0.9937 -0.6211
17242TIP3   OH273216   5.367   1.564   3.048  0.0652  0.2542 -0.6518
17242TIP3    H173217   5.392   1.611   2.969  0.1044  0.3988 -0.5523
17242TIP3    H273218   5.306   1.622   3.093  0.3851  0.3589 -0.3539
17243TIP3   OH273219   6.539   5.474  15.703  0.6648 -0.5623 -0.8011
17243TIP3    H173220   6.599   5.477  15.628  0.7396 -0.0637 -0.7297
17243TIP3    H273221   6.593   5.442  15.775  0.5989 -1.0219 -0.9548
17244TIP3   OH273222   3.366   1.225   3.649  0.5648  0.0444 -0.0953
17244TIP3    H173223   3.278   1.252   3.676  0.2113 -1.4628  0.3227
17244TIP3    H273224   3.351   1.158   3.583  1.4125 -0.1372 -0.1097
17245TIP3   OH273225   4.092   3.892   0.052 -0.2032  0.3760  0.6862
17245TIP3    H173226   4.071   3.929   0.138  2.1509  1.7538  0.7467
17245TIP3    H273227   4.186   3.904   0.043  0.1896 -2.7299 -0.7570
17246TIP3   OH273228   2.000   4.753   5.372  0.1283  0.2464  0.1008
17246TIP3    H173229   2.002   4.695   5.448  0.7565  1.2072  0.8623
17246TIP3    H273230   1.910   4.784   5.367  0.4558  1.6296  1.6619
17247TIP3   OH273231   5.083   2.540   4.209 -0.8221  0.0434 -0.1367
17247TIP3    H173232   5.057   2.508   4.123  1.0754 -0.5731 -0.5308
17247TIP3    H273233   5.170   2.503   4.224  0.5255  3.0860  0.4273
17248TIP3   OH273234   5.809   4.717   3.853 -0.1028  0.4159 -0.0955
17248TIP3    H173235   5.822   4.716   3.758 -0.7634 -0.5755 -0.1879
17248TIP3    H273236   5.879   4.772   3.886 -0.8974  2.2537 -1.3054
17249TIP3   OH273237   5.805   1.446  14.723  0.2687 -0.1951 -0.3557
17249TIP3    H173238   5.764   1.431  14.637 -0.0687  1.1439 -0.4496
17249TIP3    H273239   5.847   1.531  14.715 -0.6274  0.4329  1.1094
17250TIP3   OH273240   3.296   3.998  14.306  0.2337  0.2573 -0.1339
17250TIP3    H173241   3.361   3.993  14.236  1.2767  0.2500  0.8084
17250TIP3    H273242   3.324   4.072  14.360 -1.4936  1.3186 -0.6114
17251TIP3   OH273243   3.422   3.723  15.972  0.5278  0.0463 -0.1312
17251TIP3    H173244   3.516   3.720  15.992  0.4139 -0.9587  0.2900
17251TIP3    H273245   3.382   3.665  16.036 -0.1329 -1.3096 -1.6994
17252TIP3   OH273246   1.392   5.251  10.647  0.0663 -0.6113  0.0127
17252TIP3    H173247   1.448   5.243  10.569 -0.5143  0.0665 -0.4903
17252TIP3    H273248   1.436   5.316  10.701 -0.9539  1.0714 -1.0746
17253TIP3   OH273249   4.499   2.494   0.917 -0.3121  1.0304 -0.3996
17253TIP3    H173250   4.404   2.504   0.924 -0.3616  1.6061 -1.6609
17253TIP3    H273251   4.519   2.415   0.967 -1.0241  2.6213  2.6391
17254TIP3   OH273252   1.147   0.266  12.250 -0.2578 -1.0965  0.5260
17254TIP3    H173253   1.199   0.223  12.317  1.5780 -0.7427 -0.6071
17254TIP3    H273254   1.169   0.220  12.169  1.2298  1.3841 -0.6109
17255TIP3   OH273255   3.114   3.147   2.076  0.1624 -0.3433 -0.2973
17255TIP3    H173256   3.141   3.183   2.160 -1.1303  0.6741 -0.2863
17255TIP3    H273257   3.133   3.217   2.013  2.7857 -1.7309 -1.1940
17256TIP3   OH273258   6.110   2.832  11.212  0.4346  0.5831  0.0247
17256TIP3    H173259   6.024   2.810  11.248 -0.2366  0.7195 -1.4357
17256TIP3    H273260   6.093   2.853  11.120  2.3239 -1.4041 -0.8551
17257TIP3   OH273261   0.003   6.361  14.113 -0.1394 -0.2265 -0.0038
17257TIP3    H173262  -0.058   6.323  14.050  0.0778  0.0275 -0.3654
17257TIP3    H273263  -0.052   6.410  14.173 -0.5561 -1.9132  1.0817
17258TIP3   OH273264   6.258   5.509   6.220  0.3108 -0.2561 -0.3274
17258TIP3    H173265   6.289   5.460   6.296  0.1223 -0.5793 -0.4595
17258TIP3    H273266   6.315   5.586   6.216 -0.7171  0.6498  1.1469
17259TIP3   OH273267   6.362   0.063  15.907 -0.0572  0.2706 -0.2524
17259TIP3    H173268   6.386   0.141  15.956 -1.7399  0.9660 -0.4873
17259TIP3    H273269   6.431   0.054  15.840 -1.3181  3.2747 -2.1372
17260TIP3   OH273270   3.578   4.139  15.994  0.1224 -0.0651 -0.6362
17260TIP3    H173271   3.504   4.099  15.949 -0.5787  1.6307 -1.0614
17260TIP3    H273272   3.620   4.193  15.928  1.8877 -1.1110 -0.4449
17261TIP3   OH273273   3.420   6.216  16.503 -0.3540 -0.4420 -0.3386
17261TIP3    H173274   3.449   6.141  16.451 -0.2122 -0.6527  0.0376
17261TIP3    H273275   3.386   6.278  16.439  0.2131 -0.5193 -0.7155
17262TIP3   OH273276   6.738   4.857  14.678 -0.0896  0.4328 -0.4332
17262TIP3    H173277   6.769   4.934  14.726 -0.7137 -0.4451  1.4931
17262TIP3    H273278   6.643   4.860  14.688 -0.1129 -0.6164 -0.2343
17263TIP3   OH273279   2.471   6.305   0.354  0.4411 -0.1867  0.6768
17263TIP3    H173280   2.412   6.333   0.424  0.4494 -1.5818  1.2885
17263TIP3    H273281   2.557   6.338   0.380  0.5147 -1.0124  1.5601
17264TIP3   OH273282   0.837   6.454   4.461 -0.1513  0.0457  0.1356
17264TIP3    H173283   0.874   6.397   4.528  0.1189  0.7845  0.6380
17264TIP3    H273284   0.812   6.534   4.509  1.1940  1.0947 -0.8140
17265TIP3   OH273285   0.497   3.473   4.801  0.1130 -0.1284 -0.3685
17265TIP3    H173286   0.487   3.550   4.857  4.0884  0.0322  0.3844
17265TIP3    H273287   0.514   3.402   4.863  0.0466 -0.9057 -1.2270
17266TIP3   OH273288   0.008   6.234   5.005 -0.5874 -0.3515 -0.1957
17266TIP3    H173289  -0.065   6.193   5.051 -3.3873  1.1692 -2.8813
17266TIP3    H273290   0.042   6.165   4.948 -1.1989 -0.6100 -0.2603
17267TIP3   OH273291   1.733   2.148  14.312  0.2531 -0.0333 -0.0998
17267TIP3    H173292   1.821   2.111  14.325  0.2682 -0.1789 -0.6040
17267TIP3    H273293   1.726   2.161  14.217  0.4498  1.7306  0.0835
17268TIP3   OH273294   6.807   0.848   4.424 -0.7000  0.5445  0.0230
17268TIP3    H173295   6.754   0.790   4.480 -1.8638 -1.2011 -2.7043
17268TIP3    H273296   6.751   0.924   4.408 -0.4947  0.8929  0.8891
17269TIP3   OH273297   2.376   4.963   3.313  0.3444 -0.0431 -0.3436
17269TIP3    H173298   2.462   4.983   3.348  0.0200  3.2207 -1.1362
17269TIP3    H273299   2.393   4.901   3.242  1.9202 -0.0488  0.0013
17270TIP3   OH273300   1.900   4.991  13.108  0.2210  0.3954 -0.3142
17270TIP3    H173301   1.957   4.915  13.120 -0.7769 -0.1307  1.4971
17270TIP3    H273302   1.919   5.048  13.183  1.4215  2.3181 -1.9808
17271TIP3   OH273303   2.019   5.457   5.238  0.1577  0.3048 -0.4340
17271TIP3    H173304   2.034   5.383   5.179 -1.0020 -0.1494 -0.1821
17271TIP3    H273305   2.013   5.533   5.181 -0.3491 -0.0466 -0.8529
17272TIP3   OH273306   5.171   5.126  14.025 -0.6741  0.3976  0.1933
17272TIP3    H173307   5.133   5.206  14.061 -1.2091  0.9239 -1.4415
17272TIP3    H273308   5.244   5.156  13.972  0.6841 -0.4390  1.4983
17273TIP3   OH273309   2.738   2.461  16.774  0.1568 -0.5924  0.7057
17273TIP3    H173310   2.722   2.536  16.833 -1.5396  0.9543 -1.5394
17273TIP3    H273311   2.672   2.397  16.799 -0.9302  0.2870  0.1711
17274TIP3   OH273312   3.177   3.629   5.538 -0.1727 -0.0782 -0.5447
17274TIP3    H173313   3.236   3.617   5.613 -0.2482  1.2960 -0.2526
17274TIP3    H273314   3.194   3.553   5.482 -0.7022 -1.6028  1.2410
17275TIP3   OH273315   0.184   4.302   6.921 -0.4921 -0.1802 -0.0011
17275TIP3    H173316   0.155   4.227   6.868 -1.2069  0.8672 -1.1456
17275TIP3    H273317   0.145   4.286   7.007  0.7301 -1.9419  0.2974
17276TIP3   OH273318   0.981   0.682   1.655 -0.4919  0.2925  0.2918
17276TIP3    H173319   1.013   0.704   1.742  1.5943 -0.7063 -0.1644
17276TIP3    H273320   0.904   0.628   1.671  0.3352 -0.5648  1.5406
17277TIP3   OH273321   0.819   5.357   2.233  0.7457  0.3362 -0.0708
17277TIP3    H173322   0.787   5.442   2.202 -0.9630  0.9666  3.0074
17277TIP3    H273323   0.911   5.373   2.256  0.9890  0.7885 -1.2772
17278TIP3   OH273324   4.710   6.359  14.410  0.5094  0.2815  0.5261
17278TIP3    H173325   4.726   6.380  14.502 -0.1421  1.4591  0.3855
17278TIP3    H273326   4.621   6.325  14.408  0.3493  0.7109  0.2687
17279TIP3   OH273327   2.028   6.507   1.003  0.4210  0.3724 -0.3047
17279TIP3    H173328   2.071   6.423   1.019 -0.1112  0.1082 -0.2325
17279TIP3    H273329   1.968   6.517   1.077 -0.0592  0.4582 -0.7026
17280TIP3   OH273330   3.552   0.622  16.526 -0.4235 -0.2650  0.8962
17280TIP3    H173331   3.476   0.576  16.490 -1.1807 -0.0220  2.1350
17280TIP3    H273332   3.532   0.634  16.619  0.4156  1.2431  0.9197
17281TIP3   OH273333   6.639   6.271  12.144  0.3025 -0.2802 -0.4092
17281TIP3    H173334   6.587   6.350  12.136  0.4871 -0.1184 -0.0130
17281TIP3    H273335   6.649   6.257  12.238  0.1283 -0.8666 -0.4728
17282TIP3   OH273336   6.516   1.265  16.185 -0.6801  0.5133  0.7283
17282TIP3    H173337   6.463   1.320  16.242 -1.4033  0.8278 -0.2186
17282TIP3    H273338   6.504   1.177  16.219 -2.4877  0.4591  0.0839
17283TIP3   OH273339   6.151   5.115   3.874  0.2586 -0.3502  0.0423
17283TIP3    H173340   6.068   5.073   3.898 -0.1585  1.2490  1.6328
17283TIP3    H273341   6.152   5.195   3.926  0.1507  2.6395 -4.1377
17284TIP3   OH273342   2.416   5.035  15.092 -0.0303  0.2180 -0.7609
17284TIP3    H173343   2.436   5.128  15.083  3.9047 -0.2731  0.8645
17284TIP3    H273344   2.329   5.033  15.132 -1.3664  3.0319 -3.1840
17285TIP3   OH273345   6.443   3.650   2.697  0.3193 -0.0413 -0.1028
17285TIP3    H173346   6.376   3.600   2.651 -0.0256 -0.0110  0.3651
17285TIP3    H273347   6.430   3.629   2.790  2.2584 -1.6484 -0.1408
17286TIP3   OH273348   0.038   1.395   3.027  0.9898  0.2673  0.7187
17286TIP3    H173349  -0.003   1.481   3.032  0.4780  0.0988 -0.4872
17286TIP3    H273350  -0.010   1.341   3.090  0.3076  0.4598  0.3668
17287TIP3   OH273351   1.658   6.631  12.441 -0.9681 -0.3992  0.8576
17287TIP3    H173352   1.705   6.616  12.359 -1.2348  0.0023  0.6313
17287TIP3    H273353   1.725   6.624  12.509 -0.4329  0.8870  0.4904
17288TIP3   OH273354   0.917   3.161  13.628  0.1821 -0.0575  0.3999
17288TIP3    H173355   0.878   3.246  13.607 -1.8542 -1.4228 -1.9813
17288TIP3    H273356   1.000   3.182  13.670 -0.4917  3.0840  0.4033
17289TIP3   OH273357   6.218   5.609   4.517  0.7221 -1.2084  0.3783
17289TIP3    H173358   6.227   5.524   4.472  2.8699 -0.8419  0.0398
17289TIP3    H273359   6.192   5.670   4.448 -0.7635 -1.5432  0.6096
17290TIP3   OH273360   6.764   5.446   3.258  0.5891  0.1763 -0.0078
17290TIP3    H173361   6.803   5.531   3.237  0.5096  0.6745  1.6838
17290TIP3    H273362   6.669   5.462   3.255  0.5331 -0.3038 -1.3242
17291TIP3   OH273363   6.430   5.217  16.176 -0.0439 -0.0528  1.2338
17291TIP3    H173364   6.473   5.217  16.091 -0.5466  1.8921  0.9210
17291TIP3    H273365   6.337   5.203  16.156 -0.5734  3.0324  1.1182
17292TIP3   OH273366   0.021   5.475  12.393  0.0775 -0.9137 -0.3202
17292TIP3    H173367  -0.005   5.502  12.481 -1.2447  0.5528 -1.1045
17292TIP3    H273368   0.066   5.551  12.357  0.6732 -1.5251 -0.8975
17293TIP3   OH273369   3.855   4.433  14.741 -0.7532 -0.2494 -0.4128
17293TIP3    H173370   3.945   4.438  14.772 -0.2841 -0.2377 -1.7174
17293TIP3    H273371   3.807   4.391  14.813  0.2951 -0.3517  0.2527
17294TIP3   OH273372   6.568   6.629   5.828  0.7849 -0.5108  0.6199
17294TIP3    H173373   6.531   6.583   5.903 -0.5005 -0.9608 -0.2606
17294TIP3    H273374   6.645   6.577   5.804  0.1900 -1.3863  0.5498
17295TIP3   OH273375   6.107   3.032  13.857 -0.2058 -0.3499  0.5140
17295TIP3    H173376   6.132   3.009  13.946  0.6012 -1.3992  0.0376
17295TIP3    H273377   6.066   3.118  13.865  1.7028  0.5140  1.6161
17296TIP3   OH273378   1.723   5.355  16.769 -0.1959  0.3599  0.3199
17296TIP3    H173379   1.807   5.399  16.782 -0.8230  1.3076  1.3429
17296TIP3    H273380   1.722   5.286  16.835  0.3811 -0.6230 -0.6618
17297TIP3   OH273381   0.595   3.227  10.282 -0.0350  0.6060  0.4411
17297TIP3    H173382   0.659   3.293  10.256  0.5488 -0.3171 -0.5519
17297TIP3    H273383   0.614   3.211  10.375 -0.2896  1.9294  0.7336
17298TIP3   OH273384   3.183   5.224   5.537 -0.2220 -0.2754  0.2742
17298TIP3    H173385   3.122   5.157   5.506  1.3012 -1.2904 -0.6736
17298TIP3    H273386   3.251   5.228   5.470  0.3714  1.3723  0.9120
17299TIP3   OH273387   3.581   3.543   5.936  0.0212 -0.2128  0.0418
17299TIP3    H173388   3.628   3.568   6.016 -1.2786 -0.1318  0.8191
17299TIP3    H273389   3.514   3.482   5.966 -1.3474  0.8363 -0.7716
17300TIP3   OH273390   6.788   5.314   3.031  0.2637  0.4614  0.2837
17300TIP3    H173391   6.789   5.324   3.126 -4.0403 -0.0882  0.5712
17300TIP3    H273392   6.770   5.402   2.998 -1.3027  0.1800  0.2855
17301TIP3   OH273393   5.385   2.762  12.507 -0.1619  0.8610  0.1967
17301TIP3    H173394   5.464   2.732  12.463 -0.8304 -0.3664 -0.2062
17301TIP3    H273395   5.414   2.835  12.562  1.0314  1.1658 -0.8053
17302TIP3   OH273396   2.333   5.111   1.010  0.3994  0.2475  0.0610
17302TIP3    H173397   2.278   5.181   0.975 -0.1905  0.2558  0.9740
17302TIP3    H273398   2.296   5.093   1.096  0.8273 -0.8823  0.0181
17303TIP3   OH273399   1.713   3.080   4.454  0.4446  0.0165 -0.2939
17303TIP3    H173400   1.624   3.109   4.473  0.0477 -0.6754 -1.0228
17303TIP3    H273401   1.743   3.039   4.535 -0.4112 -0.9505 -0.4382
17304TIP3   OH273402   5.497   6.556   3.109 -0.1294 -0.0915 -0.2087
17304TIP3    H173403   5.473   6.643   3.075  1.1288  0.0288 -0.8412
17304TIP3    H273404   5.447   6.548   3.190  0.1308  1.4540  0.1400
17305TIP3   OH273405   4.005   6.259  10.841 -0.3629  0.3073  0.2017
17305TIP3    H173406   4.024   6.352  10.841 -0.1732  0.2703 -0.1428
17305TIP3    H273407   3.928   6.250  10.898  0.6747  0.4563  1.6856
17306TIP3   OH273408   4.549   4.019   1.103  0.1405 -1.2718 -0.2434
17306TIP3    H173409   4.632   3.975   1.122  1.6533  1.9896  1.5461
17306TIP3    H273410   4.572   4.086   1.038 -1.2322 -0.7245 -0.1982
17307TIP3   OH273411   6.146   5.615   2.515 -0.2354  0.4426 -0.0726
17307TIP3    H173412   6.239   5.633   2.497 -0.2813  2.5665  1.3829
17307TIP3    H273413   6.137   5.631   2.609 -2.1053  0.3672 -0.2115
17308TIP3   OH273414   3.006   4.124  15.287 -0.0720  0.0292  0.7464
17308TIP3    H173415   2.956   4.073  15.223  0.4130 -0.2996  0.6262
17308TIP3    H273416   2.942   4.147  15.355 -0.4974  0.0367  0.3503
17309TIP3   OH273417   0.599   4.043  13.415  0.0807 -0.1045  0.5329
17309TIP3    H173418   0.565   3.974  13.357  1.5971 -0.5754  0.1611
17309TIP3    H273419   0.684   4.065  13.378  0.1143  1.1827  1.3197
17310TIP3   OH273420   6.109   3.912  14.442 -0.0618  0.2543 -0.3914
17310TIP3    H173421   6.157   3.883  14.363  1.3899  2.1305 -0.2673
17310TIP3    H273422   6.057   3.987  14.413 -1.0792 -0.2667  0.0329
17311TIP3   OH273423   2.701   5.000   5.617  0.4024 -0.3271  0.4811
17311TIP3    H173424   2.610   5.028   5.609  0.3099 -0.9750 -1.1873
17311TIP3    H273425   2.710   4.971   5.708 -0.9699 -0.0333  0.7288
17312TIP3   OH273426   2.508   6.431  11.416  0.2986  0.3077 -0.2887
17312TIP3    H173427   2.425   6.410  11.459  0.7928 -2.0946 -0.3759
17312TIP3    H273428   2.486   6.504  11.357 -1.4926  0.4199  0.4312
17313TIP3   OH273429   5.768   5.446   4.375 -0.2476 -0.3129 -0.4898
17313TIP3    H173430   5.677   5.422   4.356 -1.2713  1.9373  1.1056
17313TIP3    H273431   5.779   5.427   4.468  1.5637 -2.2473 -1.0316
17314TIP3   OH273432   0.389   4.322  12.651  0.1068  0.1039  0.0924
17314TIP3    H173433   0.437   4.348  12.572 -0.8447 -2.0825 -1.3029
17314TIP3    H273434   0.449   4.262  12.696 -0.2179 -0.4661 -0.2160
17315TIP3   OH273435   5.830   5.755  14.477  0.1115 -0.9703  0.0924
17315TIP3    H173436   5.745   5.769  14.435  0.3125 -1.3217 -0.4311
17315TIP3    H273437   5.861   5.671  14.443  1.4373 -0.0698 -1.0119
17316TIP3   OH273438   2.521   2.329   3.187  0.2332  0.2015  0.3094
17316TIP3    H173439   2.594   2.354   3.131 -1.2527  0.4582 -1.6110
17316TIP3    H273440   2.520   2.233   3.185  1.0452  0.1662  1.0960
17317TIP3   OH273441   2.792   2.049   0.718  0.1978 -0.0353  0.1871
17317TIP3    H173442   2.759   1.959   0.719 -0.4659  0.1413 -2.0586
17317TIP3    H273443   2.714   2.103   0.707  0.6532  0.8005  0.9660
17318TIP3   OH273444   2.347   0.329  13.705 -0.0518 -0.9605 -0.3940
17318TIP3    H173445   2.308   0.243  13.723 -2.3943 -0.3531 -2.1168
17318TIP3    H273446   2.285   0.372  13.646  1.4388  1.6354 -0.2254
17319TIP3   OH273447   6.651   5.696   5.309 -0.3112  0.0780  0.3652
17319TIP3    H173448   6.575   5.659   5.264 -0.0289 -0.3641  0.2477
17319TIP3    H273449   6.718   5.704   5.241 -0.2550  0.4882  0.4636
17320TIP3   OH273450   6.697   2.075  14.982 -0.3605 -0.1693 -0.1068
17320TIP3    H173451   6.622   2.129  15.005 -1.8040 -1.4864 -1.4659
17320TIP3    H273452   6.705   2.011  15.053 -0.1582  0.3247  0.3158
17321TIP3   OH273453   3.883   4.315  12.396 -0.0460  0.0595  0.1293
17321TIP3    H173454   3.953   4.372  12.428  0.3001  0.0980 -0.6844
17321TIP3    H273455   3.884   4.328  12.301  1.8863 -3.3213 -0.4591
17322TIP3   OH273456   2.046   3.036   3.398  0.5300  0.1236 -0.1584
17322TIP3    H173457   2.047   3.076   3.485 -0.2920 -1.7043  0.7480
17322TIP3    H273458   1.955   3.045   3.368  0.6142  0.0063 -0.4579
17323TIP3   OH273459   6.715   4.902   4.800  0.0036 -0.3410 -0.2515
17323TIP3    H173460   6.661   4.824   4.790  0.5650 -0.9100  0.9558
17323TIP3    H273461   6.795   4.883   4.751 -0.6648  0.3061 -1.6326
17324TIP3   OH273462   0.278   1.075   2.929 -0.0370  0.0606  0.0226
17324TIP3    H173463   0.301   1.167   2.912 -1.2677 -0.0694 -3.0449
17324TIP3    H273464   0.253   1.073   3.021  1.2649  2.5119  0.5096
17325TIP3   OH273465   5.841   0.350  16.876 -0.3688  0.2545 -0.2427
17325TIP3    H173466   5.793   0.348  16.959 -0.7952 -0.8653 -0.4979
17325TIP3    H273467   5.874   0.440  16.870  0.1706  0.2039  1.4181
17326TIP3   OH273468   0.813   2.888   1.242 -0.5159 -0.0598 -0.1362
17326TIP3    H173469   0.881   2.911   1.305  0.6467  1.2844 -1.7855
17326TIP3    H273470   0.791   2.797   1.262 -1.1772  0.6633  3.0140
17327TIP3   OH273471   2.401   6.343  12.371 -0.4621 -0.2174 -0.0251
17327TIP3    H173472   2.462   6.355  12.299  0.0236 -2.9545 -0.1797
17327TIP3    H273473   2.446   6.381  12.447  0.9372 -1.1088 -0.3702
17328TIP3   OH273474   6.158   4.227  15.008 -0.5886  0.5563 -0.1227
17328TIP3    H173475   6.064   4.213  15.016 -0.5195  0.7786  1.3103
17328TIP3    H273476   6.166   4.319  14.980 -0.7968  0.4589 -0.5070
17329TIP3   OH273477   3.064   5.560  11.468  0.5358 -0.1508  0.3689
17329TIP3    H173478   2.974   5.591  11.479 -0.3810 -2.1940 -0.8101
17329TIP3    H273479   3.057   5.483  11.411  3.1483  0.2510 -0.6694
17330TIP3   OH273480   3.040   4.912  13.288  0.3331  0.4807 -0.3948
17330TIP3    H173481   3.029   4.818  13.293 -1.1707  0.5338 -1.8494
17330TIP3    H273482   3.134   4.925  13.276  0.9798 -0.6216  2.6758
17331TIP3   OH273483   2.514   1.135  13.634  0.0615 -0.0011  0.2419
17331TIP3    H173484   2.531   1.196  13.563 -3.4916  1.6723  0.6218
17331TIP3    H273485   2.594   1.137  13.687  1.2024  1.9676 -1.4210
17332TIP3   OH273486   0.704   6.227  17.039  0.7404  0.3194  0.0491
17332TIP3    H173487   0.690   6.229  17.134 -0.9384 -1.2795 -0.0880
17332TIP3    H273488   0.638   6.288  17.005  0.5162 -0.0280 -0.1408
17333TIP3   OH273489   1.478   0.769  16.272 -0.3265  0.5169  0.5776
17333TIP3    H173490   1.534   0.706  16.226 -1.6357 -0.2523 -0.0141
17333TIP3    H273491   1.396   0.769  16.222 -1.2125  0.8704  1.9885
17334TIP3   OH273492   0.519   2.859   4.876  0.2707 -0.3671  0.4498
17334TIP3    H173493   0.464   2.900   4.809  1.2245  0.5443  0.2020
17334TIP3    H273494   0.478   2.774   4.891 -1.5535  0.5075  0.7077
17335TIP3   OH273495   1.899   5.512   5.875 -0.0676 -0.0140  0.3692
17335TIP3    H173496   1.838   5.448   5.837 -0.8522 -0.3877  2.1720
17335TIP3    H273497   1.861   5.535   5.959 -0.7254  4.2021 -0.8675
17336TIP3   OH273498   4.871   6.588  14.649  0.3948  0.2640 -0.0526
17336TIP3    H173499   4.837   6.672  14.618 -0.9664 -0.4036 -0.4280
17336TIP3    H273500   4.851   6.587  14.743 -0.3418  0.0318 -0.2020
17337TIP3   OH273501   6.674   0.848  11.088 -0.0856 -0.0301  0.4457
17337TIP3    H173502   6.582   0.830  11.069  0.0960  0.7996 -1.3496
17337TIP3    H273503   6.681   0.944  11.081  1.0207 -0.1366  0.0532
17338TIP3   OH273504   0.939   1.058  12.726 -0.1795 -0.6093  0.0304
17338TIP3    H173505   0.881   1.126  12.761  1.9652  1.0180  0.6608
17338TIP3    H273506   0.973   1.095  12.645  2.1195 -0.2181  1.0940
17339TIP3   OH273507   6.618   3.056   2.084  0.1817  0.8801 -0.1125
17339TIP3    H173508   6.630   3.081   2.175 -1.2417 -0.7922  0.5909
17339TIP3    H273509   6.667   2.975   2.074  1.4685  1.7495 -1.2555
17340TIP3   OH273510   5.676   4.833  11.757  0.9682 -0.3434  0.0938
17340TIP3    H173511   5.716   4.893  11.820 -0.3920 -1.0128  1.6647
17340TIP3    H273512   5.597   4.879  11.727  1.5544 -0.0673 -1.1162
17341TIP3   OH273513   0.136   2.295  11.861  0.4829 -0.4431  0.3056
17341TIP3    H173514   0.165   2.308  11.770 -1.6283  0.1018 -0.3513
17341TIP3    H273515   0.180   2.365  11.910  0.5261  0.1823 -0.5835
17342TIP3   OH273516   5.529   4.700   2.693 -0.2650 -0.6403 -0.3729
17342TIP3    H173517   5.528   4.733   2.603 -0.2554  1.0258  0.2013
17342TIP3    H273518   5.494   4.772   2.746 -0.4971 -1.6707  0.9402
17343TIP3   OH273519   6.730   5.561   4.710  0.2637 -0.1702  0.1340
17343TIP3    H173520   6.689   5.560   4.797 -0.7465 -0.3226 -0.3287
17343TIP3    H273521   6.761   5.651   4.699 -0.0606 -0.0179  0.4477
17344TIP3   OH273522   0.454   2.587   0.159 -0.5138 -1.0775  0.9803
17344TIP3    H173523   0.469   2.508   0.107 -0.1351 -0.5690  0.3061
17344TIP3    H273524   0.541   2.615   0.187  0.0576  1.8738 -2.9281
17345TIP3   OH273525   5.650   3.139   1.588 -0.9745 -0.3305  0.3099
17345TIP3    H173526   5.735   3.152   1.631 -0.9153 -0.7147  0.3095
17345TIP3    H273527   5.599   3.088   1.651 -0.8925 -0.8833 -0.0634
17346TIP3   OH273528   3.943   5.305   6.816 -0.1741  0.4445  0.1169
17346TIP3    H173529   4.015   5.267   6.866  0.4449  2.2286  0.6480
17346TIP3    H273530   3.937   5.251   6.737  1.0644 -0.3390  0.5366
17347TIP3   OH273531   6.335   3.219  12.145  0.8301 -0.6232  0.1848
17347TIP3    H173532   6.382   3.302  12.142 -1.0503  0.5913  1.6187
17347TIP3    H273533   6.267   3.227  12.078  0.3934 -0.8297  0.5933
17348TIP3   OH273534   6.747   0.636   4.002 -0.3832  0.2302 -0.3631
17348TIP3    H173535   6.800   0.557   3.996 -0.5631  0.0991 -0.2422
17348TIP3    H273536   6.810   0.708   4.002 -0.2779  0.2509 -3.0151
17349TIP3   OH273537   5.683   2.888   0.854  0.1952  0.3602 -0.6680
17349TIP3    H173538   5.657   2.816   0.796  0.0697 -1.2797  1.2896
17349TIP3    H273539   5.633   2.872   0.934  1.5219  1.6100  0.4468
17350TIP3   OH273540   1.296   1.291  16.199 -0.0517  0.3063  0.4143
17350TIP3    H173541   1.216   1.297  16.250 -0.6509 -0.4003 -0.4235
17350TIP3    H273542   1.305   1.198  16.177  0.9831  0.3742  0.4754
17351TIP3   OH273543   1.452   6.585   1.870  0.7297  0.4257  0.2753
17351TIP3    H173544   1.418   6.674   1.880 -2.0147 -0.4502 -0.4928
17351TIP3    H273545   1.398   6.532   1.928  1.5162 -0.9363 -0.1844
17352TIP3   OH273546   6.644   1.994  15.472 -0.3622  0.2076  0.1280
17352TIP3    H173547   6.597   2.035  15.545  1.4607 -1.4818  2.4085
17352TIP3    H273548   6.599   1.910  15.459 -0.9063  0.6504 -1.0193
17353TIP3   OH273549   3.377   0.295  12.076  0.1211  0.6459 -0.5433
17353TIP3    H173550   3.331   0.225  12.123  0.9538 -0.3870 -1.2241
17353TIP3    H273551   3.322   0.313  11.999  0.4626 -0.0593 -0.9600
17354TIP3   OH273552   4.627   0.548  17.241 -0.4080  0.3444 -0.3093
17354TIP3    H173553   4.546   0.538  17.291 -1.1385 -0.8705 -1.6369
17354TIP3    H273554   4.662   0.459  17.235  1.4204  0.9357  0.8061
17355TIP3   OH273555   1.742   3.675  12.113 -0.5670  0.6486  0.0904
17355TIP3    H173556   1.720   3.727  12.191 -1.7228  0.5618 -0.1716
17355TIP3    H273557   1.778   3.739  12.052 -1.5548  1.0783 -0.0560
17356TIP3   OH273558   6.458   3.527   0.885  0.0549 -0.1594  0.1964
17356TIP3    H173559   6.495   3.486   0.807  0.4180 -0.1994  0.3894
17356TIP3    H273560   6.394   3.589   0.851 -0.2896 -0.6758 -0.1089
17357TIP3   OH273561   3.963   6.294  15.323  0.4135 -0.3547  0.1454
17357TIP3    H173562   3.944   6.388  15.325  0.8338 -0.2757  0.7366
17357TIP3    H273563   4.056   6.289  15.305  0.6998 -0.5955  1.5407
17358TIP3   OH273564   3.898   3.937  14.989  0.3461  0.4158  0.0427
17358TIP3    H173565   3.897   3.912  15.081  0.5252 -0.3370 -0.1485
17358TIP3    H273566   3.834   3.879  14.948 -0.0160  1.0124 -0.2481
17359TIP3   OH273567   1.130   2.689  12.932 -0.1074  0.6890 -0.2689
17359TIP3    H173568   1.073   2.766  12.928  0.0185  0.8928  1.3273
17359TIP3    H273569   1.218   2.724  12.942 -0.1517  0.3862  1.6139
17360TIP3   OH273570   4.811   5.467   4.554 -0.2671 -0.1074  0.6048
17360TIP3    H173571   4.787   5.558   4.569  0.9349  0.0557  1.5958
17360TIP3    H273572   4.883   5.450   4.614 -1.5518 -2.2137  1.7058
17361TIP3   OH273573   6.656   2.772  13.702  0.0484  0.2888  0.1144
17361TIP3    H173574   6.729   2.732  13.749  0.7980  0.6236 -0.7199
17361TIP3    H273575   6.581   2.716  13.720  0.8772 -1.0123 -0.3473
17362TIP3   OH273576   4.720   6.478   5.169  0.0119  0.4566 -0.3514
17362TIP3    H173577   4.761   6.445   5.249 -0.9061  1.0505  0.3819
17362TIP3    H273578   4.738   6.572   5.170  0.8374  0.3332 -1.3684
17363TIP3   OH273579   2.116   5.950  17.105 -0.2050 -0.1975  0.1315
17363TIP3    H173580   2.141   6.009  17.176  1.6044  1.8581 -2.0507
17363TIP3    H273581   2.153   5.865  17.131 -0.7019  0.1603  2.1748
17364TIP3   OH273582   0.545   2.920  11.333 -0.3630  0.2855  0.2852
17364TIP3    H173583   0.454   2.923  11.303 -0.4140 -1.4427  0.1757
17364TIP3    H273584   0.583   3.002  11.300 -1.8182  0.9585  0.1843
17365TIP3   OH273585   0.003   5.152   5.930 -0.2085 -0.0877 -0.8226
17365TIP3    H173586  -0.080   5.144   5.978  0.4841  1.0602  0.6301
17365TIP3    H273587  -0.021   5.189   5.845 -1.1416  0.7164 -0.2232
17366TIP3   OH273588   1.224   4.393  16.917 -0.3189 -0.1545 -0.1660
17366TIP3    H173589   1.228   4.482  16.952 -0.3791 -0.7818  1.5254
17366TIP3    H273590   1.136   4.363  16.939  0.3202 -1.2731  0.9914
17367TIP3   OH273591   4.006   2.010  12.243 -0.1722  0.2179  0.0424
17367TIP3    H173592   3.928   1.973  12.285  1.3171 -1.0867  1.7771
17367TIP3    H273593   4.028   1.948  12.174 -0.3655  0.3123 -0.1046
17368TIP3   OH273594   4.715   0.250   5.366 -0.0070 -0.4456  0.2478
17368TIP3    H173595   4.663   0.300   5.429  1.1662  1.4154 -0.1906
17368TIP3    H273596   4.749   0.175   5.416 -0.5442  0.0185  1.3357
17369TIP3   OH273597   2.303   1.086   4.141 -0.3926 -0.5216 -0.1333
17369TIP3    H173598   2.395   1.108   4.158 -0.3234  1.0162 -2.0656
17369TIP3    H273599   2.263   1.080   4.227  1.3231 -0.2693  0.7222
17370TIP3   OH273600   2.675   2.811  16.204  0.0863  0.0497  0.3702
17370TIP3    H173601   2.662   2.841  16.295 -2.2064  0.3481  0.0081
17370TIP3    H273602   2.680   2.716  16.210  2.0187  0.1392  0.9699
17371TIP3   OH273603   1.003   1.213   2.952  0.6527  0.7967 -0.6108
17371TIP3    H173604   0.972   1.123   2.939 -0.5871  0.9416  0.9364
17371TIP3    H273605   1.072   1.205   3.018  0.5889  0.9711 -0.5235
17372TIP3   OH273606   4.975   2.708  13.697 -0.3519  0.7408  0.2152
17372TIP3    H173607   4.928   2.731  13.777  0.1361  1.9803  0.1605
17372TIP3    H273608   4.962   2.613  13.688 -1.1334  0.7325  1.2847
17373TIP3   OH273609   4.632   6.174   2.787  0.1422  0.0345  0.1785
17373TIP3    H173610   4.591   6.180   2.873  0.4834  0.6098  0.3013
17373TIP3    H273611   4.629   6.080   2.765 -0.0303 -0.0980  0.7717
17374TIP3   OH273612   1.575   1.426   4.727 -0.4355  0.6988 -0.6729
17374TIP3    H173613   1.516   1.402   4.656 -0.1011 -0.2651 -0.6392
17374TIP3    H273614   1.553   1.366   4.799  1.5619 -0.7185 -1.1674
17375TIP3   OH273615   2.703   1.751  11.799  0.1529 -0.2692  0.6753
17375TIP3    H173616   2.678   1.677  11.854 -2.4464 -0.3193 -0.4360
17375TIP3    H273617   2.749   1.811  11.858 -1.5889 -0.7725  2.6515
17376TIP3   OH273618   2.538   1.322  11.022 -0.2017 -0.2859  0.1335
17376TIP3    H173619   2.547   1.253  10.957 -1.8540 -0.9707  0.5867
17376TIP3    H273620   2.524   1.276  11.104  1.7287  0.5678  1.0028
17377TIP3   OH273621   3.458   0.254  15.138 -0.1250  0.3984 -0.2221
17377TIP3    H173622   3.372   0.289  15.160  0.8408  3.2618 -0.5374
17377TIP3    H273623   3.451   0.160  15.153 -2.7840  0.7662  1.4015
17378TIP3   OH273624   1.822   6.604  13.095  0.1415 -0.2494 -0.4719
17378TIP3    H173625   1.747   6.663  13.098 -0.6642 -1.2910  1.4023
17378TIP3    H273626   1.786   6.518  13.117  1.5191 -1.2085 -1.7936
17379TIP3   OH273627   6.087   0.139   1.610 -0.2120 -0.2232  0.6500
17379TIP3    H173628   6.062   0.207   1.672  2.0873 -0.6742  2.2195
17379TIP3    H273629   6.182   0.144   1.606 -0.1811 -1.3640 -1.5612
17380TIP3   OH273630   1.828   4.134  10.839 -0.6977  0.1653 -0.2755
17380TIP3    H173631   1.763   4.202  10.858 -0.1925  0.3644  0.8704
17380TIP3    H273632   1.874   4.122  10.922  0.8160  0.1189 -1.0891
17381TIP3   OH273633   0.944   4.115   3.990  0.0044  0.4457 -0.1071
17381TIP3    H173634   0.934   4.202   3.951  1.3266  1.3239  1.3821
17381TIP3    H273635   1.017   4.075   3.944  1.7298  1.5814  1.5140
17382TIP3   OH273636   6.758   2.751  16.312  0.2889 -0.1950  0.4744
17382TIP3    H173637   6.823   2.726  16.377  0.4056 -1.9910 -0.2558
17382TIP3    H273638   6.803   2.811  16.253  1.4702 -1.7016 -0.2387
17383TIP3   OH273639   3.038   1.949  17.269  0.6605 -0.3141 -0.4355
17383TIP3    H173640   3.023   1.954  17.363 -1.3029  0.6565 -0.7462
17383TIP3    H273641   2.956   1.981  17.230  0.5410 -2.8045 -2.5112
17384TIP3   OH273642   6.184   4.496   5.398  0.7107  0.0559  0.0150
17384TIP3    H173643   6.109   4.440   5.381  1.1357  0.0678 -2.2086
17384TIP3    H273644   6.150   4.585   5.387  0.3511  0.2479  2.2160
17385TIP3   OH273645   4.875   3.707   1.001  0.3363  0.2950  0.3787
17385TIP3    H173646   4.854   3.800   1.000 -0.3010  0.1574 -0.3017
17385TIP3    H273647   4.811   3.669   1.061 -0.4013  0.0904 -0.5177
17386TIP3   OH273648   1.214   0.179  12.000  0.3377  0.4401 -0.1107
17386TIP3    H173649   1.189   0.171  11.909  0.8274  2.2186 -0.4399
17386TIP3    H273650   1.307   0.204  11.998  0.3197  0.6587  0.8663
17387TIP3   OH273651   1.022   3.844  11.764  0.3714  0.0804  0.0698
17387TIP3    H173652   1.075   3.835  11.684  1.2696  0.3056  0.6203
17387TIP3    H273653   1.031   3.937  11.787  1.3017 -0.2751  1.2143
17388TIP3   OH273654   0.127   4.723   3.190 -0.1111 -0.1743 -0.1593
17388TIP3    H173655   0.187   4.752   3.122 -1.0570  2.2508 -0.0472
17388TIP3    H273656   0.040   4.737   3.154 -0.6245 -0.0765  1.0585
17389TIP3   OH273657   5.956   5.979   1.628 -0.3226  0.1035  0.3332
17389TIP3    H173658   5.892   5.933   1.682 -2.1874  0.5184 -1.4079
17389TIP3    H273659   5.928   6.070   1.629  0.9120  0.5048  0.4047
17390TIP3   OH273660   4.636   1.990  12.615  0.6168 -0.7746 -0.7542
17390TIP3    H173661   4.601   2.035  12.538 -2.3595 -1.8884 -0.1688
17390TIP3    H273662   4.702   1.930  12.579  1.7638  1.0974 -1.9646
17391TIP3   OH273663   4.951   2.484  11.855 -0.0757 -0.0034  0.1867
17391TIP3    H173664   4.953   2.548  11.785  0.4485  0.4942  0.6467
17391TIP3    H273665   5.018   2.513  11.917 -0.3430 -0.5758  0.7641
17392TIP3   OH273666   3.931   1.711   4.550 -0.6603  0.3382  0.1448
17392TIP3    H173667   3.895   1.639   4.498  1.5906  0.2160 -1.3978
17392TIP3    H273668   3.999   1.670   4.604 -0.8751  0.9728  0.9232
17393TIP3   OH273669   6.655   2.472   4.277  0.0131 -0.0257 -0.9862
17393TIP3    H173670   6.676   2.394   4.225  0.4263  1.2911 -2.9064
17393TIP3    H273671   6.601   2.526   4.219  1.6876  2.1791 -0.6153
17394TIP3   OH273672   6.562   0.145  12.127  0.1345  0.0015  0.1358
17394TIP3    H173673   6.637   0.170  12.073  0.7065  1.2464  1.4413
17394TIP3    H273674   6.546   0.054  12.105  1.6259 -0.1021 -0.6364
17395TIP3   OH273675   4.250   6.560   0.113  0.0500 -0.4264 -0.0631
17395TIP3    H173676   4.168   6.579   0.067 -1.0458 -0.7934  1.6141
17395TIP3    H273677   4.243   6.468   0.137  0.9534 -0.4591  0.1061
17396TIP3   OH273678   4.969   5.939  15.369  0.0845  0.2836 -0.4397
17396TIP3    H173679   5.046   5.996  15.372 -0.2948  0.7581  0.7154
17396TIP3    H273680   4.983   5.884  15.292  1.6698  0.2363 -0.1564
17397TIP3   OH273681   6.448   2.259   5.060  0.0600 -0.0030  0.3588
17397TIP3    H173682   6.480   2.287   4.974 -1.3736  0.6033 -0.0206
17397TIP3    H273683   6.526   2.241   5.111  0.9503 -0.1168 -0.9946
17398TIP3   OH273684   3.694   0.082   0.535 -0.0239  0.3184  0.3324
17398TIP3    H173685   3.630   0.022   0.496  1.7251  0.1334 -2.4960
17398TIP3    H273686   3.679   0.165   0.489  0.9836  0.5978  0.4944
17399TIP3   OH273687   1.022   4.210   0.512  0.4433  0.2227 -0.0402
17399TIP3    H173688   1.047   4.210   0.420  2.3594  0.3078  0.4403
17399TIP3    H273689   1.074   4.280   0.552 -2.5913  2.3309  0.6044
17400TIP3   OH273690   1.118   5.747  10.178  0.0297  0.0224 -0.0238
17400TIP3    H173691   1.067   5.776  10.102  1.8217  1.7115 -0.6450
17400TIP3    H273692   1.183   5.687  10.142  1.1226  1.1111  0.0840
17401TIP3   OH273693   6.693   1.951   3.445 -0.0056 -0.4623 -0.1089
17401TIP3    H173694   6.619   1.987   3.397  0.0318  0.0449  0.2067
17401TIP3    H273695   6.771   1.987   3.402  0.1599 -2.4477 -1.6276
17402TIP3   OH273696   1.198   6.481   4.604  0.1715  0.3189 -0.6702
17402TIP3    H173697   1.164   6.393   4.625  2.4445 -0.1624  1.4686
17402TIP3    H273698   1.222   6.476   4.512 -2.8053 -0.1609 -1.5261
17403TIP3   OH273699   3.308   1.368  16.657 -0.6372 -0.4724  0.9732
17403TIP3    H173700   3.250   1.441  16.637 -2.2607 -1.6872  0.9737
17403TIP3    H273701   3.362   1.357  16.579 -1.2765 -0.0832  0.4673
17404TIP3   OH273702   2.423   5.716  11.066 -0.5873  0.7351  0.2134
17404TIP3    H173703   2.475   5.693  11.143 -0.5961  1.9503  0.5988
17404TIP3    H273704   2.395   5.632  11.031 -1.3712  0.1636  2.0726
17405TIP3   OH273705   2.319   2.099  14.797 -0.4195  0.9960 -0.3419
17405TIP3    H173706   2.346   2.017  14.838 -0.1251  1.1915 -0.1478
17405TIP3    H273707   2.330   2.083  14.703  0.5911  1.1498 -0.2594
17406TIP3   OH273708   4.836   0.545   3.852 -0.1924 -0.2457  0.5226
17406TIP3    H173709   4.901   0.565   3.920  0.0275  0.6709  0.0525
17406TIP3    H273710   4.888   0.525   3.774 -0.4711 -0.0074  0.2765
17407TIP3   OH273711   1.542   0.614   5.560  0.0300 -1.0426 -0.3739
17407TIP3    H173712   1.584   0.529   5.578  0.2973 -0.7330  0.5147
17407TIP3    H273713   1.598   0.678   5.605  0.1755 -0.3225 -1.5488
17408TIP3   OH273714   6.001   1.097  13.350  0.3477 -0.2200 -0.5788
17408TIP3    H173715   5.947   1.045  13.290 -1.9963 -1.5379  2.3620
17408TIP3    H273716   5.999   1.047  13.432  2.8803  1.7290  0.8097
17409TIP3   OH273717   0.556   5.272  13.812 -1.0281 -0.0862  0.0035
17409TIP3    H173718   0.531   5.289  13.721  0.1610 -0.1586 -0.3431
17409TIP3    H273719   0.521   5.346  13.861 -3.4072 -0.9752 -0.1750
17410TIP3   OH273720   0.852   6.521  12.276  0.4358  0.6108  0.4606
17410TIP3    H173721   0.915   6.583  12.311  1.0140  0.4121 -0.2065
17410TIP3    H273722   0.794   6.574  12.221  0.1815  0.7506  0.8631
17411TIP3   OH273723   5.907   6.210  16.647  0.2887  0.2352  0.5215
17411TIP3    H173724   5.873   6.278  16.705  3.0619 -0.3931  3.1402
17411TIP3    H273725   5.979   6.251  16.600 -0.6297  0.1533 -1.0319
17412TIP3   OH273726   1.588   1.076  11.049  0.7911 -0.2463  0.3377
17412TIP3    H173727   1.586   1.058  10.956 -1.4201 -0.5749  0.3976
17412TIP3    H273728   1.497   1.069  11.077  1.3922 -0.1390  2.5229
17413TIP3   OH273729   6.206   2.258  14.046 -0.1510  0.2576 -0.2543
17413TIP3    H173730   6.192   2.323  14.114 -0.6683  0.0326 -0.1371
17413TIP3    H273731   6.217   2.175  14.093  2.1984  0.4801 -0.3009
17414TIP3   OH273732   6.156   4.056  11.381  0.2131  0.3394  0.3224
17414TIP3    H173733   6.174   3.963  11.370 -3.3273 -0.5194  0.6554
17414TIP3    H273734   6.173   4.094  11.295  1.7755 -0.5316  0.2026
17415TIP3   OH273735   6.155   5.107   5.478 -0.0508  0.2484  0.2290
17415TIP3    H173736   6.062   5.094   5.495  0.3969 -1.7409  1.6337
17415TIP3    H273737   6.191   5.138   5.561  0.4104  2.1562 -0.6223
17416TIP3   OH273738   0.796   5.127  14.567 -0.0989 -0.3550  0.2279
17416TIP3    H173739   0.701   5.119  14.565 -0.1137 -0.0260 -0.9841
17416TIP3    H273740   0.826   5.085  14.487  0.6995  0.4099  0.1028
17417TIP3   OH273741   0.974   1.284   1.353  0.7079 -0.0358  1.4151
17417TIP3    H173742   0.963   1.190   1.363  2.1141 -0.4610 -0.5103
17417TIP3    H273743   0.885   1.320   1.357 -0.1829 -1.7983 -0.7059
17418TIP3   OH273744   3.690   6.101  17.278 -0.1860  0.1235 -0.1446
17418TIP3    H173745   3.608   6.096  17.327 -0.5196  0.6145 -0.6355
17418TIP3    H273746   3.683   6.181  17.227  0.8752  0.5065  0.2708
17419TIP3   OH273747   4.968   4.713   5.644  0.2964  0.4065  0.1170
17419TIP3    H173748   4.933   4.626   5.665 -0.7924  0.5323 -1.0548
17419TIP3    H273749   4.951   4.765   5.722 -0.6885  0.0271  0.1721
17420TIP3   OH273750   3.374   3.988   2.158 -0.1039  0.4221 -0.3109
17420TIP3    H173751   3.418   3.976   2.243 -1.1616 -1.5277  0.0139
17420TIP3    H273752   3.364   3.899   2.124 -2.1352  0.9559 -1.2124
17421TIP3   OH273753   1.412   3.838   0.809  0.0990 -0.6814  0.2487
17421TIP3    H173754   1.319   3.837   0.831 -0.0034 -1.8177 -0.1873
17421TIP3    H273755   1.454   3.882   0.884 -0.7732 -0.1452  0.4377
17422TIP3   OH273756   2.029   3.135  13.999 -0.2093  0.1717  0.3904
17422TIP3    H173757   1.944   3.143  13.958 -0.6276 -1.5383  0.8020
17422TIP3    H273758   2.079   3.211  13.969 -1.4757  0.5637 -0.8076
17423TIP3   OH273759   2.341   3.413   4.468  0.2483 -0.0756 -0.2284
17423TIP3    H173760   2.268   3.428   4.407  0.6788 -1.0513 -1.0163
17423TIP3    H273761   2.318   3.464   4.545  0.1132  1.9396 -1.5255
17424TIP3   OH273762   3.052   2.568  15.419 -0.0649  0.4723 -0.7202
17424TIP3    H173763   3.037   2.555  15.512 -1.8085  0.2413 -1.0066
17424TIP3    H273764   3.146   2.586  15.412  0.3246 -0.7464  0.9198
17425TIP3   OH273765   3.173   3.150  13.234 -0.3266  0.5279 -0.4458
17425TIP3    H173766   3.163   3.155  13.139  1.5893  1.6391 -0.6469
17425TIP3    H273767   3.134   3.066  13.258 -1.2779  0.4461 -2.1360
17426TIP3   OH273768   4.416   2.932   6.375  0.1068 -0.1216 -0.4576
17426TIP3    H173769   4.433   2.961   6.285  0.7311 -1.0959 -0.6682
17426TIP3    H273770   4.359   2.855   6.364  1.0851 -0.9173 -0.0873
17427TIP3   OH273771   6.011   1.149  14.827  0.1344 -0.5188  0.1285
17427TIP3    H173772   5.929   1.192  14.851 -0.6062 -1.7533 -0.1100
17427TIP3    H273773   6.039   1.194  14.747  0.0041  0.2833  0.5184
17428TIP3   OH273774   1.007   2.100   3.294 -0.1367  0.3782 -0.3193
17428TIP3    H173775   0.993   2.106   3.199  1.0029 -1.9058 -0.7001
17428TIP3    H273776   1.099   2.077   3.303  0.0540  1.6563  1.4349
17429TIP3   OH273777   5.495   5.678  14.831  0.3130 -0.2377 -0.2127
17429TIP3    H173778   5.419   5.678  14.773  0.5772 -2.5698 -0.6510
17429TIP3    H273779   5.485   5.600  14.885  1.7629  0.0847  0.5977
17430TIP3   OH273780   4.689   2.209  14.374 -0.0773  0.2658  0.3834
17430TIP3    H173781   4.650   2.132  14.415  0.8587 -0.9938 -1.0019
17430TIP3    H273782   4.617   2.251  14.328 -0.4103 -0.3347  0.3501
17431TIP3   OH273783   6.486   2.156  11.051  0.1777  0.1632 -0.2699
17431TIP3    H173784   6.550   2.194  10.990  0.1300  1.1019  0.2400
17431TIP3    H273785   6.402   2.190  11.020  0.1525  0.6348  0.2989
17432TIP3   OH273786   0.953   1.712   3.039  0.1791 -0.5917  0.4312
17432TIP3    H173787   0.863   1.713   3.072 -0.2024  0.6998 -0.5347
17432TIP3    H273788   0.948   1.666   2.955 -0.0844  1.4711 -0.7609
17433TIP3   OH273789   5.144   5.235   3.525 -0.3764 -0.7037  0.1560
17433TIP3    H173790   5.183   5.178   3.591 -1.8593 -2.5756 -0.5052
17433TIP3    H273791   5.049   5.224   3.536 -0.7336  1.7394  0.0480
17434TIP3   OH273792   6.697   1.168  11.796  0.3957 -0.4000  0.6041
17434TIP3    H173793   6.679   1.075  11.789  0.1525 -0.4283  1.4776
17434TIP3    H273794   6.751   1.177  11.875  2.5661 -0.0800 -0.8412
17435TIP3   OH273795   3.518   2.481   5.486 -0.2534  0.2106  0.1669
17435TIP3    H173796   3.440   2.529   5.459  1.1037  2.9041  0.6738
17435TIP3    H273797   3.495   2.445   5.571 -1.4648 -0.4375 -0.4104
17436TIP3   OH273798   5.411   5.868   3.805 -0.0896 -0.0532 -0.4462
17436TIP3    H173799   5.506   5.856   3.812  0.1871  0.6730 -2.3727
17436TIP3    H273800   5.379   5.864   3.895  1.8590  0.3999  0.3051
17437TIP3   OH273801   6.602   6.153  13.227  0.6788 -0.7750 -0.2543
17437TIP3    H173802   6.525   6.165  13.171  0.6699 -0.9140 -0.2743
17437TIP3    H273803   6.584   6.071  13.273 -0.4001  0.4917  1.7269
17438TIP3   OH273804   2.355   4.153  12.388 -0.2920 -0.6264 -0.5321
17438TIP3    H173805   2.423   4.095  12.355  0.2484  0.8106 -2.0967
17438TIP3    H273806   2.350   4.223  12.323 -0.0968  1.7083  1.8094
17439TIP3   OH273807   6.194   2.531  11.554 -0.0222  0.5054 -0.4139
17439TIP3    H173808   6.274   2.584  11.555 -0.0597  0.5846 -1.2546
17439TIP3    H273809   6.124   2.594  11.537 -0.0775  0.2117 -1.3128
17440TIP3   OH273810   0.362   6.792   2.617 -0.0496  0.2256  0.4440
17440TIP3    H173811   0.385   6.757   2.703  0.6644  0.1163  0.2182
17440TIP3    H273812   0.443   6.783   2.565 -0.1224  1.3286  0.0995
17441TIP3   OH273813   1.741   2.017  15.373  0.4662 -0.4934 -0.8228
17441TIP3    H173814   1.687   2.084  15.414  1.9121 -1.2117  2.6068
17441TIP3    H273815   1.679   1.962  15.324 -1.6309 -0.1423  1.2735
17442TIP3   OH273816   0.148   1.260  16.736 -0.2686 -0.0246 -0.4212
17442TIP3    H173817   0.178   1.345  16.704 -0.8092  0.0569 -0.7146
17442TIP3    H273818   0.220   1.230  16.792 -0.8303  1.4635  1.2022
17443TIP3   OH273819   2.365   1.886  15.904  0.3693 -0.2167  0.5836
17443TIP3    H173820   2.314   1.842  15.836  1.5906 -1.7944  0.6267
17443TIP3    H273821   2.456   1.870  15.880  0.8636  1.4593  1.1867
17444TIP3   OH273822   3.397   6.536   1.860 -0.2553 -0.4387 -0.2823
17444TIP3    H173823   3.434   6.462   1.908 -1.3460 -0.7659  0.0857
17444TIP3    H273824   3.462   6.556   1.793  0.3900 -1.2514  0.0793
17445TIP3   OH273825   6.057   0.661   0.054 -0.2130  0.1171 -0.1280
17445TIP3    H173826   6.015   0.577   0.076  0.7701 -0.0781  1.1020
17445TIP3    H273827   6.051   0.666  -0.041 -2.8852  0.0522 -0.0409
17446TIP3   OH273828   0.868   6.450   1.505 -0.1283  0.1108  0.0400
17446TIP3    H173829   0.854   6.371   1.557 -1.2626 -0.5802 -1.2624
17446TIP3    H273830   0.939   6.428   1.445  0.1340  0.3821  0.2462
17447TIP3   OH273831   3.902   0.454  14.331  0.1486 -0.1773 -0.2216
17447TIP3    H173832   3.888   0.490  14.418  1.6442 -1.3306  0.5364
17447TIP3    H273833   3.863   0.519  14.272  2.1202  2.4430  1.1033
17448TIP3   OH273834   2.983   2.714  16.778 -0.3355 -0.0813 -0.0045
17448TIP3    H173835   2.898   2.754  16.761 -1.2841 -0.8849  2.3938
17448TIP3    H273836   3.007   2.746  16.865  1.2024 -0.9167 -0.0884
17449TIP3   OH273837   5.330   6.603  10.869  0.4412  0.4589 -0.2097
17449TIP3    H173838   5.346   6.522  10.820  0.4839  0.0309  0.5011
17449TIP3    H273839   5.415   6.647  10.869  0.3101  0.7296 -0.9873
17450TIP3   OH273840   5.555   3.930   2.527 -0.1364 -0.0748 -0.5509
17450TIP3    H173841   5.530   3.997   2.464 -0.9305 -0.6523 -0.8683
17450TIP3    H273842   5.648   3.945   2.543 -0.3324  1.1951 -0.4949
17451TIP3   OH273843   1.360   4.186  11.607  0.0238 -0.2868  0.1724
17451TIP3    H173844   1.442   4.189  11.657  0.1316 -3.6620  0.4443
17451TIP3    H273845   1.293   4.212  11.671  0.4698 -1.8255  1.3373
17452TIP3   OH273846   6.461   5.630  14.109  0.2155 -0.3354 -0.6585
17452TIP3    H173847   6.403   5.593  14.176 -0.7530 -0.0907 -1.3433
17452TIP3    H273848   6.534   5.568  14.104  0.1853 -0.4838  0.4387
17453TIP3   OH273849   0.488   4.937  11.282 -0.4291 -0.1560 -0.0045
17453TIP3    H173850   0.512   4.951  11.374  0.4544 -2.0844  0.0919
17453TIP3    H273851   0.467   5.025  11.250 -0.5067  0.6030  1.9573
17454TIP3   OH273852   2.133   4.219  14.416  0.6528  0.1964 -0.2453
17454TIP3    H173853   2.066   4.152  14.400 -0.7309  1.3173  0.5664
17454TIP3    H273854   2.214   4.170  14.431  0.2212 -1.1802 -2.0933
17455TIP3   OH273855   1.602   4.066   5.725  0.0237  0.1405  0.1387
17455TIP3    H173856   1.627   4.022   5.643 -0.2999  1.9446 -0.9923
17455TIP3    H273857   1.676   4.052   5.784  0.3989 -0.9421 -0.5546
17456TIP3   OH273858   5.895   3.714   3.639  0.7503 -0.4818 -0.4800
17456TIP3    H173859   5.856   3.750   3.559  2.2036  0.9261 -0.6249
17456TIP3    H273860   5.933   3.631   3.612 -0.8414 -1.1833 -0.6562
17457TIP3   OH273861   1.081   1.985   1.327 -0.2266  0.6912 -0.6359
17457TIP3    H173862   1.009   1.945   1.280 -1.2021 -1.3331  2.2674
17457TIP3    H273863   1.053   1.985   1.419  3.6478 -0.8922  0.7805
17458TIP3   OH273864   2.491   0.044   3.227  0.4028 -0.4305 -0.0053
17458TIP3    H173865   2.420   0.080   3.280 -0.0135  0.3565 -1.0601
17458TIP3    H273866   2.571   0.068   3.274 -0.0055 -1.5900  1.3594
17459TIP3   OH273867   4.199   4.773   4.846  0.3305 -0.0280 -0.2569
17459TIP3    H173868   4.275   4.827   4.869  0.4359  0.6904 -2.1403
17459TIP3    H273869   4.126   4.834   4.839 -0.0304 -0.4480 -0.2392
17460TIP3   OH273870   3.948   5.262   1.784 -0.8017  0.6693 -0.2714
17460TIP3    H173871   3.910   5.280   1.870  0.8282  1.4254  0.3489
17460TIP3    H273872   4.000   5.182   1.798  0.8261  1.7252 -0.0616
17461TIP3   OH273873   0.866   3.877   3.313 -0.2449 -0.6260  0.4910
17461TIP3    H173874   0.878   3.886   3.407 -0.3502  1.3978  0.3670
17461TIP3    H273875   0.771   3.876   3.300 -0.2460  0.1889  0.3595
17462TIP3   OH273876   1.706   3.724  11.282 -0.4513 -0.3256 -0.1632
17462TIP3    H173877   1.670   3.796  11.230 -1.0106 -1.6162 -1.6518
17462TIP3    H273878   1.792   3.708  11.242 -0.0619 -0.0969  0.5669
17463TIP3   OH273879   6.238   5.339  15.535 -0.2586  0.0369  0.1320
17463TIP3    H173880   6.233   5.430  15.506  0.0737 -0.2386 -0.8212
17463TIP3    H273881   6.149   5.318  15.563 -0.2723  0.7388  0.6493
17464TIP3   OH273882   3.686   6.587  11.393  0.4188  0.1668  0.1505
17464TIP3    H173883   3.629   6.518  11.426  0.6986  0.6606  1.7311
17464TIP3    H273884   3.665   6.664  11.446  0.6049  1.1306 -1.1029
17465TIP3   OH273885   4.817   5.670  11.149  0.0865  0.8838  0.5584
17465TIP3    H173886   4.769   5.705  11.224 -0.4509 -0.3970  0.8376
17465TIP3    H273887   4.766   5.595  11.120  1.4020  0.0536  0.2696
17466TIP3   OH273888   0.018   3.194   5.579 -0.3437 -0.1360 -0.7560
17466TIP3    H173889   0.012   3.151   5.494  1.4748 -0.3256 -0.8131
17466TIP3    H273890   0.075   3.269   5.564 -2.9275  2.0351 -0.5069
17467TIP3   OH273891   2.305   0.141   3.413  0.3813 -0.0279  0.4064
17467TIP3    H173892   2.224   0.191   3.409  1.5962  1.9813 -2.0903
17467TIP3    H273893   2.348   0.170   3.494 -0.1925  0.8926  0.3905
17468TIP3   OH273894   4.977   1.937  10.809 -0.7294 -0.2571  0.1476
17468TIP3    H173895   4.968   2.022  10.765 -0.1721 -0.3090 -0.0717
17468TIP3    H273896   4.901   1.933  10.867 -0.5449  0.5778  0.4695
17469TIP3   OH273897   5.414   4.937  16.173  0.3392 -0.0901 -0.0889
17469TIP3    H173898   5.481   4.902  16.232 -0.5045  0.0910  1.0108
17469TIP3    H273899   5.421   4.884  16.094  0.5620 -1.2762  0.7038
17470TIP3   OH273900   2.346   0.578  16.580 -0.7737 -0.1253 -0.0468
17470TIP3    H173901   2.264   0.554  16.623 -0.2800 -0.0352  0.9538
17470TIP3    H273902   2.352   0.518  16.506 -1.7906 -0.0605 -0.2006
17471TIP3   OH273903   1.405   3.759   1.347  0.3795 -0.7974  0.0785
17471TIP3    H173904   1.468   3.696   1.310  1.2003  0.6113 -1.0209
17471TIP3    H273905   1.453   3.842   1.349 -1.0202  0.0293  0.5133
17472TIP3   OH273906   2.661   3.243  14.865 -0.1548 -0.5964  0.3835
17472TIP3    H173907   2.639   3.274  14.953 -1.9958 -0.4053 -0.1151
17472TIP3    H273908   2.614   3.160  14.856  0.9316 -1.1956 -0.0388
17473TIP3   OH273909   5.447   2.428  14.621  0.7338 -0.3652  0.0417
17473TIP3    H173910   5.514   2.372  14.581 -0.5043 -0.6449 -1.7433
17473TIP3    H273911   5.382   2.366  14.655  0.4059 -0.0677 -0.0405
17474TIP3   OH273912   2.645   0.692   1.228  0.0833 -0.0746 -0.0978
17474TIP3    H173913   2.713   0.706   1.162 -1.3089  0.2788 -1.5205
17474TIP3    H273914   2.685   0.633   1.291  1.3894 -0.6494 -1.3951
17475TIP3   OH273915   1.412   1.006  14.937  0.2553 -0.1985  0.2776
17475TIP3    H173916   1.333   1.024  14.886 -0.5697 -0.7868  1.3157
17475TIP3    H273917   1.482   1.052  14.890 -0.5367 -0.4084 -1.1648
17476TIP3   OH273918   2.034   3.959  15.002  0.3765 -0.0099 -0.3739
17476TIP3    H173919   2.111   3.910  14.974  1.2168  0.5845  0.7928
17476TIP3    H273920   1.997   3.906  15.073 -1.0110 -0.8917 -1.7140
17477TIP3   OH273921   5.805   4.267  13.106  0.3231  0.0731  0.5955
17477TIP3    H173922   5.763   4.236  13.026 -1.0929 -0.6159  1.5612
17477TIP3    H273923   5.886   4.217  13.112  0.0221 -0.4936  0.0227
17478TIP3   OH273924   3.544   4.033  15.359  0.7075 -0.6870 -0.4502
17478TIP3    H173925   3.546   3.986  15.275  0.2209 -0.9269 -0.3341
17478TIP3    H273926   3.474   4.098  15.348  1.6508  0.3083 -0.7542
17479TIP3   OH273927   2.850   1.271  17.265  0.0988 -0.1851  0.5641
17479TIP3    H173928   2.836   1.212  17.339  0.8442 -0.0260  0.8419
17479TIP3    H273929   2.916   1.228  17.212 -0.0389 -0.0411  0.2735
17480TIP3   OH273930   5.638   4.170  10.193 -0.0433  0.1669  0.2997
17480TIP3    H173931   5.673   4.257  10.175  0.8742 -0.5182 -1.3685
17480TIP3    H273932   5.710   4.110  10.173 -0.9390 -1.0399  0.5675
17481TIP3   OH273933   4.682   4.874   6.439  0.5465  0.1415 -0.0432
17481TIP3    H173934   4.703   4.967   6.435  0.2615  0.1700 -1.2226
17481TIP3    H273935   4.610   4.862   6.377 -0.6206 -0.5731  1.3750
17482TIP3   OH273936   5.027   1.639   6.660 -0.8079  0.8085 -0.0871
17482TIP3    H173937   4.944   1.622   6.705  0.0668 -2.0731  0.5952
17482TIP3    H273938   5.001   1.679   6.577 -2.9290 -0.3487 -0.0427
17483TIP3   OH273939   5.007   3.856   1.484 -0.0744  0.6015  0.0011
17483TIP3    H173940   4.935   3.916   1.504  1.0755  1.8236  0.6247
17483TIP3    H273941   5.015   3.859   1.389 -0.5859  0.7695 -0.0397
17484TIP3   OH273942   6.100   1.648  13.916 -0.5396 -0.0606 -0.2615
17484TIP3    H173943   6.137   1.713  13.975 -0.4559  0.8377 -1.2765
17484TIP3    H273944   6.141   1.566  13.942  1.0530  0.6608 -0.3990
17485TIP3   OH273945   0.240   6.709  11.959  0.3607 -0.3350 -0.6716
17485TIP3    H173946   0.251   6.651  11.884  1.0428 -0.3727 -0.5455
17485TIP3    H273947   0.157   6.754  11.943  1.0780  0.5726 -2.0624
17486TIP3   OH273948   1.858   5.739   1.130 -0.5156  0.0265  0.2894
17486TIP3    H173949   1.892   5.700   1.210  0.7526  0.6591  0.0956
17486TIP3    H273950   1.855   5.667   1.067 -0.4825 -0.2426  0.5927
17487TIP3   OH273951   3.841   6.716  13.901  0.0720  0.1413 -0.1733
17487TIP3    H173952   3.768   6.722  13.963  0.4498 -1.7105  0.5126
17487TIP3    H273953   3.919   6.733  13.954  0.3034 -0.1636 -0.4141
17488TIP3   OH273954   0.396   2.543   6.613 -0.4803 -0.3127 -0.1175
17488TIP3    H173955   0.384   2.519   6.521  0.8494 -1.5119 -0.0252
17488TIP3    H273956   0.445   2.625   6.610 -1.7622  0.4696 -0.4528
17489TIP3   OH273957   1.288   0.286  15.986 -0.5050 -0.7064  0.3751
17489TIP3    H173958   1.210   0.238  16.012 -1.0308  0.1704  0.4448
17489TIP3    H273959   1.260   0.345  15.917  0.8462 -2.8541 -2.1836
17490TIP3   OH273960   4.138   1.929   5.204 -0.0722  0.1388 -0.2838
17490TIP3    H173961   4.068   1.993   5.215  0.4476  0.8782 -1.1243
17490TIP3    H273962   4.171   1.914   5.292  0.4835  1.8324 -0.1758
17491TIP3   OH273963   5.854   4.633   3.572 -0.0647 -0.2438  0.1965
17491TIP3    H173964   5.877   4.725   3.556  0.9612 -0.3163  1.0909
17491TIP3    H273965   5.813   4.604   3.491 -2.5803  1.6625  0.6793
17492TIP3   OH273966   1.297   5.010   6.591 -0.2325  0.3204  0.1702
17492TIP3    H173967   1.386   5.039   6.568 -0.1178  0.3934  0.6983
17492TIP3    H273968   1.301   4.915   6.582  1.2341 -0.2322  4.4675
17493TIP3   OH273969   6.530   3.239  13.577  0.3505 -0.7023  0.2937
17493TIP3    H173970   6.562   3.156  13.541 -0.3552 -0.1853 -1.6417
17493TIP3    H273971   6.564   3.305  13.517  0.9035  0.4389  1.8152
17494TIP3   OH273972   5.498   5.339   1.418 -0.3387  0.2060 -0.1907
17494TIP3    H173973   5.502   5.385   1.335 -0.9081 -1.6758 -1.3200
17494TIP3    H273974   5.571   5.277   1.415  0.0817  0.6151  1.0362
17495TIP3   OH273975   2.499   3.802  16.620 -0.3509  0.0662  0.1178
17495TIP3    H173976   2.548   3.727  16.654 -0.4609 -0.5009 -0.9196
17495TIP3    H273977   2.557   3.841  16.554 -0.7029  0.2783 -0.0694
17496TIP3   OH273978   3.067   4.484  15.690  0.3684 -0.0401 -0.2710
17496TIP3    H173979   3.107   4.527  15.766  0.0562 -0.1941 -0.0147
17496TIP3    H273980   2.988   4.536  15.673 -1.8692 -2.3802  2.1260
17497TIP3   OH273981   1.687   4.003   3.000 -0.0359  0.6954  0.2845
17497TIP3    H173982   1.639   4.074   3.043  0.7752  2.2403 -1.2238
17497TIP3    H273983   1.768   3.996   3.050 -1.3044 -1.2545  2.2369
17498TIP3   OH273984   4.082   3.843   5.399  0.6080 -0.2920 -0.1069
17498TIP3    H173985   4.107   3.909   5.335  0.4968 -0.8484 -0.7314
17498TIP3    H273986   4.129   3.764   5.373 -0.7390 -0.9875 -0.5159
17499TIP3   OH273987   5.394   1.919   1.356  0.0988  0.1077 -0.2006
17499TIP3    H173988   5.458   1.986   1.381  0.7350 -0.7335  0.5197
17499TIP3    H273989   5.436   1.871   1.284  0.6218 -0.8876  0.7283
17500TIP3   OH273990   1.201   4.594  14.476  0.3761 -0.0205 -0.3927
17500TIP3    H173991   1.260   4.667  14.497 -1.3872  0.9068  1.7076
17500TIP3    H273992   1.147   4.626  14.404  0.4998  0.2477 -0.3664
17501TIP3   OH273993   1.945   6.649   6.237  0.1548  0.0459  0.4632
17501TIP3    H173994   1.852   6.671   6.236 -0.2897 -1.7376 -0.8786
17501TIP3    H273995   1.983   6.710   6.301 -2.0475  0.2538  1.6650
17502TIP3   OH273996   5.130   4.905   2.107  0.5085 -0.5020 -0.1647
17502TIP3    H173997   5.161   4.816   2.124 -2.2043 -1.1750  2.1273
17502TIP3    H273998   5.037   4.894   2.086  0.1563  1.7835 -0.0688
17503TIP3   OH273999   6.151   5.347  13.385  0.5222  0.4622 -0.3882
17503TIP3    H174000   6.213   5.327  13.315 -0.8426 -0.5272 -1.3493
17503TIP3    H274001   6.191   5.310  13.463  1.3843  0.3006 -0.8907
17504TIP3   OH274002   2.290   1.160   0.370 -0.0931 -0.0888  0.7617
17504TIP3    H174003   2.204   1.173   0.329  0.5722  1.6048 -0.1695
17504TIP3    H274004   2.349   1.142   0.298  0.5691  0.0166  1.2646
17505TIP3   OH274005   3.241   2.116   1.510  0.5122  0.4200 -0.1737
17505TIP3    H174006   3.184   2.072   1.447  3.0930 -1.5595 -1.3268
17505TIP3    H274007   3.210   2.087   1.595 -1.5860  1.2810 -0.5791
17506TIP3   OH274008   3.299   3.732   3.737 -0.4791  0.3115  0.4311
17506TIP3    H174009   3.336   3.791   3.803 -1.7790  1.4791  0.1425
17506TIP3    H274010   3.325   3.771   3.653 -0.0856 -0.3653  0.2270
17507TIP3   OH274011   2.712   1.485   1.579 -0.6261  0.0922  0.0420
17507TIP3    H174012   2.751   1.570   1.599  1.2855 -0.8612  0.5582
17507TIP3    H274013   2.645   1.473   1.646 -0.2011  0.7480  0.5974
17508TIP3   OH274014   3.452   6.283  15.535  0.2727  0.0836  0.1368
17508TIP3    H174015   3.516   6.328  15.479 -0.1957 -0.0377 -0.5118
17508TIP3    H274016   3.504   6.248  15.608  0.4740  2.8164  1.4157
17509TIP3   OH274017   4.389   0.910   1.379  0.5252  0.5022 -0.0633
17509TIP3    H174018   4.383   0.896   1.284  0.7063  0.4017 -0.0601
17509TIP3    H274019   4.421   1.000   1.387  0.9909  0.3410 -0.1043
17510TIP3   OH274020   2.171   3.093   4.039  0.4580 -0.6159  0.7089
17510TIP3    H174021   2.176   3.005   4.078  0.9647 -1.2960 -0.7988
17510TIP3    H274022   2.097   3.135   4.083 -0.3203 -2.1020  0.8804
17511TIP3   OH274023   5.627   2.989  11.719  0.3362 -0.7814 -0.1781
17511TIP3    H174024   5.632   2.948  11.632 -0.4286  1.2956 -1.2731
17511TIP3    H274025   5.713   3.029  11.732 -0.3697  1.2440 -1.2793
17512TIP3   OH274026   4.256   1.809   3.583 -0.2722 -0.0461 -0.2633
17512TIP3    H174027   4.297   1.846   3.504  2.6372  0.5602  1.3851
17512TIP3    H274028   4.301   1.725   3.595  0.9251  0.8217  1.8488
17513TIP3   OH274029   1.179   6.696  13.137 -0.4061 -0.3076  0.0997
17513TIP3    H174030   1.126   6.715  13.059 -1.8771  1.5226  1.4559
17513TIP3    H274031   1.164   6.603  13.154 -2.8693  0.0312  0.1439
17514TIP3   OH274032   6.296   1.425   4.829  0.0482 -0.3482 -0.2408
17514TIP3    H174033   6.337   1.382   4.754  0.0615  0.8521 -0.9479
17514TIP3    H274034   6.342   1.508   4.838  0.6956 -0.8574  1.7262
17515TIP3   OH274035   1.806   0.186   1.545  0.5323 -0.4485 -0.7944
17515TIP3    H174036   1.752   0.157   1.471  0.2922 -1.1765 -0.3549
17515TIP3    H274037   1.845   0.105   1.579 -1.0877 -0.4949  1.2107
17516TIP3   OH274038   4.616   1.554  14.694 -0.2475  0.2426  0.2010
17516TIP3    H174039   4.679   1.575  14.624 -0.8842 -1.8058 -1.1146
17516TIP3    H274040   4.580   1.638  14.720 -0.9691  1.0656 -2.9509
17517TIP3   OH274041   1.548   2.129   6.036  0.1114 -0.0063 -0.0885
17517TIP3    H174042   1.630   2.093   6.068  1.0846  0.3842 -2.0295
17517TIP3    H274043   1.499   2.053   6.004  0.8840  0.0406 -1.4167
17518TIP3   OH274044   5.287   4.359  17.291 -0.2043  0.4600  0.1515
17518TIP3    H174045   5.248   4.296  17.230  0.3093  0.5413 -0.2646
17518TIP3    H274046   5.212   4.407  17.326 -0.6051 -0.4048  0.5034
17519TIP3   OH274047   0.115   2.489  15.603 -0.2209  0.1869 -0.5096
17519TIP3    H174048   0.172   2.522  15.672 -0.0957 -0.6262 -0.2029
17519TIP3    H274049   0.173   2.468  15.531 -0.0711 -0.8683 -0.1102
17520TIP3   OH274050   3.233   0.534  17.238  0.4672 -0.0547 -0.0202
17520TIP3    H174051   3.268   0.445  17.238  0.3775 -0.1314  1.5564
17520TIP3    H274052   3.172   0.535  17.312 -0.2223  1.0654 -0.5752
17521TIP3   OH274053   1.415   5.107  13.350 -0.7415 -0.3600  0.3080
17521TIP3    H174054   1.399   5.038  13.286 -1.3025  0.4865 -0.4809
17521TIP3    H274055   1.391   5.188  13.305 -1.5680  0.2144  1.7335
17522TIP3   OH274056   0.258   2.013   0.389 -0.0982  0.3302  0.1668
17522TIP3    H174057   0.268   1.972   0.302 -2.0040  0.7626 -0.3102
17522TIP3    H274058   0.192   2.082   0.375 -1.5160 -0.5120  2.2202
17523TIP3   OH274059   0.952   4.407  14.456  0.2111 -0.0646 -0.7168
17523TIP3    H174060   1.045   4.419  14.476 -0.1739  1.8224  0.0880
17523TIP3    H274061   0.917   4.365  14.535  0.5651 -2.0401 -1.5284
17524TIP3   OH274062   3.174   2.403  11.071 -0.5656  0.2671  0.2729
17524TIP3    H174063   3.245   2.434  11.015  1.3242  1.6722  3.1991
17524TIP3    H274064   3.118   2.352  11.013  2.6996 -0.7570 -2.3107
17525TIP3   OH274065   3.223   0.827   0.814 -0.1908 -1.0195  0.1023
17525TIP3    H174066   3.211   0.796   0.904 -2.1164  2.7436  1.4040
17525TIP3    H274067   3.307   0.874   0.817 -0.1306 -1.1122 -0.1533
17526TIP3   OH274068   6.086   6.514   4.151 -0.2534  0.2524 -0.0297
17526TIP3    H174069   6.092   6.515   4.247  1.0163 -2.3048  0.0197
17526TIP3    H274070   6.095   6.605   4.125  1.3096  0.8353  2.2157
17527TIP3   OH274071   4.457   2.310  12.762 -0.2794  0.3522 -0.1581
17527TIP3    H174072   4.517   2.385  12.751  1.0845 -0.3122  2.0897
17527TIP3    H274073   4.382   2.346  12.809 -0.5649  0.6713 -0.8282
17528TIP3   OH274074   3.444   1.470   3.480  0.5261  0.6557 -0.1099
17528TIP3    H174075   3.358   1.435   3.460  0.7525  0.0101  0.0221
17528TIP3    H274076   3.482   1.407   3.541  1.0844  0.9413 -0.1552
17529TIP3   OH274077   2.806   2.579   6.104  0.2179 -0.0331  0.3321
17529TIP3    H174078   2.897   2.597   6.126 -0.3409  2.4934  0.9297
17529TIP3    H274079   2.756   2.618   6.176 -1.3772  0.1816 -0.8372
17530TIP3   OH274080   4.581   4.095   5.524  0.1919  0.0988 -0.4722
17530TIP3    H174081   4.655   4.147   5.556 -0.0920 -0.2171  0.7413
17530TIP3    H274082   4.512   4.110   5.588  0.2264 -2.0744  0.1712
17531TIP3   OH274083   5.485   4.307   4.768 -0.3915  0.3289 -0.2464
17531TIP3    H174084   5.438   4.362   4.831  0.1001  2.9892 -2.0142
17531TIP3    H274085   5.578   4.319   4.791 -0.3182 -1.5720  0.6523
17532TIP3   OH274086   6.000   5.634   1.771  0.0135  0.2831 -0.0515
17532TIP3    H174087   6.009   5.545   1.805  1.6358  0.2650 -0.4206
17532TIP3    H274088   5.950   5.681   1.838  1.4955 -0.2222  1.4694
17533TIP3   OH274089   0.520   3.840  13.259  0.4825 -0.1079 -0.1653
17533TIP3    H174090   0.430   3.807  13.267  0.4991 -0.0281  0.4235
17533TIP3    H274091   0.536   3.845  13.165 -0.3735  0.5430 -0.2856
17534TIP3   OH274092   1.891   5.751  11.594  0.7205  0.1369  0.4998
17534TIP3    H174093   1.876   5.780  11.504 -0.7454 -0.8905  0.3800
17534TIP3    H274094   1.980   5.779  11.613  0.0087  3.2608 -0.1441
17535TIP3   OH274095   3.348   3.749  15.343  0.1035 -0.0846 -0.1654
17535TIP3    H174096   3.331   3.818  15.279 -1.8956 -0.4723 -0.1243
17535TIP3    H274097   3.296   3.674  15.312  0.4975 -0.8544  0.9618
17536TIP3   OH274098   4.743   4.849   3.592  0.4677 -0.4681  0.0560
17536TIP3    H174099   4.721   4.911   3.522 -1.2485 -0.9473  0.1321
17536TIP3    H274100   4.768   4.904   3.666  1.7980  0.0536 -0.7524
17537TIP3   OH274101   1.165   2.122   2.630  0.5968  0.0373  0.5217
17537TIP3    H174102   1.071   2.122   2.610  0.8834  1.2174 -0.9785
17537TIP3    H274103   1.170   2.150   2.721 -0.4628  1.4906  0.1682
17538TIP3   OH274104   6.349   0.741  13.731 -0.0669  0.3286 -0.3489
17538TIP3    H174105   6.418   0.690  13.689  0.1522  0.8512 -0.6384
17538TIP3    H274106   6.338   0.818  13.675  0.5563  1.2712  0.7555
17539TIP3   OH274107   5.193   5.022  16.276 -0.6876  0.1882  0.2749
17539TIP3    H174108   5.278   4.996  16.240 -1.0491  0.0588 -0.5178
17539TIP3    H274109   5.174   5.106  16.234  0.7485  2.1911  3.2508
17540TIP3   OH274110   0.660   1.717   6.261  0.7385 -0.0475 -0.7044
17540TIP3    H174111   0.696   1.751   6.343 -0.0360 -0.1184 -0.3290
17540TIP3    H274112   0.643   1.624   6.279 -1.8430  0.4800 -0.0780
17541TIP3   OH274113   0.801   2.344   3.345 -0.7346 -0.0539  0.3144
17541TIP3    H174114   0.889   2.314   3.368 -0.8894 -0.5554  0.2473
17541TIP3    H274115   0.777   2.402   3.418 -1.1005 -1.4041  1.2917
17542TIP3   OH274116   6.211   1.333   1.379 -0.0903 -0.2812 -0.0848
17542TIP3    H174117   6.118   1.313   1.393 -0.1126  0.4564  0.9426
17542TIP3    H274118   6.223   1.323   1.285 -1.0544 -1.0236 -0.1553
17543TIP3   OH274119   3.427   6.774  12.593  0.4582 -1.0003 -0.1929
17543TIP3    H174120   3.423   6.865  12.564 -1.3963 -1.1794 -0.6832
17543TIP3    H274121   3.460   6.778  12.682  2.5184 -0.0690 -0.9547
17544TIP3   OH274122   5.966   3.946  14.990  0.3369  0.0842 -0.2346
17544TIP3    H174123   6.032   3.901  14.937  0.9010  0.4591  0.1422
17544TIP3    H274124   5.905   3.983  14.926 -0.9260 -2.3171 -0.5553
17545TIP3   OH274125   1.741   4.354   4.975 -0.2075 -0.4267 -0.0866
17545TIP3    H174126   1.753   4.428   5.034  0.4719 -0.3674 -0.2865
17545TIP3    H274127   1.793   4.283   5.015 -0.0114 -0.4822 -0.4329
17546TIP3   OH274128   3.951   4.899   4.395 -0.0073  0.0940  0.3868
17546TIP3    H174129   4.022   4.959   4.420  0.9403 -0.8326 -0.0112
17546TIP3    H274130   3.958   4.827   4.458  0.4878 -0.8125 -0.6841
17547TIP3   OH274131   3.938   5.566   3.388  0.1327 -0.3901  0.1625
17547TIP3    H174132   4.005   5.500   3.409  0.5837  0.4191  1.3560
17547TIP3    H274133   3.873   5.517   3.337  0.8138 -1.5886  0.3845
17548TIP3   OH274134   6.353   3.115  15.382  0.3706 -0.3140 -0.2128
17548TIP3    H174135   6.264   3.084  15.365  0.4798 -0.8625  0.1782
17548TIP3    H274136   6.393   3.122  15.295 -0.1594  0.2779 -0.4170
17549TIP3   OH274137   3.351   6.801   1.901  0.1446  0.0050 -0.9476
17549TIP3    H174138   3.376   6.841   1.818 -1.1122 -0.2127 -1.4484
17549TIP3    H274139   3.370   6.708   1.889  1.2564  0.1517 -0.4736
17550TIP3   OH274140   4.181   4.259  14.563  0.1703 -0.3056 -0.4178
17550TIP3    H174141   4.137   4.174  14.570  0.4591 -0.4248 -0.0293
17550TIP3    H274142   4.161   4.303  14.646 -0.2526  0.1397 -0.7502
17551TIP3   OH274143   6.283   4.620   3.431 -1.1387 -0.3793 -0.0278
17551TIP3    H174144   6.362   4.569   3.451 -1.6564 -1.4080 -0.5473
17551TIP3    H274145   6.212   4.571   3.472 -1.5775  0.2568 -0.0183
17552TIP3   OH274146   6.657   4.748  15.403 -0.7846 -0.3056 -0.2582
17552TIP3    H174147   6.613   4.751  15.488 -1.9169 -0.5600 -0.8129
17552TIP3    H274148   6.703   4.664  15.404 -1.9912 -1.0008 -0.4385
17553TIP3   OH274149   1.548   0.915   4.287  0.2220  0.3543  0.1236
17553TIP3    H174150   1.456   0.893   4.276  0.2055  1.3402 -2.1071
17553TIP3    H274151   1.553   0.949   4.377 -1.3459 -0.7247  0.6658
17554TIP3   OH274152   0.197   2.077   1.102  0.2458  0.1933  0.0293
17554TIP3    H174153   0.207   2.036   1.187 -0.2343 -1.8591 -0.8443
17554TIP3    H274154   0.224   2.168   1.116  0.5753 -0.1858  2.2434
17555TIP3   OH274155   2.757   5.906   5.595 -0.5167  0.0325 -0.8945
17555TIP3    H174156   2.687   5.899   5.660  0.7485 -1.3962  0.4007
17555TIP3    H274157   2.714   5.944   5.518 -2.8809 -1.3891 -0.3905
17556TIP3   OH274158   2.847   5.945   5.243 -1.0047  0.1775 -0.3206
17556TIP3    H174159   2.788   6.003   5.292  1.0059  0.3794  1.9912
17556TIP3    H274160   2.792   5.910   5.173 -3.7202  0.7925  1.3563
17557TIP3   OH274161   6.493   1.092   3.355 -0.1464  0.0390 -0.0534
17557TIP3    H174162   6.519   1.001   3.373  4.1124  1.0709  0.2427
17557TIP3    H274163   6.452   1.121   3.437 -1.4727 -1.5276 -0.1086
17558TIP3   OH274164   0.398   0.484   2.588 -0.5072 -0.0393  0.1637
17558TIP3    H174165   0.366   0.394   2.586  0.7647 -0.5763  1.6039
17558TIP3    H274166   0.332   0.535   2.541 -1.5311 -1.6326 -0.1872
17559TIP3   OH274167   6.363   1.343   0.059  0.2685 -0.3039 -0.1296
17559TIP3    H174168   6.313   1.371  -0.017 -1.6514  0.7177  1.4025
17559TIP3    H274169   6.400   1.423   0.095 -0.8410 -0.3870  1.3052
17560TIP3   OH274170   1.414   1.989  16.744  0.7326  0.3611 -0.1558
17560TIP3    H174171   1.440   1.916  16.801  1.1752  0.1820 -0.5847
17560TIP3    H274172   1.472   2.061  16.769 -0.1061  0.7616  0.6870
17561TIP3   OH274173   3.795   4.483   0.197 -0.5028  0.3543  0.0857
17561TIP3    H174174   3.743   4.420   0.247 -1.2279  0.2231 -0.8037
17561TIP3    H274175   3.733   4.520   0.134  0.5596 -0.0422 -1.2310
17562TIP3   OH274176   2.872   5.759   6.903 -0.3146  0.3132  0.3125
17562TIP3    H174177   2.779   5.777   6.894 -1.1320 -3.4418 -0.6551
17562TIP3    H274178   2.915   5.830   6.855 -2.6874  1.7585  0.1758
17563TIP3   OH274179   2.516   5.597  16.715  0.3572 -0.7848  0.1423
17563TIP3    H174180   2.508   5.527  16.779  2.6688  1.4325  3.1231
17563TIP3    H274181   2.465   5.669  16.751 -0.4068 -0.2245 -1.8838
17564TIP3   OH274182   0.148   3.134   1.292  0.3158  0.0861  0.3017
17564TIP3    H174183   0.082   3.081   1.337  1.5054 -0.3399  1.6309
17564TIP3    H274184   0.220   3.142   1.355  0.5872  2.5182 -0.2055
17565TIP3   OH274185   6.305   1.279   5.885 -0.6883 -0.2225  0.3235
17565TIP3    H174186   6.257   1.200   5.909  0.9043 -1.3982 -0.2093
17565TIP3    H274187   6.344   1.258   5.800 -0.6021  1.3111 -0.0368
17566TIP3   OH274188   4.113   5.868   2.190 -0.2583  0.6362 -0.0886
17566TIP3    H174189   4.095   5.792   2.135  1.3407  0.1132  0.0678
17566TIP3    H274190   4.207   5.882   2.183 -0.2728  1.6004  1.1696
17567TIP3   OH274191   1.699   2.652   3.917 -0.4855 -0.1027 -0.4771
17567TIP3    H174192   1.730   2.575   3.869  0.0264  0.1638 -0.5737
17567TIP3    H274193   1.749   2.652   3.998 -1.6732 -0.8121  0.2967
17568TIP3   OH274194   6.794   4.133  11.838 -0.1924  0.3272  0.3508
17568TIP3    H174195   6.879   4.099  11.867 -0.4523 -0.1048  0.6275
17568TIP3    H274196   6.813   4.220  11.804  0.3802  0.1868  0.2992
17569TIP3   OH274197   6.294   4.145   1.673 -0.2867 -0.3597  0.3260
17569TIP3    H174198   6.298   4.241   1.674 -1.0347 -0.3007 -0.6646
17569TIP3    H274199   6.208   4.125   1.709 -0.2705 -0.6458  0.2054
17570TIP3   OH274200   2.450   1.422   3.064  0.1750  0.3140  0.9881
17570TIP3    H174201   2.478   1.455   3.149 -0.7487 -0.2848  1.5362
17570TIP3    H274202   2.362   1.389   3.078  1.0351 -2.4714  0.5146
17571TIP3   OH274203   2.046   3.787  15.341 -0.0681 -0.0212 -0.4054
17571TIP3    H174204   2.038   3.843  15.418  1.8017 -0.0287 -0.1514
17571TIP3    H274205   2.022   3.700  15.372 -0.8341  0.2443 -0.2373
17572TIP3   OH274206   4.333   3.594  14.591  0.2797  0.0535 -0.1171
17572TIP3    H174207   4.247   3.630  14.614 -0.9242 -1.6822 -1.6031
17572TIP3    H274208   4.341   3.607  14.497 -0.3149 -3.4404 -0.8068
17573TIP3   OH274209   2.259   3.960   1.657 -0.1057  0.4405  0.3297
17573TIP3    H174210   2.168   3.992   1.658 -1.0634 -2.0064 -0.4933
17573TIP3    H274211   2.251   3.867   1.637  2.6848  0.3695 -0.8659
17574TIP3   OH274212   3.506   0.109   0.162 -0.1968 -0.3503 -0.2617
17574TIP3    H174213   3.588   0.150   0.190 -0.0878  1.2631 -2.5916
17574TIP3    H274214   3.529   0.061   0.082 -1.1171 -1.7723  0.2936
17575TIP3   OH274215   2.561   0.336   1.886  0.4144 -0.0210 -0.3869
17575TIP3    H174216   2.558   0.274   1.959 -0.7062  0.2685 -0.1601
17575TIP3    H274217   2.503   0.407   1.913  1.2072  0.8458 -0.9007
17576TIP3   OH274218   2.272   5.468  12.269 -0.4271 -0.3155 -0.0899
17576TIP3    H174219   2.340   5.532  12.291  0.1387 -0.5477 -1.1254
17576TIP3    H274220   2.276   5.459  12.174 -1.3731 -0.9364 -0.0933
17577TIP3   OH274221   5.518   1.634   2.245 -0.0123  0.8795 -0.4955
17577TIP3    H174222   5.484   1.596   2.165  1.0792  0.1340 -0.6308
17577TIP3    H274223   5.526   1.560   2.306  1.2422  1.0259 -0.4470
17578TIP3   OH274224   6.530   3.053  14.834 -0.4862  0.4785  0.2651
17578TIP3    H174225   6.474   3.039  14.758 -0.3121  1.8268 -0.1424
17578TIP3    H274226   6.619   3.039  14.802 -0.4404  0.6293  0.3246
17579TIP3   OH274227   6.521   3.898  17.263 -0.2055 -0.2380 -0.4046
17579TIP3    H174228   6.549   3.982  17.227 -0.6973 -0.1928 -0.6841
17579TIP3    H274229   6.595   3.839  17.245  0.7876  0.4696  1.1189
17580TIP3   OH274230   0.637   0.542  16.868 -0.6459  0.1564 -0.1585
17580TIP3    H174231   0.551   0.512  16.839 -0.2316 -2.1170  0.7615
17580TIP3    H274232   0.690   0.543  16.788 -0.5442 -2.2746 -0.2049
17581TIP3   OH274233   3.028   3.927   6.244 -0.1043  0.1428  0.0820
17581TIP3    H174234   3.056   3.941   6.154 -3.8425  3.7673 -0.8562
17581TIP3    H274235   2.936   3.903   6.237 -0.2376 -0.5571  2.9694
17582TIP3   OH274236   1.971   3.548  14.403 -0.5749 -0.2248 -0.4045
17582TIP3    H174237   1.921   3.537  14.484  1.8416 -0.8552  1.1459
17582TIP3    H274238   2.016   3.464  14.392  1.2172  0.7403 -0.8592
17583TIP3   OH274239   5.773   0.373   2.641  0.1758 -0.5752  0.3208
17583TIP3    H174240   5.707   0.306   2.624 -1.0795  1.0220 -1.4505
17583TIP3    H274241   5.844   0.354   2.580 -1.4310  1.2506 -2.3223
17584TIP3   OH274242   3.810   5.795   0.605  0.0008 -0.4516 -0.4192
17584TIP3    H174243   3.734   5.784   0.662 -0.0139 -0.8019 -0.5014
17584TIP3    H274244   3.772   5.812   0.519 -0.0232 -1.8607 -0.7200
17585TIP3   OH274245   1.488   5.660   5.267  0.4394  0.0657  0.3026
17585TIP3    H174246   1.495   5.753   5.243  0.4075  0.2731  1.0722
17585TIP3    H274247   1.449   5.618   5.190 -0.3944  0.8465  0.2867
17586TIP3   OH274248   3.821   4.511   2.715 -0.1740 -0.1419 -0.4730
17586TIP3    H174249   3.845   4.437   2.660 -1.3114 -0.5729 -0.4026
17586TIP3    H274250   3.826   4.587   2.657  1.3413 -0.1999 -0.4566
17587TIP3   OH274251   3.760   1.533   3.495  0.5155  0.3364  0.0019
17587TIP3    H174252   3.664   1.533   3.495  0.4313  1.7564 -2.5065
17587TIP3    H274253   3.784   1.513   3.585 -2.1354  0.8023  0.8981
17588TIP3   OH274254   3.598   4.684   2.356  0.0001  0.1803  0.2604
17588TIP3    H174255   3.536   4.678   2.284 -0.9550 -1.9988  1.1703
17588TIP3    H274256   3.586   4.772   2.391 -1.0176  0.5427 -0.9467
17589TIP3   OH274257   5.409   2.204  13.155  0.0659  0.1343 -0.3102
17589TIP3    H174258   5.335   2.176  13.208  0.7550  0.7952  1.0630
17589TIP3    H274259   5.370   2.233  13.072 -1.0491 -0.8405 -0.1457
17590TIP3   OH274260   5.798   2.740  13.002  0.2647  0.3230 -0.7139
17590TIP3    H174261   5.883   2.750  13.045 -0.6960  2.6482  0.8507
17590TIP3    H274262   5.807   2.784  12.918  0.2561  1.7937  0.0323
17591TIP3   OH274263   2.864   4.706   3.323 -0.0825 -0.1698 -0.0976
17591TIP3    H174264   2.877   4.679   3.232 -0.8769 -1.1456  0.0605
17591TIP3    H274265   2.905   4.637   3.375  1.3634  0.9345  0.3077
17592TIP3   OH274266   3.323   6.579   1.255 -0.0346 -0.0962  0.8953
17592TIP3    H174267   3.348   6.517   1.187  2.0406  0.0244  1.4750
17592TIP3    H274268   3.261   6.638   1.212  0.0094 -0.9657 -0.4119
17593TIP3   OH274269   3.507   5.432  15.831 -0.2406  0.1886  0.0971
17593TIP3    H174270   3.486   5.465  15.918  1.6186  1.4305  0.1302
17593TIP3    H274271   3.587   5.382  15.843  0.2337  0.6671 -0.9361
17594TIP3   OH274272   1.912   6.141   4.179 -0.2130  0.2532 -0.1798
17594TIP3    H174273   1.999   6.143   4.140  0.2325 -1.6568  0.5881
17594TIP3    H274274   1.859   6.200   4.125  1.9406  2.8894  0.3982
17595TIP3   OH274275   4.394   4.660  15.182 -0.1831  0.2050 -0.3107
17595TIP3    H174276   4.350   4.733  15.225 -0.0701 -0.0483  0.2366
17595TIP3    H274277   4.341   4.583  15.203  0.3250 -0.0493  0.0748
17596TIP3   OH274278   4.623   2.639  17.297  0.1087 -0.5805 -0.4842
17596TIP3    H174279   4.682   2.637  17.222 -0.0445 -0.7348 -0.6026
17596TIP3    H274280   4.679   2.620  17.372  0.1989 -0.7727 -0.6008
17597TIP3   OH274281   0.107   6.344   5.369 -0.1415  0.4642  0.5580
17597TIP3    H174282   0.144   6.329   5.282  1.5677 -0.4425  1.3783
17597TIP3    H274283   0.176   6.393   5.416 -0.3374 -0.4576  1.8669
17598TIP3   OH274284   6.607   6.640   0.865  0.1750 -0.2106 -0.1860
17598TIP3    H174285   6.542   6.687   0.916  0.5290 -0.1000  0.1682
17598TIP3    H274286   6.670   6.708   0.838  0.6750 -0.4768  0.3082
17599TIP3   OH274287   3.080   2.026  16.223  0.0049  0.0432 -0.5051
17599TIP3    H174288   3.151   2.084  16.196 -1.5975  2.4014  0.0424
17599TIP3    H274289   3.076   2.034  16.318 -1.0212  0.0512 -0.5310
17600TIP3   OH274290   5.842   1.474   5.191  0.6368  0.4397  0.5196
17600TIP3    H174291   5.760   1.519   5.170 -0.3088 -0.9898  1.0422
17600TIP3    H274292   5.819   1.382   5.196  2.0078  0.1217  1.9854
17601TIP3   OH274293   6.092   3.933   4.564  0.8923 -0.3762 -0.1540
17601TIP3    H174294   6.145   3.994   4.514  1.4701 -0.0300  0.8584
17601TIP3    H274295   6.097   3.965   4.654  0.5682 -1.4696  0.2635
17602TIP3   OH274296   4.463   6.218   5.050  0.7220  0.1445  0.2436
17602TIP3    H174297   4.428   6.267   5.125  0.5652 -0.7238  0.7475
17602TIP3    H274298   4.497   6.138   5.088  0.0726 -0.5896 -0.6901
17603TIP3   OH274299   0.946   1.287  11.569 -0.2766 -0.3817  0.2118
17603TIP3    H174300   0.873   1.345  11.551  0.4753  0.1713 -1.2622
17603TIP3    H274301   1.023   1.344  11.566  0.2967 -1.0989  0.8599
17604TIP3   OH274302   3.758   5.579  11.268 -0.0841 -0.0397 -0.4425
17604TIP3    H174303   3.688   5.516  11.285  0.4715 -1.1666 -2.0347
17604TIP3    H274304   3.821   5.565  11.339 -0.9067  0.1607  0.3391
17605TIP3   OH274305   0.166   2.654   0.937 -0.1665  0.6782  0.2074
17605TIP3    H174306   0.194   2.592   1.004 -0.7217 -1.9384 -1.7985
17605TIP3    H274307   0.237   2.652   0.872 -1.1637  0.4738 -0.9018
17606TIP3   OH274308   4.111   0.637   5.645  0.6354  0.2930  0.1458
17606TIP3    H174309   4.130   0.552   5.684 -2.2183 -0.4814  0.1238
17606TIP3    H274310   4.039   0.671   5.698  1.7019  2.7295  0.1416
17607TIP3   OH274311   1.327   4.690   4.820 -0.1240  0.5613  0.6380
17607TIP3    H174312   1.378   4.671   4.741 -0.7085  2.5469 -0.2690
17607TIP3    H274313   1.389   4.678   4.892  0.4006 -1.3538 -0.0712
17608TIP3   OH274314   0.300   3.518  15.188  1.1880  0.2170  0.1675
17608TIP3    H174315   0.300   3.600  15.139  1.0911  0.5249  0.6849
17608TIP3    H274316   0.266   3.454  15.126  1.0227  0.6132 -0.1553
17609TIP3   OH274317   3.222   6.200   2.799 -0.5550  0.3655  0.1038
17609TIP3    H174318   3.135   6.233   2.779  0.0459  1.6857 -0.4623
17609TIP3    H274319   3.265   6.273   2.844  0.6439  0.1868 -0.7034
17610TIP3   OH274320   1.268   5.978   3.730 -0.0109  0.2034 -0.3003
17610TIP3    H174321   1.179   5.977   3.695 -1.0564 -0.4389  2.2314
17610TIP3    H274322   1.287   5.886   3.750  1.4628  0.2581 -1.2547
17611TIP3   OH274323   5.335   2.484   2.538 -0.4554  0.4637 -0.0684
17611TIP3    H174324   5.337   2.415   2.605  2.3238 -0.2733 -0.7640
17611TIP3    H274325   5.297   2.441   2.461  2.5597 -0.8884 -0.9411
17612TIP3   OH274326   4.360   3.115   2.511 -0.6886  0.0221 -0.2860
17612TIP3    H174327   4.419   3.175   2.556 -0.8821  0.8522 -1.1169
17612TIP3    H274328   4.274   3.156   2.516 -1.2025 -1.1009  0.7748
17613TIP3   OH274329   6.145   3.518  16.833 -0.4326 -0.3012 -0.0830
17613TIP3    H174330   6.177   3.546  16.919 -0.1193 -2.1686  0.4437
17613TIP3    H274331   6.065   3.470  16.853 -0.1877 -1.0115 -0.8073
17614TIP3   OH274332   0.708   0.807   2.000 -0.2779  0.5218  0.1301
17614TIP3    H174333   0.710   0.832   2.093  0.7326 -0.5679  0.4254
17614TIP3    H274334   0.715   0.890   1.953  1.4822  0.9537  1.0649
17615TIP3   OH274335   6.624   0.579   4.759  0.3909  0.0168  0.1892
17615TIP3    H174336   6.608   0.630   4.839 -0.2796 -0.3763  0.3162
17615TIP3    H274337   6.599   0.490   4.783  2.0582 -0.4831  0.1288
17616TIP3   OH274338   3.102   5.584  13.572  0.0265 -0.0524 -0.8707
17616TIP3    H174339   3.092   5.512  13.635 -2.1430  0.3057 -0.7250
17616TIP3    H274340   3.162   5.645  13.614  0.8706 -1.1404 -0.4285
17617TIP3   OH274341   1.850   1.291   1.475 -0.3020 -0.0354 -0.6320
17617TIP3    H174342   1.850   1.367   1.534 -2.0600  0.0155 -0.6446
17617TIP3    H274343   1.827   1.217   1.532  2.8513 -0.9120 -0.3026
17618TIP3   OH274344   4.705   4.357  13.321 -0.0080  0.4841 -0.4095
17618TIP3    H174345   4.685   4.265  13.333 -1.4864  0.7801 -0.4454
17618TIP3    H274346   4.788   4.370  13.367 -0.1251 -0.7142  0.1741
17619TIP3   OH274347   1.550   4.569  15.811  0.5595 -0.4149  0.7308
17619TIP3    H174348   1.574   4.586  15.902 -0.6004 -2.2492  1.4551
17619TIP3    H274349   1.552   4.473  15.804 -0.1845 -0.3389 -0.9404
17620TIP3   OH274350   5.002   3.579   3.847  0.4743  0.6955  0.6210
17620TIP3    H174351   4.988   3.637   3.922  0.2485  0.9877  0.3573
17620TIP3    H274352   4.963   3.626   3.773  0.5181  0.3205  0.3575
17621TIP3   OH274353   6.737   2.423   3.492  0.1376 -0.2967  0.0107
17621TIP3    H174354   6.728   2.399   3.584 -0.0067 -1.7005 -0.3426
17621TIP3    H274355   6.702   2.511   3.486 -1.5928 -0.8695  0.9699
17622TIP3   OH274356   2.932   4.552  16.076  0.7607  0.2622 -0.0270
17622TIP3    H174357   3.018   4.521  16.048  0.9190 -0.7081  1.4345
17622TIP3    H274358   2.875   4.475  16.069  0.5648  0.2750  1.2131
17623TIP3   OH274359   5.428   4.501   0.576 -0.2401  0.0112 -0.0295
17623TIP3    H174360   5.511   4.533   0.612 -0.2910 -2.1928  2.3794
17623TIP3    H274361   5.452   4.459   0.494  0.7023  1.0604 -0.3198
17624TIP3   OH274362   0.765   2.089   3.424  0.5591  0.3199 -0.6281
17624TIP3    H174363   0.839   2.077   3.365  1.0501 -0.2555  0.0807
17624TIP3    H274364   0.732   2.177   3.405 -1.4338 -0.9687 -4.1557
17625TIP3   OH274365   6.025   1.722   2.201 -0.7468 -0.3199 -0.0025
17625TIP3    H174366   6.010   1.647   2.258 -1.0162 -1.3375 -1.3502
17625TIP3    H274367   5.968   1.706   2.125  0.8162  0.1098 -1.3339
17626TIP3   OH274368   2.480   0.296   1.135  0.3025  0.1905  0.2843
17626TIP3    H174369   2.450   0.207   1.117  2.7168 -0.3220 -2.0227
17626TIP3    H274370   2.503   0.331   1.049  2.1053  1.9732  1.3959
17627TIP3   OH274371   3.765   3.196  15.734 -0.3561  0.1048  0.2527
17627TIP3    H174372   3.777   3.256  15.807  1.7133 -0.6458  0.5749
17627TIP3    H274373   3.689   3.231  15.687  0.1476  2.3591  1.0072
17628TIP3   OH274374   0.434   4.198   3.424  0.1368 -0.9003 -0.5457
17628TIP3    H174375   0.495   4.270   3.439 -1.9270  0.4358  2.4933
17628TIP3    H274376   0.467   4.126   3.476 -1.1896  0.1215  1.8627
17629TIP3   OH274377   0.180   1.563  16.498  0.2774  0.5809  0.2932
17629TIP3    H174378   0.246   1.574  16.566  2.3740 -0.0165 -1.5378
17629TIP3    H274379   0.227   1.576  16.416 -1.0464 -3.2388 -1.2991
17630TIP3   OH274380   5.841   2.857   5.314 -0.3507  0.2808 -0.0447
17630TIP3    H174381   5.831   2.931   5.254  0.8283  0.0086 -0.6053
17630TIP3    H274382   5.799   2.784   5.268  1.5184 -0.1973 -1.1136
17631TIP3   OH274383   6.430   0.722  11.044  0.0502  0.0440 -0.1240
17631TIP3    H174384   6.459   0.668  11.118 -0.9398 -0.3615  0.0015
17631TIP3    H274385   6.450   0.669  10.966  0.2470  0.0534 -0.0779
17632TIP3   OH274386   1.334   2.638   3.018  0.1161  0.4144 -0.0673
17632TIP3    H174387   1.424   2.664   3.041 -0.3738  0.3722  2.0166
17632TIP3    H274388   1.282   2.716   3.036 -0.4245  0.0990 -0.2606
17633TIP3   OH274389   4.290   1.132  16.555 -0.7535  0.2177  0.2410
17633TIP3    H174390   4.346   1.137  16.632 -1.2035 -0.0719  0.5868
17633TIP3    H274391   4.214   1.081  16.583 -1.3472  0.8735 -0.1291
17634TIP3   OH274392   5.211   6.630   6.380  0.0268 -0.2614  0.1543
17634TIP3    H174393   5.120   6.614   6.355  0.2908  1.4889 -2.2470
17634TIP3    H274394   5.216   6.724   6.394  1.4179 -0.3736  0.5785
17635TIP3   OH274395   5.666   4.735   0.252 -0.7457  0.0114  0.1379
17635TIP3    H174396   5.688   4.646   0.279 -0.0439  0.4570  1.0967
17635TIP3    H274397   5.641   4.726   0.160  2.4957 -0.7356 -0.8283
17636TIP3   OH274398   5.734   3.936  13.868  0.2847 -0.0705  0.2680
17636TIP3    H174399   5.705   4.023  13.894 -1.4964 -0.2909 -0.8182
17636TIP3    H274400   5.773   3.899  13.948  0.5576  1.4800  0.8965
17637TIP3   OH274401   4.411   5.127  11.483  0.0393 -0.1328  0.2229
17637TIP3    H174402   4.489   5.179  11.504  0.7653 -1.4486  0.9272
17637TIP3    H274403   4.443   5.057  11.426 -0.3223 -1.5171  1.6589
17638TIP3   OH274404   2.751   2.631  12.893 -0.7985  0.0806 -0.5463
17638TIP3    H174405   2.805   2.554  12.910 -0.7648  0.2620  0.2024
17638TIP3    H274406   2.752   2.680  12.976 -0.8180  0.8866 -1.0127
17639TIP3   OH274407   4.847   0.045  11.689 -0.2810  0.5888 -0.8643
17639TIP3    H174408   4.832   0.073  11.779 -1.9462 -2.0483 -0.2117
17639TIP3    H274409   4.941   0.055  11.676 -0.2708  2.8094  0.4654
17640TIP3   OH274410   5.045   6.118  16.310 -0.3675 -0.4892  0.4564
17640TIP3    H174411   5.077   6.032  16.283  0.2043 -0.0578 -0.2682
17640TIP3    H274412   4.951   6.106  16.323 -0.0576 -1.6019  1.9349
17641TIP3   OH274413   1.864   4.873  16.845 -0.0060  0.7124 -0.7093
17641TIP3    H174414   1.949   4.916  16.837  0.6966 -0.7299 -1.1479
17641TIP3    H274415   1.820   4.891  16.762 -0.0428  1.2433 -0.5782
17642TIP3   OH274416   5.128   5.362  12.050  0.2053  0.1453 -0.1200
17642TIP3    H174417   5.069   5.292  12.075 -0.6626  1.0130  0.3137
17642TIP3    H274418   5.071   5.436  12.029  1.0978  0.7282 -0.5823
17643TIP3   OH274419   2.811   5.219  12.927 -0.0349  0.0617  0.0952
17643TIP3    H174420   2.739   5.162  12.898  1.7789 -2.3326  0.0025
17643TIP3    H274421   2.834   5.270  12.849  0.1364 -1.1542 -0.6716
17644TIP3   OH274422   4.582   1.516  12.488  0.5734  0.1470 -0.3265
17644TIP3    H174423   4.633   1.521  12.568  1.2212  2.8435 -0.8005
17644TIP3    H274424   4.645   1.530  12.418 -0.4631  1.7315 -1.0249
17645TIP3   OH274425   3.559   1.011   4.262  0.0465 -0.1417  0.2002
17645TIP3    H174426   3.567   0.917   4.279 -0.5650 -0.6116 -1.8134
17645TIP3    H274427   3.493   1.017   4.193  0.6436  1.7102 -0.2631
17646TIP3   OH274428   4.346   1.108  15.935 -0.1418 -0.1882  0.1966
17646TIP3    H174429   4.333   1.061  16.018  0.2524  1.4621  1.2379
17646TIP3    H274430   4.284   1.180  15.938  0.5054  0.4144 -0.5257
17647TIP3   OH274431   6.819   2.026  10.871 -0.3418 -0.3334 -0.2447
17647TIP3    H174432   6.728   2.024  10.844 -0.3960 -1.7956 -0.0095
17647TIP3    H274433   6.817   2.056  10.962 -0.3800  1.7354 -0.8636
17648TIP3   OH274434   1.840   2.288  12.532 -0.0516  0.0824  0.0354
17648TIP3    H174435   1.876   2.344  12.602 -0.0419 -0.1616  0.2279
17648TIP3    H274436   1.761   2.250  12.570 -0.6017  0.7316 -0.4367
17649TIP3   OH274437   2.076   0.443  15.648  0.0096 -0.3083 -0.0388
17649TIP3    H174438   2.119   0.522  15.615 -2.0731  0.9786  0.1595
17649TIP3    H274439   2.048   0.396  15.570  0.0008 -0.1293 -0.1419
17650TIP3   OH274440   3.628   0.974  12.023 -0.3330  0.1112 -0.4305
17650TIP3    H174441   3.708   0.953  12.071 -0.6123  1.2244  0.5559
17650TIP3    H274442   3.653   0.966  11.931  0.3194 -1.6434 -0.1431
17651TIP3   OH274443   1.987   1.317  10.521 -0.0952 -0.1367 -0.1885
17651TIP3    H174444   1.947   1.289  10.604  1.3018 -0.4393  0.4184
17651TIP3    H274445   1.919   1.369  10.478 -1.2129 -0.8239  0.6751
17652TIP3   OH274446   0.655   0.459   2.799  0.1457 -0.9531 -0.4906
17652TIP3    H174447   0.687   0.455   2.890 -0.1039  1.0945 -0.2722
17652TIP3    H274448   0.580   0.519   2.802  1.5560  1.0798 -2.3812
17653TIP3   OH274449   1.199   6.571  17.208  0.1105 -0.5882 -0.6247
17653TIP3    H174450   1.117   6.611  17.236 -0.4011 -1.0484 -1.4324
17653TIP3    H274451   1.252   6.644  17.177 -0.5179 -0.4345 -1.3635
17654TIP3   OH274452   3.955   2.489  16.468  0.1748 -0.2682 -0.4047
17654TIP3    H174453   3.929   2.401  16.496  0.4071  0.8589  4.0322
17654TIP3    H274454   4.034   2.476  16.416  1.6889 -2.6326  2.2421
17655TIP3   OH274455   3.377   5.561   2.281  0.0789 -0.0693 -0.4928
17655TIP3    H174456   3.468   5.572   2.308  0.0466 -2.2969  0.6862
17655TIP3    H274457   3.331   5.633   2.324  0.8617 -0.5547  1.2500
17656TIP3   OH274458   0.093   3.528  13.216  0.0245 -0.1739  0.0350
17656TIP3    H174459   0.079   3.575  13.133 -1.1671 -1.8978 -0.8132
17656TIP3    H274460   0.042   3.448  13.206 -0.4748 -0.2562  2.6352
17657TIP3   OH274461   4.150   4.140  17.002  0.1444  0.1524 -0.8258
17657TIP3    H174462   4.073   4.179  16.963 -0.0742  1.7543  1.0997
17657TIP3    H274463   4.216   4.209  17.000  1.1307 -0.7706 -1.2381
17658TIP3   OH274464   2.452   4.466  12.798 -0.1998  0.2190  0.1367
17658TIP3    H174465   2.490   4.523  12.865  2.0351  2.4232 -2.6726
17658TIP3    H274466   2.395   4.524  12.747  1.4629 -0.1142 -2.3018
17659TIP3   OH274467   5.986   5.765   2.199 -0.3552 -0.2462  0.3176
17659TIP3    H174468   5.949   5.786   2.285  0.2799  2.0053  0.0799
17659TIP3    H274469   5.942   5.824   2.138  0.3889 -0.6703 -0.6652
17660TIP3   OH274470   0.291   6.054  12.386 -0.6563 -0.0769 -0.1924
17660TIP3    H174471   0.300   6.132  12.333  1.0662  0.5007  0.8557
17660TIP3    H274472   0.196   6.044  12.400 -0.8902  2.0039 -0.0747
17661TIP3   OH274473   3.662   1.807   2.841  0.2262  0.7180 -0.2309
17661TIP3    H174474   3.689   1.812   2.933  0.6855 -1.6484 -0.1578
17661TIP3    H274475   3.737   1.843   2.793  0.4312  0.9845  0.2699
17662TIP3   OH274476   4.949   0.583   2.107  0.2483  0.9415 -0.5480
17662TIP3    H174477   4.898   0.612   2.183  0.8629 -1.5413  0.9075
17662TIP3    H274478   4.997   0.507   2.137  3.3691  1.9661 -2.4238
17663TIP3   OH274479   5.894   1.791  16.995  0.2608  0.0327  0.0839
17663TIP3    H174480   5.869   1.699  16.987  1.6936 -0.2551 -1.4277
17663TIP3    H274481   5.812   1.839  16.981 -0.6115 -0.9864  1.4239
17664TIP3   OH274482   1.219   2.783  15.621  0.3480  0.1344 -0.0032
17664TIP3    H174483   1.306   2.754  15.648 -0.1679 -1.0903  0.4007
17664TIP3    H274484   1.168   2.703  15.615 -0.7583  0.8419 -0.2426
17665TIP3   OH274485   3.410   3.588  12.786  0.1926 -0.5546 -0.4114
17665TIP3    H174486   3.338   3.642  12.819  0.2380 -1.9435  2.2062
17665TIP3    H274487   3.380   3.559  12.700 -1.1677  1.0813 -0.5500
17666TIP3   OH274488   5.779   3.501   6.071  0.2970 -0.0875  0.1614
17666TIP3    H174489   5.795   3.594   6.087 -1.8450  0.3712  0.0141
17666TIP3    H274490   5.864   3.466   6.045  1.3900  1.5935  1.2539
17667TIP3   OH274491   0.273   6.169   2.297  0.4176 -0.3108 -0.1125
17667TIP3    H174492   0.287   6.099   2.361  0.0414  0.0739  0.3977
17667TIP3    H274493   0.302   6.249   2.341  1.7444 -0.2482 -1.0264
17668TIP3   OH274494   2.707   0.855   0.676  0.9657 -0.1648 -0.0206
17668TIP3    H174495   2.682   0.932   0.727  1.0704  0.7098 -1.2430
17668TIP3    H274496   2.803   0.854   0.679  0.9513 -0.5049  0.3599
17669TIP3   OH274497   4.313   4.014  12.777 -0.6105 -0.3397 -0.6088
17669TIP3    H174498   4.356   4.037  12.859 -2.5614  2.6451 -0.2620
17669TIP3    H274499   4.384   4.008  12.714  0.7765 -1.0728  0.9526
17670TIP3   OH274500   0.794   4.750  15.836  0.3042  0.2191 -0.2081
17670TIP3    H174501   0.837   4.787  15.913 -0.7331  1.7253 -0.3043
17670TIP3    H274502   0.702   4.746  15.860  0.1413 -0.5196 -0.9241
17671TIP3   OH274503   4.993   4.154   2.348 -0.6593 -0.0737  0.4579
17671TIP3    H174504   5.071   4.207   2.337 -0.4510 -0.3235  0.7057
17671TIP3    H274505   5.024   4.073   2.387 -1.1840  0.3058  1.7496
17672TIP3   OH274506   6.210   2.029  11.757  0.4339 -0.3866  0.0454
17672TIP3    H174507   6.256   2.089  11.815 -0.1655 -0.2303  0.3759
17672TIP3    H274508   6.118   2.057  11.762  0.4984  0.3399 -1.8259
17673TIP3   OH274509   0.276   4.548   5.906 -0.5992 -0.8414 -0.5260
17673TIP3    H174510   0.345   4.482   5.917 -0.7098 -0.9871 -0.7141
17673TIP3    H274511   0.232   4.524   5.825 -0.4820 -0.3864 -0.7225
17674TIP3   OH274512   2.625   3.980  15.981  0.3233  0.3077 -0.0286
17674TIP3    H174513   2.574   3.935  16.048 -1.2048 -1.2522 -2.0852
17674TIP3    H274514   2.708   3.932  15.977  0.1861  0.0360  0.3551
17675TIP3   OH274515   2.360   5.268  16.002 -0.0024 -0.5249 -0.2306
17675TIP3    H174516   2.426   5.222  15.950  0.5158 -1.3519  1.0898
17675TIP3    H274517   2.390   5.359  16.004  0.8074 -0.7803 -0.1315
17676TIP3   OH274518   3.531   0.789  14.028 -0.0523 -0.0586  0.2900
17676TIP3    H174519   3.516   0.845  14.104 -1.0733 -0.8222  0.6832
17676TIP3    H274520   3.588   0.840  13.971  2.6439 -0.2882  2.5304
17677TIP3   OH274521   4.902   1.235   3.637 -0.0345  0.3032  0.5599
17677TIP3    H174522   4.873   1.276   3.555  0.7606  1.1231  0.6738
17677TIP3    H274523   4.828   1.180   3.664  0.2177 -1.1834 -1.4756
17678TIP3   OH274524   2.381   2.084   2.011 -0.3478  0.0332 -0.2053
17678TIP3    H174525   2.438   2.019   1.971  0.3261  0.1234  0.5638
17678TIP3    H274526   2.405   2.167   1.969 -0.0030  0.0479  0.0164
17679TIP3   OH274527   2.346   2.702   1.351  0.1581  0.1174  0.0015
17679TIP3    H174528   2.372   2.760   1.422 -1.3439  0.4671  0.2957
17679TIP3    H274529   2.427   2.658   1.324  1.4774  2.8070 -0.6899
17680TIP3   OH274530   3.453   4.329   5.009  0.5454 -0.2196  0.1595
17680TIP3    H174531   3.428   4.414   4.972  1.2797 -0.1209 -0.1477
17680TIP3    H274532   3.471   4.346   5.101  1.9531  0.2540 -0.1730
17681TIP3   OH274533   1.484   3.396  11.676 -0.4301  0.0649  0.5680
17681TIP3    H174534   1.557   3.417  11.734 -0.3933 -1.9312  1.3101
17681TIP3    H274535   1.460   3.480  11.636  2.5298  0.7349 -0.0401
17682TIP3   OH274536   1.339   3.569   5.614  0.1089  0.1130 -0.3468
17682TIP3    H174537   1.335   3.640   5.678  0.5612 -0.2903  0.1283
17682TIP3    H274538   1.421   3.584   5.567  1.3885 -1.3916  1.2894
17683TIP3   OH274539   0.433   2.025  12.298  0.0702  0.2654 -0.1727
17683TIP3    H174540   0.388   1.944  12.322 -0.6226  0.2942 -1.2806
17683TIP3    H274541   0.525   2.000  12.288 -0.0940 -0.3239 -0.2488
17684TIP3   OH274542   4.824   0.525   1.663 -0.2728 -0.1372  0.2826
17684TIP3    H174543   4.764   0.451   1.652  1.2883 -1.4593  0.4277
17684TIP3    H274544   4.889   0.495   1.725 -0.2164  1.7883  1.2267
17685TIP3   OH274545   1.821   1.985  11.076 -0.5555 -0.3486  0.0475
17685TIP3    H174546   1.728   1.965  11.086 -0.8369  1.1000  0.4703
17685TIP3    H274547   1.838   2.055  11.139  0.5674  0.1659 -0.7897
17686TIP3   OH274548   1.861   2.750   5.633 -0.4541 -0.3376 -0.1124
17686TIP3    H174549   1.929   2.688   5.661  0.5384  0.9517  0.4523
17686TIP3    H274550   1.838   2.797   5.713 -0.6873  0.4922 -0.6540
17687TIP3   OH274551   2.378   6.125  11.765  0.3886 -0.2324  0.1986
17687TIP3    H174552   2.432   6.174  11.702 -0.4229  1.2750  0.6177
17687TIP3    H274553   2.305   6.184  11.785  0.7725 -0.5230  2.8079
17688TIP3   OH274554   0.923   1.847   0.312 -0.5895  0.3792 -0.0502
17688TIP3    H174555   0.867   1.922   0.291  1.2142  1.3156 -1.7531
17688TIP3    H274556   0.945   1.859   0.404 -1.1910  1.3591 -0.0169
17689TIP3   OH274557   3.989   5.599   5.796 -0.3343  0.2929  0.2474
17689TIP3    H174558   3.897   5.620   5.778  0.0842  1.8954 -0.1472
17689TIP3    H274559   4.007   5.523   5.740 -1.6083 -0.5457  0.9209
17690TIP3   OH274560   1.283   2.896  16.834  0.4570  0.0326 -0.5710
17690TIP3    H174561   1.372   2.915  16.864  0.2934 -0.4830  0.2823
17690TIP3    H274562   1.291   2.816  16.782  0.6009  0.4146 -1.1456
17691TIP3   OH274563   6.538   4.781  13.039  0.3693  0.1832  0.2702
17691TIP3    H174564   6.501   4.759  12.953 -2.0050 -0.7861  1.4535
17691TIP3    H274565   6.625   4.741  13.038  0.9515  1.3110 -2.1268
17692TIP3   OH274566   4.022   4.068  12.484  0.3899 -0.1679 -0.3820
17692TIP3    H174567   3.965   4.143  12.468  0.3822 -0.5251 -2.2834
17692TIP3    H274568   3.964   3.992  12.483  0.6398 -0.3634 -0.3189
17693TIP3   OH274569   1.332   1.952   5.281 -0.2153  0.1757 -0.7697
17693TIP3    H174570   1.381   2.021   5.326  0.7728 -0.9568 -0.0451
17693TIP3    H274571   1.269   1.920   5.346 -1.1259  0.8086 -1.3128
17694TIP3   OH274572   0.565   0.660   1.811 -0.3129 -0.1516  0.4847
17694TIP3    H174573   0.621   0.703   1.876 -0.1571  1.4959 -0.6892
17694TIP3    H274574   0.622   0.595   1.770  1.3906  2.5727 -1.8156
17695TIP3   OH274575   6.535   5.848   3.847 -0.7570 -0.4883 -0.2552
17695TIP3    H174576   6.539   5.896   3.764  2.1980  0.6295  0.4200
17695TIP3    H274577   6.606   5.784   3.842  0.0283  0.1671  1.6835
17696TIP3   OH274578   6.553   0.710  12.966  0.3910  0.4355 -0.4306
17696TIP3    H174579   6.548   0.623  12.925 -0.4927 -0.1951  0.9266
17696TIP3    H274580   6.640   0.713  13.005 -0.5898 -1.1845  2.1783
17697TIP3   OH274581   1.067   1.664   5.474  0.4424 -0.0603 -0.3303
17697TIP3    H174582   1.073   1.760   5.471  2.3204 -0.1659 -2.2817
17697TIP3    H274583   0.995   1.647   5.534  0.1964  2.5674  0.2619
17698TIP3   OH274584   2.740   5.226  15.098 -0.1069  0.2873  0.4130
17698TIP3    H174585   2.755   5.146  15.147  1.2470 -1.0603 -2.0058
17698TIP3    H274586   2.737   5.199  15.007  0.8826  3.0283 -0.5584
17699TIP3   OH274587   0.872   3.033  11.704  0.3676  0.0827 -0.7734
17699TIP3    H174588   0.842   3.035  11.795 -3.2383  0.0918 -1.8003
17699TIP3    H274589   0.826   2.958  11.666  1.7104  0.1455 -2.6358
17700TIP3   OH274590   2.603   5.897  10.955 -0.2630 -0.2754  0.4782
17700TIP3    H174591   2.658   5.907  11.032 -0.4017 -0.4532  0.5981
17700TIP3    H274592   2.533   5.838  10.982  0.0872 -0.9156  0.0046
17701TIP3   OH274593   3.984   3.092   1.024  0.0674  0.1318 -0.0651
17701TIP3    H174594   4.000   3.029   0.954 -1.6001 -0.3580 -0.0442
17701TIP3    H274595   3.979   3.039   1.104 -0.5392  0.3772  0.0665
17702TIP3   OH274596   0.938   5.826  13.932 -0.4604  0.4557  0.0253
17702TIP3    H174597   0.918   5.736  13.907 -0.7171  0.7743 -0.9262
17702TIP3    H274598   0.976   5.866  13.854  0.7680  0.8404  0.7972
17703TIP3   OH274599   5.522   0.895   3.682  0.3110 -0.8904 -0.2882
17703TIP3    H174600   5.569   0.850   3.613 -0.2215 -1.2112 -0.4514
17703TIP3    H274601   5.520   0.987   3.655  2.9334 -0.3889  0.8902
17704TIP3   OH274602   0.071   0.485   2.591 -0.2657  0.6979 -0.3098
17704TIP3    H174603   0.020   0.424   2.538 -1.7017  1.2552  0.3641
17704TIP3    H274604   0.053   0.460   2.682  1.4538  0.3135 -0.0329
17705TIP3   OH274605   4.618   4.076   0.460  0.0316  0.2822 -0.2790
17705TIP3    H174606   4.697   4.052   0.508 -0.2226  0.7047  0.3762
17705TIP3    H274607   4.556   4.005   0.477  0.4028 -0.2544 -1.1361
17706TIP3   OH274608   5.849   3.979   5.266  0.4099 -0.1550  0.2046
17706TIP3    H174609   5.888   3.992   5.353  2.6968 -1.4174 -0.5471
17706TIP3    H274610   5.844   3.884   5.256 -0.4707 -0.0176 -0.7798
17707TIP3   OH274611   0.332   4.189  13.995  0.1883 -0.3846  0.6727
17707TIP3    H174612   0.347   4.228  14.082 -0.3603 -0.5112  0.8282
17707TIP3    H274613   0.243   4.217  13.972  0.3837 -0.2432  0.0899
17708TIP3   OH274614   6.775   1.806   2.625  0.1504  0.1391  0.3087
17708TIP3    H174615   6.804   1.728   2.671 -3.0716 -1.4788 -0.1241
17708TIP3    H274616   6.695   1.832   2.670  0.8850  3.0091  0.1544
17709TIP3   OH274617   3.481   3.176  12.291 -0.2381 -0.4951  0.1922
17709TIP3    H174618   3.448   3.252  12.243  1.4232  1.2775  1.6638
17709TIP3    H274619   3.519   3.119  12.224  0.8860  1.2982 -0.7646
17710TIP3   OH274620   4.713   0.042   5.546  0.4203  0.3125 -0.4165
17710TIP3    H174621   4.762  -0.025   5.594  1.4510  0.0076 -1.8284
17710TIP3    H274622   4.660   0.085   5.613  0.1689 -1.5144  0.6342
17711TIP3   OH274623   2.728   1.891  10.549  0.2014  0.7838  0.1769
17711TIP3    H174624   2.664   1.878  10.479  0.4184  2.3593 -0.3495
17711TIP3    H274625   2.764   1.804  10.565 -1.1662  0.0875 -0.3920
17712TIP3   OH274626   3.185   6.386  13.504  0.0320 -0.0678 -0.3571
17712TIP3    H174627   3.198   6.360  13.413 -0.4515 -0.0192 -0.4440
17712TIP3    H274628   3.210   6.309  13.555 -0.6558 -0.4486 -0.5779
17713TIP3   OH274629   1.048   1.878  12.229 -0.8437  0.1481  0.2690
17713TIP3    H174630   1.012   1.964  12.249 -3.5034 -0.5272 -1.1438
17713TIP3    H274631   1.112   1.893  12.159 -2.0754  0.8867 -0.7245
17714TIP3   OH274632   6.167   3.575  13.751 -0.3400 -0.2813 -0.2838
17714TIP3    H174633   6.256   3.542  13.761  0.5149  2.3192  2.0871
17714TIP3    H274634   6.121   3.543  13.828 -0.0332  2.1103  1.0014
17715TIP3   OH274635   3.106   5.799   0.907 -0.6397  0.3852  0.3342
17715TIP3    H174636   3.033   5.860   0.909 -0.5088  0.7446 -2.3635
17715TIP3    H274637   3.179   5.848   0.945 -0.7058  1.7671 -1.1705
17716TIP3   OH274638   0.919   6.745  15.142 -0.2159 -0.2152 -0.2098
17716TIP3    H174639   0.971   6.703  15.073  0.2798  2.8976 -1.9069
17716TIP3    H274640   0.979   6.753  15.216 -0.3544 -2.3896  0.2156
17717TIP3   OH274641   5.367   0.217   4.950 -0.1827 -0.1216  0.6733
17717TIP3    H174642   5.272   0.211   4.941 -0.2827 -2.2324  2.2608
17717TIP3    H274643   5.380   0.261   5.034  0.2682  0.6006  0.2326
17718TIP3   OH274644   4.339   6.258   4.193 -0.0074 -0.2551  0.5390
17718TIP3    H174645   4.272   6.272   4.261 -1.3138 -1.3485 -0.4865
17718TIP3    H274646   4.347   6.344   4.151  0.0524  0.1651  1.3691
17719TIP3   OH274647   3.845   6.383  14.849 -0.1468 -0.0688  0.3605
17719TIP3    H174648   3.892   6.315  14.896 -2.9997 -0.9326  2.2190
17719TIP3    H274649   3.758   6.385  14.889 -1.0694  2.8402 -1.4315
17720TIP3   OH274650   5.517   5.003   3.824 -0.0895 -0.2261  0.1390
17720TIP3    H174651   5.464   4.938   3.872 -0.9559  0.0514 -0.4216
17720TIP3    H274652   5.500   5.085   3.870 -1.6339  0.2138 -1.1435
17721TIP3   OH274653   0.915   1.658   2.444 -0.2952 -0.2774  0.1300
17721TIP3    H174654   1.006   1.672   2.417  0.0331  1.9464  2.0626
17721TIP3    H274655   0.866   1.661   2.362  1.2554 -0.6161 -0.8687
17722TIP3   OH274656   5.464   4.617   3.859  0.1584 -0.4883 -0.4956
17722TIP3    H174657   5.400   4.670   3.812 -0.2193 -0.1551  0.3681
17722TIP3    H274658   5.508   4.565   3.792  0.1350  0.5050 -1.2955
17723TIP3   OH274659   2.124   0.341   2.974  0.2235  0.3660 -0.5807
17723TIP3    H174660   2.153   0.404   2.908  0.8763  1.4931  0.7608
17723TIP3    H274661   2.051   0.384   3.018  0.5451  0.1166  0.2149
17724TIP3   OH274662   4.865   1.924   0.686 -0.6590  0.0132 -0.0501
17724TIP3    H174663   4.773   1.916   0.710 -0.8061  0.7691 -0.3122
17724TIP3    H274664   4.913   1.898   0.764 -1.0727 -1.2938 -0.2102
17725TIP3   OH274665   5.293   5.155  15.282  0.4706  0.3567 -0.4050
17725TIP3    H174666   5.232   5.105  15.227  0.9071 -1.1962  0.4657
17725TIP3    H274667   5.377   5.111  15.269  0.5687 -0.0738  1.5094
17726TIP3   OH274668   0.567   2.325   0.262  0.0596  0.6580  0.1384
17726TIP3    H174669   0.542   2.260   0.328 -0.9809  0.5827 -0.3025
17726TIP3    H274670   0.612   2.394   0.311 -0.1264  0.3010  0.8254
17727TIP3   OH274671   1.063   3.978   5.465  0.0895 -0.2527  0.4049
17727TIP3    H174672   1.145   4.016   5.498 -1.1627  1.0857  2.1570
17727TIP3    H274673   1.017   3.949   5.544 -0.2531 -2.9449 -0.6877
17728TIP3   OH274674   4.995   5.504  13.496  0.2261  0.2260 -0.1714
17728TIP3    H174675   5.036   5.421  13.520  0.1811  0.3300  0.2787
17728TIP3    H274676   5.069   5.563  13.479  0.2799  0.5782  1.2153
17729TIP3   OH274677   0.255   2.044  13.532  0.1582  0.4095 -0.3151
17729TIP3    H174678   0.290   2.133  13.528  1.0758  0.0243 -2.8116
17729TIP3    H274679   0.160   2.054  13.526  0.2375  1.2241 -0.2326
17730TIP3   OH274680   5.608   6.082  13.414  0.0037  0.3842  0.7325
17730TIP3    H174681   5.676   6.037  13.463 -1.2370 -0.8384  1.4133
17730TIP3    H274682   5.636   6.076  13.322  0.3004 -1.0302  0.9004
17731TIP3   OH274683   4.600   0.508   5.500 -0.6077 -0.2438  0.1291
17731TIP3    H174684   4.597   0.558   5.418  0.7463  0.1600  0.2993
17731TIP3    H274685   4.521   0.534   5.547 -0.1002  1.5272  0.0728
17732TIP3   OH274686   4.294   3.117  14.153 -0.5547  0.2308  0.2785
17732TIP3    H174687   4.355   3.044  14.164 -1.7284 -0.9501 -0.7498
17732TIP3    H274688   4.236   3.112  14.229 -1.4927 -0.8068 -0.4684
17733TIP3   OH274689   5.953   6.067  11.470  0.5191  0.0206  0.0526
17733TIP3    H174690   5.898   5.991  11.489  0.7937 -0.2293 -0.1574
17733TIP3    H274691   6.014   6.037  11.403  0.5864  0.4454 -0.0789
17734TIP3   OH274692   5.819   5.721   5.521 -0.0904 -0.2556  0.2613
17734TIP3    H174693   5.756   5.652   5.541 -1.4063  0.5261 -1.0721
17734TIP3    H274694   5.856   5.697   5.436 -0.2559  0.4735 -0.0198
17735TIP3   OH274695   5.002   5.787  12.866  0.1686  0.4581 -0.3995
17735TIP3    H174696   4.953   5.812  12.944  0.3081 -0.9668  0.1727
17735TIP3    H274697   4.935   5.759  12.804  0.1753 -2.5763  0.7727
17736TIP3   OH274698   6.764   0.701  16.585  1.0507 -0.5138  0.3738
17736TIP3    H174699   6.750   0.607  16.578  0.2334 -0.3975  0.4460
17736TIP3    H274700   6.860   0.710  16.589  1.1873 -1.2525 -0.7374
17737TIP3   OH274701   6.363   4.126  16.246  0.4154  0.3126  0.0535
17737TIP3    H174702   6.429   4.062  16.273 -0.8704 -0.8826  0.5092
17737TIP3    H274703   6.284   4.101  16.295  0.0057  2.6333  0.6988
17738TIP3   OH274704   3.794   3.573  14.608 -0.2467 -0.1966 -0.2844
17738TIP3    H174705   3.736   3.647  14.591 -1.2953 -0.5962  1.3591
17738TIP3    H274706   3.777   3.549  14.699  2.6813 -0.1710  0.3794
17739TIP3   OH274707   1.932   4.918  11.971 -0.0800 -0.2174 -0.4925
17739TIP3    H174708   2.027   4.926  11.968  0.0449 -1.0834  0.4538
17739TIP3    H274709   1.901   4.964  11.892  1.1490 -0.4067 -1.1103
17740TIP3   OH274710   4.584   4.305   3.430  0.2529 -0.2826  0.2926
17740TIP3    H174711   4.598   4.393   3.467 -1.3518  0.7141 -1.3030
17740TIP3    H274712   4.654   4.252   3.468  1.5257  1.7760  1.0176
17741TIP3   OH274713   1.078   1.874  13.463 -0.0881  0.9088 -0.2185
17741TIP3    H174714   0.984   1.858  13.472  0.0582 -0.1491 -0.4412
17741TIP3    H274715   1.104   1.821  13.387  0.7955  0.7042  0.2130
17742TIP3   OH274716   5.413   2.034  14.935 -0.7484 -0.0282 -0.5996
17742TIP3    H174717   5.441   1.946  14.963 -0.9930  0.2036  0.4150
17742TIP3    H274718   5.323   2.042  14.967  0.4409  1.9877  2.8268
17743TIP3   OH274719   0.717   6.669   5.305  0.2322  0.2570 -0.3108
17743TIP3    H174720   0.760   6.743   5.261  0.5391  0.7067  0.7237
17743TIP3    H274721   0.637   6.705   5.341 -0.7388 -0.4376 -1.6704
17744TIP3   OH274722   0.148   4.087   2.626  0.6493 -0.4884  0.5315
17744TIP3    H174723   0.158   4.055   2.716 -2.2626  2.2750  2.0607
17744TIP3    H274724   0.099   4.018   2.581 -2.1925  0.0028  2.6133
17745TIP3   OH274725   4.641   6.675   1.080 -0.2555  0.3146  0.3105
17745TIP3    H174726   4.700   6.747   1.058  1.1680 -1.0826 -0.6980
17745TIP3    H274727   4.688   6.625   1.146 -1.2190  0.2725  0.9886
17746TIP3   OH274728   6.340   5.447  13.902 -0.0585  0.1831 -0.1399
17746TIP3    H174729   6.355   5.473  13.993 -0.3021 -0.1341 -0.0073
17746TIP3    H274730   6.364   5.354  13.899 -1.3625 -0.1865 -0.0613
17747TIP3   OH274731   3.257   0.040  11.783  0.3911 -0.4658  0.3966
17747TIP3    H174732   3.265   0.135  11.777  0.8035 -0.5393 -0.3495
17747TIP3    H274733   3.336   0.006  11.741 -0.8955 -1.1623 -1.6240
17748TIP3   OH274734   6.522   4.252  16.929 -0.1320 -0.1146 -0.1540
17748TIP3    H174735   6.447   4.312  16.926 -0.4648 -0.5238 -2.8770
17748TIP3    H274736   6.598   4.309  16.916 -0.1656  0.0612  0.4144
17749TIP3   OH274737   2.015   3.959  15.550 -0.4626 -0.0867  0.0874
17749TIP3    H174738   1.970   3.945  15.633 -1.1699 -0.6145 -0.3691
17749TIP3    H274739   2.108   3.957  15.572 -0.6120  2.3439  1.2780
17750TIP3   OH274740   5.834   5.190   0.471  0.4199  0.5530  0.1875
17750TIP3    H174741   5.753   5.149   0.502  0.1753  1.0344  0.1956
17750TIP3    H274742   5.903   5.151   0.524  0.2814 -0.3989 -0.3146
17751TIP3   OH274743   5.282   2.032  11.477 -0.0668  0.3466 -0.0591
17751TIP3    H174744   5.339   2.047  11.401  0.1754 -1.6006 -0.3025
17751TIP3    H274745   5.335   2.061  11.551  0.9973 -0.7846 -0.3443
17752TIP3   OH274746   3.579   4.349   0.378 -0.7048  0.1196 -0.0075
17752TIP3    H174747   3.520   4.360   0.303 -0.0658  0.7240 -0.4365
17752TIP3    H274748   3.584   4.255   0.391 -0.7789  0.0010 -0.7704
17753TIP3   OH274749   2.131   3.268   0.123  0.3159  0.0284  0.0429
17753TIP3    H174750   2.168   3.321   0.193  0.3217 -0.5248  0.4694
17753TIP3    H274751   2.205   3.246   0.067  0.6473 -1.0090  0.8480
17754TIP3   OH274752   4.488   2.275   3.852 -0.0063 -0.1531 -0.0361
17754TIP3    H174753   4.574   2.316   3.843 -0.1206  0.2227  0.5646
17754TIP3    H274754   4.457   2.302   3.938 -0.1397 -1.3990  0.3255
17755TIP3   OH274755   6.120   2.325  12.566 -0.1152 -0.0642 -0.1403
17755TIP3    H174756   6.205   2.359  12.595 -0.4573  1.9808 -1.3444
17755TIP3    H274757   6.058   2.360  12.630 -0.1021 -1.4777  0.6820
17756TIP3   OH274758   3.715   5.369   5.211 -0.8410  0.3646 -0.3372
17756TIP3    H174759   3.722   5.461   5.235 -1.8154 -0.3971  3.5466
17756TIP3    H274760   3.795   5.329   5.243  0.3504 -0.0520 -3.4390
17757TIP3   OH274761   5.124   6.756  11.632  0.1058 -0.0758 -0.8615
17757TIP3    H174762   5.161   6.843  11.621 -1.1739  0.8377  1.3282
17757TIP3    H274763   5.171   6.718  11.706 -0.2472 -0.7017 -0.9427
17758TIP3   OH274764   2.233   5.065   1.253  0.3358 -0.2754 -0.2292
17758TIP3    H174765   2.247   4.971   1.253  2.4877 -0.0130  0.4233
17758TIP3    H274766   2.282   5.096   1.329 -0.8192  1.3210 -0.0824
17759TIP3   OH274767   4.759   3.873   5.443  0.2592  0.3971 -0.2726
17759TIP3    H174768   4.689   3.919   5.489 -1.1518 -1.1009 -0.8193
17759TIP3    H274769   4.766   3.789   5.489  1.4591  0.3844 -0.4575
17760TIP3   OH274770   0.958   0.752  14.470  0.1907  0.3085  0.9945
17760TIP3    H174771   0.884   0.718  14.519 -1.4198  2.6979  0.3835
17760TIP3    H274772   0.945   0.719  14.381  0.8258 -0.6344  1.2361
17761TIP3   OH274773   2.901   2.741   4.484 -0.6105 -0.0403  0.3989
17761TIP3    H174774   2.867   2.696   4.561  0.1962  0.9976  1.4054
17761TIP3    H274775   2.996   2.741   4.496 -0.4741  0.1876 -0.5798
17762TIP3   OH274776   0.209   3.118   3.190 -0.5172  0.0234 -0.0110
17762TIP3    H174777   0.248   3.068   3.119 -1.8517 -1.2896  0.1293
17762TIP3    H274778   0.283   3.154   3.238  0.5843 -2.4729  0.3275
17763TIP3   OH274779   4.661   1.218   0.503 -0.6104 -0.1496 -0.2147
17763TIP3    H174780   4.753   1.242   0.516 -0.9539  0.0363  2.2231
17763TIP3    H274781   4.665   1.135   0.455  0.8961 -0.7810  0.9075
17764TIP3   OH274782   5.010   3.145   0.256  0.0803 -0.1781  0.4819
17764TIP3    H174783   4.938   3.092   0.290  0.0263 -0.4407 -0.0297
17764TIP3    H274784   4.967   3.209   0.198  0.3078 -0.6968 -0.2685
17765TIP3   OH274785   5.448   4.961  14.251  0.5593 -0.2371  0.2789
17765TIP3    H174786   5.434   4.895  14.319  2.3397 -1.7486 -0.7105
17765TIP3    H274787   5.510   5.023  14.290 -1.2785  1.0626  1.2888
17766TIP3   OH274788   2.236   5.971   2.085  0.3167  0.1781  0.4422
17766TIP3    H174789   2.260   5.988   2.176  0.9126 -0.9166  0.5049
17766TIP3    H274790   2.318   5.978   2.036 -0.3049  2.9554 -0.4124
17767TIP3   OH274791   2.790   0.173  10.782 -0.1187  0.6510  0.4731
17767TIP3    H174792   2.768   0.101  10.723  1.4373  1.5784 -1.3269
17767TIP3    H274793   2.735   0.246  10.753  2.1623  1.7608 -1.3736
17768TIP3   OH274794   5.387   3.180  15.192 -0.6043 -0.3012 -0.0904
17768TIP3    H174795   5.389   3.231  15.272 -1.5540  0.2636 -0.4107
17768TIP3    H274796   5.432   3.234  15.127  0.1362 -0.7434  0.0446
17769TIP3   OH274797   1.469   4.376  13.159 -0.1847  0.3194  0.0242
17769TIP3    H174798   1.540   4.353  13.099 -0.7115 -0.9855 -0.1493
17769TIP3    H274799   1.499   4.344  13.245 -0.7473 -0.7000 -0.1413
17770TIP3   OH274800   3.428   6.449  11.974  0.3912  0.0297 -0.0156
17770TIP3    H174801   3.415   6.355  11.983  1.0120 -0.1775 -1.1382
17770TIP3    H274802   3.371   6.474  11.901 -2.5041  1.1939  2.4143
17771TIP3   OH274803   3.192   3.676  12.929  0.2057  0.6312 -0.3685
17771TIP3    H174804   3.184   3.769  12.908 -1.1239  1.0664  1.8347
17771TIP3    H274805   3.105   3.650  12.961  0.3463 -1.5633 -1.5431
17772TIP3   OH274806   2.372   4.722   2.649 -0.8452  0.1222  0.1540
17772TIP3    H174807   2.431   4.659   2.690  0.0715 -0.7222 -2.2739
17772TIP3    H274808   2.289   4.712   2.696 -0.0429 -1.1660  1.3621
17773TIP3   OH274809   2.144   6.783  15.093 -0.7260  0.3988  0.4598
17773TIP3    H174810   2.184   6.735  15.020  0.8261 -0.2425  1.6799
17773TIP3    H274811   2.193   6.865  15.097  0.3540 -0.2772  1.7940
17774TIP3   OH274812   3.767   1.206  16.304  0.5212  0.6155 -1.3114
17774TIP3    H174813   3.813   1.249  16.376  1.7501  0.5502 -2.0424
17774TIP3    H274814   3.765   1.113  16.329 -3.0658  1.0528  0.7828
17775TIP3   OH274815   6.454   3.038  13.253  0.2161  0.2876  0.1077
17775TIP3    H174816   6.486   3.127  13.269  3.1817 -1.0498  2.6740
17775TIP3    H274817   6.518   2.981  13.296 -2.2273 -3.0879 -0.2913
17776TIP3   OH274818   4.018   5.645  17.115 -0.1700  0.3092  0.1908
17776TIP3    H174819   3.969   5.617  17.038 -1.1464  2.9681 -0.2606
17776TIP3    H274820   4.033   5.739  17.102  3.6158  0.0319  1.1301
17777TIP3   OH274821   2.987   3.506  15.318  0.1415 -0.2872 -0.3358
17777TIP3    H174822   3.007   3.594  15.288 -0.4773 -0.1141 -0.2602
17777TIP3    H274823   2.897   3.490  15.288  0.1135 -0.7451 -0.0216
17778TIP3   OH274824   5.855   2.303  11.017 -0.2662 -0.7493  0.1625
17778TIP3    H174825   5.861   2.253  10.936  0.8520 -2.2289  1.0974
17778TIP3    H274826   5.900   2.385  10.999 -0.7389 -0.7207 -0.9377
17779TIP3   OH274827   5.602   1.377  13.872  0.1028  0.4914 -0.5639
17779TIP3    H174828   5.541   1.396  13.943  0.9778 -0.1629  0.4009
17779TIP3    H274829   5.654   1.303  13.904 -0.1662 -0.5318 -2.3065
17780TIP3   OH274830   1.618   4.879  14.087  0.4729 -0.0716 -0.1329
17780TIP3    H174831   1.693   4.898  14.143  1.7231  2.5702 -2.4600
17780TIP3    H274832   1.653   4.823  14.018 -0.6514 -1.8847  0.6844
17781TIP3   OH274833   3.392   5.417   6.375  0.2292  0.0498 -0.0097
17781TIP3    H174834   3.308   5.441   6.335  0.4204  0.0607 -0.4079
17781TIP3    H274835   3.408   5.327   6.346  0.0386 -0.1931  0.6062
17782TIP3   OH274836   0.891   2.990  15.077  0.0084 -0.2490 -0.4270
17782TIP3    H174837   0.882   2.988  15.172 -3.2704 -0.3092 -0.6499
17782TIP3    H274838   0.863   3.078  15.053 -0.6528 -0.7289 -1.4427
17783TIP3   OH274839   1.802   5.291   1.109  0.6877 -0.3442 -0.0505
17783TIP3    H174840   1.753   5.209   1.100  1.7752 -1.2333  1.6821
17783TIP3    H274841   1.774   5.327   1.193  0.7821  0.6952 -0.4468
17784TIP3   OH274842   4.965   2.175   1.197  0.6651  0.0029  0.0839
17784TIP3    H174843   4.925   2.160   1.111  1.8537 -0.2003 -0.4539
17784TIP3    H274844   5.018   2.253   1.185 -0.7013  1.1638  1.2055
17785TIP3   OH274845   3.323   1.126   1.263 -0.4169 -0.4830 -0.1021
17785TIP3    H174846   3.405   1.086   1.234 -0.7762 -0.4052 -1.2585
17785TIP3    H274847   3.260   1.108   1.193 -0.8502  1.2778 -0.2290
17786TIP3   OH274848   2.998   1.001   0.752 -0.1021  0.6504 -0.1970
17786TIP3    H174849   3.040   1.079   0.716  1.5266 -0.0016  0.1998
17786TIP3    H274850   3.070   0.942   0.772 -1.1160 -0.0449  1.6991
17787TIP3   OH274851   3.219   1.939  13.636 -0.4819 -0.0373 -0.4107
17787TIP3    H174852   3.265   1.914  13.556  0.4873 -3.7265  1.0879
17787TIP3    H274853   3.134   1.894  13.629 -0.7558  0.3669  0.2630
17788TIP3   OH274854   5.010   2.849  15.439 -0.0122 -0.8259 -0.0767
17788TIP3    H174855   4.962   2.793  15.378  1.1659 -2.2682  0.2324
17788TIP3    H274856   5.091   2.800  15.456  1.0411  0.9679  0.2914
17789TIP3   OH274857   1.064   1.813   1.981  0.4550  0.2921  0.0851
17789TIP3    H174858   1.110   1.884   1.936 -1.1072  2.0666  1.1102
17789TIP3    H274859   1.065   1.839   2.073 -2.6726  0.5712  0.1450
17790TIP3   OH274860   4.077   0.917   3.804 -0.2959 -0.1693 -0.2798
17790TIP3    H174861   4.104   1.002   3.768 -0.9301  0.3697  0.4923
17790TIP3    H274862   4.087   0.927   3.898  2.6715 -2.0286 -0.2610
17791TIP3   OH274863   0.476   1.081  14.638 -1.2841 -0.3874  0.1319
17791TIP3    H174864   0.437   1.133  14.708 -2.4619 -0.3765 -0.4953
17791TIP3    H274865   0.496   0.997  14.679  0.3969  0.4293  1.0872
17792TIP3   OH274866   0.819   2.641  10.869  0.2631  0.1001  0.5106
17792TIP3    H174867   0.822   2.587  10.789  1.2337  1.2014 -0.2434
17792TIP3    H274868   0.738   2.616  10.912  0.8270 -2.2030  0.3725
17793TIP3   OH274869   4.218   5.723   4.725 -0.1990 -0.6075  0.6815
17793TIP3    H174870   4.285   5.782   4.758 -1.9610  1.1460  1.3159
17793TIP3    H274871   4.199   5.663   4.797 -0.4989 -0.0069  1.1071
17794TIP3   OH274872   5.737   5.233  14.763  1.0712 -0.6575  0.2356
17794TIP3    H174873   5.728   5.280  14.845 -0.7791 -1.6809  0.6900
17794TIP3    H274874   5.781   5.151  14.787 -1.1986 -1.8296  0.6395
17795TIP3   OH274875   3.331   6.174   3.519 -0.6893 -0.0274  0.2485
17795TIP3    H174876   3.313   6.212   3.605  0.4948  1.5139 -0.1334
17795TIP3    H274877   3.414   6.128   3.530 -1.3145 -1.2070  0.2885
17796TIP3   OH274878   0.189   3.116   3.885 -0.2465  0.1375 -0.8093
17796TIP3    H174879   0.146   3.107   3.800  0.3348  0.0589 -1.0962
17796TIP3    H274880   0.122   3.088   3.948 -0.4063 -0.6077 -1.2987
17797TIP3   OH274881   3.633   0.338   4.086 -0.3212 -0.2054 -0.0420
17797TIP3    H174882   3.676   0.358   4.169 -2.1305  0.5538  0.7864
17797TIP3    H274883   3.636   0.243   4.079  3.3311 -0.1485 -1.1397
17798TIP3   OH274884   4.147   2.507   3.999 -0.1373 -0.4206 -0.5368
17798TIP3    H174885   4.097   2.579   3.960 -1.0183 -1.5493 -1.5598
17798TIP3    H274886   4.223   2.550   4.039 -1.9479  1.3781  1.2319
17799TIP3   OH274887   2.470   4.886   1.289 -0.6559  0.3777  0.2382
17799TIP3    H174888   2.420   4.878   1.370 -2.0475  1.8453 -0.4214
17799TIP3    H274889   2.474   4.797   1.254 -2.4911  0.1459  0.5246
17800TIP3   OH274890   0.437   6.475  13.702 -0.2796  0.0821  0.4652
17800TIP3    H174891   0.344   6.493  13.688  0.0759  1.3025 -0.5408
17800TIP3    H274892   0.481   6.554  13.670  1.4167 -2.2585 -3.6196
17801TIP3   OH274893   1.330   0.357   5.309 -0.5067 -0.1516 -0.4444
17801TIP3    H174894   1.291   0.310   5.235  1.2895 -0.6230 -1.1621
17801TIP3    H274895   1.383   0.292   5.353  1.2898  0.9238 -0.8997
17802TIP3   OH274896   5.079   1.658   0.152 -0.4725 -0.2176 -0.6350
17802TIP3    H174897   5.125   1.650   0.068 -1.4459 -2.1382 -1.0226
17802TIP3    H274898   5.045   1.571   0.170 -3.4591  0.9364 -0.0544
17803TIP3   OH274899   4.234   0.969  17.026 -0.2274  0.2869 -0.2863
17803TIP3    H174900   4.152   1.003  16.991 -0.3982  1.1657  0.9012
17803TIP3    H274901   4.222   0.874  17.027 -0.3093  0.2319 -2.2897
17804TIP3   OH274902   0.024   0.620   3.043  0.0818 -0.3752  0.2257
17804TIP3    H174903   0.079   0.609   3.121  0.7811  0.0009 -0.2071
17804TIP3    H274904   0.006   0.714   3.040  1.0258 -0.1999 -0.6955
17805TIP3   OH274905   1.655   4.790   2.208 -0.0045 -0.2351  0.2875
17805TIP3    H174906   1.589   4.853   2.238 -0.2858 -0.5866  0.4131
17805TIP3    H274907   1.638   4.711   2.260  0.5277 -0.3232  0.3357
17806TIP3   OH274908   6.733   0.950   2.438 -0.6611 -0.0631  0.3347
17806TIP3    H174909   6.816   0.986   2.406 -0.3953 -0.8947  0.0727
17806TIP3    H274910   6.757   0.889   2.507 -0.9632 -1.0457 -0.3928
17807TIP3   OH274911   6.364   6.744   0.980  0.1098 -0.1816 -0.0640
17807TIP3    H174912   6.299   6.727   0.912  0.2052 -2.1946  0.2949
17807TIP3    H274913   6.372   6.662   1.028  0.5693  0.9598  1.9648
17808TIP3   OH274914   5.022   6.013  12.030  0.3541  0.2639  0.8464
17808TIP3    H174915   5.077   5.986  12.104  2.0992  0.4232 -0.3336
17808TIP3    H274916   5.082   6.014  11.955 -1.1864  0.8774 -0.4216
17809TIP3   OH274917   6.169   0.770  14.710 -0.0507  0.0234 -0.6356
17809TIP3    H174918   6.088   0.799  14.670 -0.1246 -1.0414 -1.3282
17809TIP3    H274919   6.159   0.789  14.803 -1.0289  0.0558 -0.7360
17810TIP3   OH274920   3.695   0.553   3.949 -0.0908 -0.0361  0.0223
17810TIP3    H174921   3.709   0.501   4.028  2.1922  0.5587  0.0841
17810TIP3    H274922   3.602   0.573   3.949 -0.3318 -0.9561  1.9784
17811TIP3   OH274923   4.430   0.330  12.800 -0.3115 -0.2537 -0.6156
17811TIP3    H174924   4.444   0.329  12.705  0.5791  2.0737 -0.5550
17811TIP3    H274925   4.517   0.341  12.837 -0.8713  1.2242  0.3466
17812TIP3   OH274926   3.483   6.057  11.038  0.1090 -0.2938  0.3391
17812TIP3    H174927   3.457   6.121  10.972 -0.1978 -0.9780 -0.2038
17812TIP3    H274928   3.540   5.996  10.992 -1.5011 -1.7934  0.2444
17813TIP3   OH274929   0.828   1.944  14.625 -0.0263 -0.8083 -0.4166
17813TIP3    H174930   0.892   1.896  14.677  2.8634  2.5819 -0.4556
17813TIP3    H274931   0.786   2.003  14.688 -1.3822 -1.2883 -0.8388
17814TIP3   OH274932   4.650   6.697  16.027 -0.0430  0.1398  0.2271
17814TIP3    H174933   4.635   6.722  15.936 -3.0919  2.0486  1.1026
17814TIP3    H274934   4.580   6.635  16.047 -0.3092  0.8440  1.6282
17815TIP3   OH274935   3.449   2.992  14.979  0.2825 -0.6881 -0.2779
17815TIP3    H174936   3.457   3.067  15.038  0.2510  1.1116 -2.4365
17815TIP3    H274937   3.394   2.930  15.028 -0.1618  0.9033  1.3747
17816TIP3   OH274938   0.987   3.470   0.047  0.1478 -0.5188 -0.0167
17816TIP3    H174939   1.059   3.483  -0.014  0.6910 -1.1074  0.4981
17816TIP3    H274940   0.991   3.545   0.105  0.5618 -0.7318  0.2279
17817TIP3   OH274941   2.547   5.313  14.109 -0.0184 -0.0349 -0.3192
17817TIP3    H174942   2.544   5.408  14.098  2.1626  0.0326 -0.6769
17817TIP3    H274943   2.544   5.278  14.020  1.2814 -0.1930 -0.3138
17818TIP3   OH274944   0.537   5.839  16.681 -0.2291 -0.1310 -0.5721
17818TIP3    H174945   0.527   5.746  16.700  0.2553 -0.4967 -2.0173
17818TIP3    H274946   0.547   5.880  16.767  0.0916 -1.4664  0.0473
17819TIP3   OH274947   3.285   4.446   5.971 -0.0095 -0.6297 -0.2415
17819TIP3    H174948   3.336   4.487   6.041 -0.9536  1.2272 -0.5842
17819TIP3    H274949   3.327   4.475   5.890  0.4737 -1.9557 -0.4944
17820TIP3   OH274950   5.256   3.858   3.001 -0.2258  0.0546 -0.2564
17820TIP3    H174951   5.211   3.942   2.989 -0.7864 -0.0468  0.9471
17820TIP3    H274952   5.339   3.868   2.954 -1.3861  0.3080 -2.4017
17821TIP3   OH274953   5.717   5.956   0.809  0.4792  0.8597 -0.2723
17821TIP3    H174954   5.700   5.931   0.718  0.2824 -1.4218  0.3289
17821TIP3    H274955   5.698   6.049   0.812 -1.9350  0.5092 -2.0183
17822TIP3   OH274956   0.962   5.261  14.798 -0.2666  0.2431  0.6614
17822TIP3    H174957   0.917   5.240  14.717 -2.6442  0.4974  1.8405
17822TIP3    H274958   0.932   5.349  14.821  0.2374  0.1232  1.8994
17823TIP3   OH274959   2.089   6.525  11.605  0.0259  0.0897  0.3074
17823TIP3    H174960   2.030   6.455  11.578  0.2485 -0.1060  0.3256
17823TIP3    H274961   2.031   6.599  11.624 -0.1662  0.0974 -0.2883
17824TIP3   OH274962   5.800   0.169   5.028 -0.1230  0.1902 -0.0113
17824TIP3    H174963   5.868   0.127   4.975 -1.3256 -1.3765 -0.3829
17824TIP3    H274964   5.756   0.229   4.968  0.3727  0.5877  0.0124
17825TIP3   OH274965   0.581   2.180  15.081  0.7088  0.6317 -0.1823
17825TIP3    H174966   0.500   2.134  15.103 -0.9022  2.4482 -1.8296
17825TIP3    H274967   0.621   2.126  15.012  0.1855  0.4020 -0.3092
17826TIP3   OH274968   3.454   2.983   2.225 -0.1732  0.1658 -0.3512
17826TIP3    H174969   3.478   2.985   2.318 -0.1198  2.2646 -0.3560
17826TIP3    H274970   3.419   2.895   2.211 -1.7022  0.3049  2.0580
17827TIP3   OH274971   0.099   4.918   0.020  0.3429 -0.1005 -0.0544
17827TIP3    H174972   0.141   4.956  -0.058  1.0997  1.5460  1.1005
17827TIP3    H274973   0.035   4.984   0.046  1.5935  0.3875  1.9444
17828TIP3   OH274974   3.769   1.882  11.325 -0.6170  0.1898 -0.0917
17828TIP3    H174975   3.729   1.951  11.272 -1.7240  0.0198  0.4898
17828TIP3    H274976   3.827   1.929  11.386  2.1440  0.2797 -2.5577
17829TIP3   OH274977   6.157   6.055  12.981  0.0397 -0.1225 -0.2469
17829TIP3    H174978   6.190   5.965  12.988 -0.9693 -0.5669 -1.0244
17829TIP3    H274979   6.064   6.045  12.966 -0.6124  1.1113  2.3373
17830TIP3   OH274980   2.966   5.864  12.750  0.7123 -0.2687 -0.5057
17830TIP3    H174981   3.032   5.927  12.779  1.3521 -0.7123 -0.9918
17830TIP3    H274982   3.001   5.779  12.774 -0.4923 -0.4319  0.8298
17831TIP3   OH274983   3.439   3.406   2.869  0.3471 -0.1262  0.3719
17831TIP3    H174984   3.370   3.429   2.806  0.2155 -0.3216  0.4434
17831TIP3    H274985   3.429   3.470   2.939  0.6074  0.2005  0.1087
17832TIP3   OH274986   1.068   3.712   0.653  0.4586 -0.8056 -0.7883
17832TIP3    H174987   1.116   3.781   0.700 -1.0384 -0.1949 -0.0891
17832TIP3    H274988   1.028   3.661   0.723  0.4708 -1.5903 -1.3536
17833TIP3   OH274989   6.740   4.650   6.311 -0.6301  0.0801 -0.4977
17833TIP3    H174990   6.708   4.587   6.245 -0.7606  1.0179 -1.3599
17833TIP3    H274991   6.768   4.726   6.260 -0.9070  0.9134  0.5514
17834TIP3   OH274992   2.770   2.126  14.573 -0.5136 -0.3875 -0.1766
17834TIP3    H174993   2.829   2.201  14.561 -0.3591 -0.3010  0.9969
17834TIP3    H274994   2.683   2.163  14.560 -0.3543 -0.4618 -1.6647
17835TIP3   OH274995   3.999   0.445   1.784  0.1168 -0.0097 -0.0113
17835TIP3    H174996   3.911   0.420   1.813  0.1245  0.3218  0.3050
17835TIP3    H274997   4.026   0.375   1.725 -0.1884 -0.3337  0.2316
17836TIP3   OH274998   5.348   0.744   3.809 -0.2569  0.2174  0.1415
17836TIP3    H174999   5.271   0.752   3.752  0.8772 -0.9293 -1.6899
17836TIP3    H275000   5.409   0.811   3.777  0.3378 -0.3346  0.0908
17837TIP3   OH275001   5.332   5.939  12.832 -0.0763  0.3977 -0.4216
17837TIP3    H175002   5.366   5.966  12.747  0.9183  1.8375  0.4021
17837TIP3    H275003   5.402   5.886  12.870 -0.4454 -0.0937 -0.4125
17838TIP3   OH275004   2.896   1.598   2.697  0.1586  0.3733 -0.1352
17838TIP3    H175005   2.989   1.575   2.699  0.0335 -0.1537 -0.1833
17838TIP3    H275006   2.892   1.686   2.734  0.3977 -0.5155  2.1590
17839TIP3   OH275007   5.037   0.648   4.799 -0.1494 -0.3824  0.7821
17839TIP3    H175008   5.071   0.728   4.839 -2.7251  1.6758 -0.7550
17839TIP3    H275009   4.960   0.677   4.750 -0.6365 -3.6873 -0.6977
17840TIP3   OH275010   3.406   3.668   4.960  0.6981  0.2612 -0.3904
17840TIP3    H175011   3.376   3.587   4.919  1.3358 -0.2909  0.1963
17840TIP3    H275012   3.345   3.735   4.930  0.4121 -0.3597 -1.2245
17841TIP3   OH275013   3.574   0.780  11.252  0.7387 -0.4862 -0.5389
17841TIP3    H175014   3.480   0.765  11.243  0.2441  1.7789  0.0849
17841TIP3    H275015   3.606   0.787  11.162 -0.2725  1.5085 -0.8042
17842TIP3   OH275016   5.698   0.545  16.133 -0.0833 -0.4912  0.1573
17842TIP3    H175017   5.694   0.473  16.071  0.5500 -1.1788  0.8895
17842TIP3    H275018   5.703   0.624  16.078 -2.4419 -0.8319 -0.6649
17843TIP3   OH275019   4.101   5.467  13.687  0.1960  0.3891  0.2273
17843TIP3    H175020   4.061   5.465  13.774  1.4311 -0.5618  0.7988
17843TIP3    H275021   4.161   5.392  13.686 -0.4454 -0.1591 -1.7659
17844TIP3   OH275022   1.098   3.737   4.354  0.9471 -0.3722  0.7724
17844TIP3    H175023   1.080   3.702   4.441 -0.7705 -2.3271 -0.2721
17844TIP3    H275024   1.014   3.731   4.308  1.9577 -0.0458 -1.2376
17845TIP3   OH275025   3.914   0.788   0.512  0.3232 -0.0515 -0.1551
17845TIP3    H175026   3.940   0.880   0.510  0.5185 -0.0929  0.2929
17845TIP3    H275027   3.993   0.741   0.540  0.6462 -0.5203 -1.7140
17846TIP3   OH275028   6.637   1.136   0.280 -1.6036  0.1617 -0.2672
17846TIP3    H175029   6.550   1.100   0.265 -0.3301 -3.0802 -0.6200
17846TIP3    H275030   6.694   1.060   0.286  1.2753  2.1556 -0.2260
17847TIP3   OH275031   1.686   3.139  13.470 -0.3954  0.1688  0.1984
17847TIP3    H175032   1.621   3.073  13.448  0.9469 -1.2682  0.3959
17847TIP3    H275033   1.760   3.090  13.506  0.4231  1.8247  0.9149
17848TIP3   OH275034   0.249   2.303  13.600  0.0493  0.3763  0.5196
17848TIP3    H175035   0.209   2.390  13.604  0.1030  0.5923 -2.0708
17848TIP3    H275036   0.341   2.319  13.580 -0.0040 -0.2655 -0.3061
17849TIP3   OH275037   1.648   5.313   1.990 -0.2247 -0.1446  0.1557
17849TIP3    H175038   1.687   5.400   1.998 -0.5257  0.4854 -3.5768
17849TIP3    H275039   1.554   5.329   1.989 -0.2774 -0.4561 -0.7162
17850TIP3   OH275040   5.696   4.385   5.427  0.4224 -0.4300 -0.7015
17850TIP3    H175041   5.683   4.432   5.345 -1.4592  0.0222 -0.1988
17850TIP3    H275042   5.611   4.345   5.445  1.1222 -1.4635  0.4552
17851TIP3   OH275043   3.488   2.780  13.001  0.2198  0.8296 -0.0244
17851TIP3    H175044   3.565   2.724  12.998  0.4237  1.0251  1.1111
17851TIP3    H275045   3.515   2.857  13.050 -0.6030  1.0597  0.0952
17852TIP3   OH275046   2.268   1.668  13.263 -0.4724 -0.1981  0.1376
17852TIP3    H175047   2.306   1.683  13.176 -0.6820  0.2605  0.1209
17852TIP3    H275048   2.196   1.732  13.268 -0.6391 -0.4188  0.5353
17853TIP3   OH275049   2.368   1.791  13.874 -0.3457 -0.6187 -0.0744
17853TIP3    H175050   2.331   1.854  13.813 -2.4463 -1.2950  0.4214
17853TIP3    H275051   2.345   1.823  13.961 -0.7202 -1.6173  0.2139
17854TIP3   OH275052   1.768   1.256   0.420  0.3798  0.2671  0.3910
17854TIP3    H175053   1.693   1.208   0.384 -1.0206  2.1032  0.7285
17854TIP3    H275054   1.773   1.226   0.512  1.2001 -1.1361 -0.0712
17855TIP3   OH275055   3.758   6.338  10.937  0.3799  0.3625  0.1230
17855TIP3    H175056   3.706   6.312  10.861  2.4802  0.8593 -1.5889
17855TIP3    H275057   3.739   6.431  10.949 -1.1641 -0.0599  1.2831
17856TIP3   OH275058   1.015   5.033   6.491 -0.1219 -0.1179  0.6712
17856TIP3    H175059   1.101   4.995   6.503 -0.2898 -0.9721 -0.5911
17856TIP3    H275060   0.959   4.987   6.554 -0.1832 -1.5775 -0.3743
17857TIP3   OH275061   0.569   3.276  14.990  0.3920 -0.4471  0.6979
17857TIP3    H175062   0.511   3.345  14.955  0.0772 -0.3601  1.3687
17857TIP3    H275063   0.528   3.194  14.962  0.8234 -0.3677 -0.1911
17858TIP3   OH275064   4.134   3.964   4.544  0.5667  0.0278  0.0401
17858TIP3    H175065   4.198   4.029   4.516  3.7373 -3.5160 -1.8006
17858TIP3    H275066   4.174   3.922   4.620 -1.9569  0.8385  1.9488
17859TIP3   OH275067   2.855   6.377   5.144  0.0561 -0.4274 -0.0897
17859TIP3    H175068   2.851   6.470   5.165  1.4065 -0.4034  0.1828
17859TIP3    H275069   2.764   6.351   5.129 -0.2399  1.2051 -1.3742
17860TIP3   OH275070   3.312   5.180   2.563  0.1394 -0.5675 -0.1436
17860TIP3    H175071   3.357   5.252   2.520 -2.0063  0.3839 -0.9424
17860TIP3    H275072   3.277   5.127   2.492 -1.6536 -0.1509  0.3691
17861TIP3   OH275073   5.392   3.904   5.115 -0.6553  0.3038 -0.3676
17861TIP3    H175074   5.318   3.843   5.120  0.0449 -0.5231  0.4398
17861TIP3    H275075   5.469   3.847   5.106 -0.1191  1.1469 -1.3494
17862TIP3   OH275076   6.809   1.550  13.788  0.2199  0.2104 -0.4723
17862TIP3    H175077   6.862   1.605  13.731 -0.0510  0.4439 -0.5014
17862TIP3    H275078   6.753   1.501  13.729 -0.6467  1.0593 -0.3797
17863TIP3   OH275079   6.099   2.213  13.012  0.5333 -0.0979 -0.6858
17863TIP3    H175080   6.011   2.187  12.985  0.7292 -1.1830 -0.3263
17863TIP3    H275081   6.087   2.296  13.057 -0.2627 -0.0636 -0.9465
17864TIP3   OH275082   3.183   3.704  16.152 -0.1999 -0.0222  0.3476
17864TIP3    H175083   3.120   3.746  16.211 -1.6504 -2.3289  0.5604
17864TIP3    H275084   3.227   3.777  16.109 -2.0178  1.7222  1.2457
17865TIP3   OH275085   0.270   4.827  13.908  0.1351  0.6906  0.6017
17865TIP3    H175086   0.288   4.809  13.816 -0.8168  2.4838  0.0125
17865TIP3    H275087   0.200   4.766  13.932  0.3391  0.2661  0.1212
17866TIP3   OH275088   4.154   5.355  13.270  0.1076 -0.2937 -0.6013
17866TIP3    H175089   4.103   5.428  13.305  0.2018 -0.3103 -0.4300
17866TIP3    H275090   4.217   5.396  13.210  0.2621 -0.2193 -0.3888
17867TIP3   OH275091   3.294   4.669  12.509  0.2013 -0.0642  0.4100
17867TIP3    H175092   3.229   4.610  12.471  0.2861  0.6344 -0.8806
17867TIP3    H275093   3.243   4.741  12.546  0.1274 -0.6747  1.5405
17868TIP3   OH275094   0.153   1.502   2.444  0.1093  0.0797 -0.4377
17868TIP3    H175095   0.124   1.455   2.366  0.6543  0.8046 -1.0956
17868TIP3    H275096   0.184   1.586   2.411  0.8366  0.1960  0.5072
17869TIP3   OH275097   3.689   1.991  14.744 -0.2485  0.3946 -0.2158
17869TIP3    H175098   3.774   1.967  14.781 -0.4771 -0.1811 -0.0469
17869TIP3    H275099   3.625   1.957  14.808 -0.5839  1.7433  0.1954
17870TIP3   OH275100   0.412   2.550   2.969 -0.0162  0.0542  0.0500
17870TIP3    H175101   0.319   2.567   2.954  0.3732  3.3052  0.4868
17870TIP3    H275102   0.426   2.571   3.061  0.7406 -3.1358  0.7900
17871TIP3   OH275103   4.916   1.475   1.104 -0.5565 -0.2718 -0.0063
17871TIP3    H175104   4.911   1.567   1.130 -0.1869  0.4362 -2.1695
17871TIP3    H275105   4.859   1.429   1.165 -0.3734  1.3186  1.4307
17872TIP3   OH275106   0.688   4.338   4.342 -0.0905  0.1168 -0.7039
17872TIP3    H175107   0.669   4.372   4.430  2.7520  0.6789 -0.1830
17872TIP3    H275108   0.763   4.390   4.312  1.0673 -2.1587 -2.1057
17873TIP3   OH275109   1.604   6.115   1.479 -0.2352 -0.4064 -0.3595
17873TIP3    H175110   1.571   6.026   1.491  0.5677 -0.4687  1.8675
17873TIP3    H275111   1.572   6.164   1.555 -1.7554  1.6149 -2.1806
17874TIP3   OH275112   2.323   5.010  16.988  0.4787 -0.0373 -0.9332
17874TIP3    H175113   2.301   5.015  17.081 -1.2251  1.6195 -1.3606
17874TIP3    H275114   2.417   5.028  16.984  0.1730  2.2550  0.3552
17875TIP3   OH275115   1.298   0.415  15.723  0.3411 -0.0637 -0.3343
17875TIP3    H175116   1.323   0.338  15.671  0.8968  0.7157 -1.2570
17875TIP3    H275117   1.215   0.444  15.684 -0.4269 -0.7993  0.7003
17876TIP3   OH275118   0.311   5.749   1.846  0.1991 -0.7551  0.3880
17876TIP3    H175119   0.312   5.674   1.787 -1.0991 -0.5057  0.0189
17876TIP3    H275120   0.357   5.719   1.924 -0.9133 -2.1685  0.5329
17877TIP3   OH275121   5.204   6.712   5.692  0.1140 -0.2424 -0.0389
17877TIP3    H175122   5.272   6.730   5.627 -0.5487 -1.7674 -1.2108
17877TIP3    H275123   5.244   6.649   5.752  0.3460  0.3202  0.4169
17878TIP3   OH275124   5.358   3.888   1.883 -0.1360  0.5445  0.9306
17878TIP3    H175125   5.349   3.983   1.871 -1.8146  0.2311 -0.6023
17878TIP3    H275126   5.410   3.880   1.963  0.6673  2.7511  0.7211
17879TIP3   OH275127   4.954   2.152  17.279  0.5554  0.3174  0.2561
17879TIP3    H175128   4.910   2.198  17.351  0.5423 -0.3929  0.7229
17879TIP3    H275129   5.016   2.094  17.323  0.5362 -0.1381 -0.3050
17880TIP3   OH275130   4.104   3.074  11.871  0.1004  0.2803 -0.4038
17880TIP3    H175131   4.112   2.981  11.894  0.2081  0.2712 -0.4749
17880TIP3    H275132   4.107   3.074  11.775 -1.3273  0.2207 -0.4707
17881TIP3   OH275133   3.347   1.159   5.518  0.5331  0.2442 -0.2221
17881TIP3    H175134   3.431   1.172   5.473  1.4028 -1.2794  0.8605
17881TIP3    H275135   3.310   1.081   5.477 -0.0403  0.5138 -0.2259
17882TIP3   OH275136   1.563   3.192  14.190 -0.0141 -0.6601  0.1048
17882TIP3    H175137   1.610   3.272  14.215 -2.2674  1.1398 -1.0068
17882TIP3    H275138   1.632   3.126  14.180  1.9371  1.0754  1.1745
17883TIP3   OH275139   4.337   1.221   3.999  1.0291  0.1439 -0.0888
17883TIP3    H175140   4.368   1.229   3.909 -0.9599  1.2547 -0.7441
17883TIP3    H275141   4.284   1.300   4.013 -0.1205 -0.8471  1.4592
17884TIP3   OH275142   1.407   4.178   0.099  0.2210 -0.2418 -0.2427
17884TIP3    H175143   1.351   4.243   0.140 -1.1062 -1.0587 -0.6896
17884TIP3    H275144   1.492   4.221   0.090 -0.9767  1.9388 -1.8667
17885TIP3   OH275145   0.914   2.453   5.955 -0.1914 -0.3900  0.4475
17885TIP3    H175146   0.900   2.391   6.026  0.1290 -0.3375  0.5561
17885TIP3    H275147   0.873   2.534   5.986 -3.3118 -1.3010 -0.9017
17886TIP3   OH275148   6.383   1.722   5.161  0.2046 -0.0204  0.0401
17886TIP3    H175149   6.421   1.714   5.248  0.4193 -0.5848 -0.0999
17886TIP3    H275150   6.323   1.647   5.154  1.3656 -0.9133 -0.8686
17887TIP3   OH275151   1.052   3.688   4.053  0.4208  0.1903  0.1495
17887TIP3    H175152   0.977   3.663   4.000  0.7328  1.6522 -1.0620
17887TIP3    H275153   1.025   3.674   4.144 -1.5460  1.2492 -0.2243
17888TIP3   OH275154   0.988   2.401  11.017  0.0909 -0.1734 -0.2041
17888TIP3    H175155   0.925   2.391  10.946 -1.0191 -0.0043  0.7171
17888TIP3    H275156   1.058   2.339  10.997 -0.4478 -0.4766 -1.1802
17889TIP3   OH275157   5.115   6.791   3.433 -0.3522 -0.2459 -0.4457
17889TIP3    H175158   5.210   6.779   3.438 -0.5034 -1.3274 -0.0210
17889TIP3    H275159   5.102   6.885   3.450  0.6126 -0.1528 -0.1787
17890TIP3   OH275160   0.146   1.642  11.687  0.3055  0.7113  0.3137
17890TIP3    H175161   0.108   1.577  11.629 -1.1191  0.9938  0.8988
17890TIP3    H275162   0.072   1.695  11.717  1.0635  0.9209  1.9550
17891TIP3   OH275163   3.252   5.870   4.896  0.5914  0.5164  0.3936
17891TIP3    H175164   3.220   5.854   4.985  0.1454 -1.6150 -0.0892
17891TIP3    H275165   3.177   5.852   4.840  1.2273  0.5467 -0.4951
17892TIP3   OH275166   5.962   1.171   0.169  0.3497 -0.0392  0.5377
17892TIP3    H175167   5.999   1.217   0.094 -3.1280  0.2219 -1.1868
17892TIP3    H275168   5.992   1.080   0.159  2.6933  0.6305  0.8526
17893TIP3   OH275169   0.564   5.927  12.178 -0.1212 -0.1961  0.5809
17893TIP3    H175170   0.609   5.921  12.262  0.9281  0.3273  0.0787
17893TIP3    H275171   0.534   6.018  12.173  1.5403  0.3362 -0.4310
17894TIP3   OH275172   2.370   2.659  14.406 -0.2863  0.0524  0.0394
17894TIP3    H175173   2.287   2.619  14.431 -0.7512 -0.4473 -2.0935
17894TIP3    H275174   2.353   2.753  14.410 -0.5365 -0.0215  0.8673
17895TIP3   OH275175   5.876   0.773   6.496  0.1111 -0.0570 -0.2548
17895TIP3    H175176   5.829   0.747   6.575 -1.1872  2.0449 -0.2630
17895TIP3    H275177   5.907   0.691   6.458  1.1666 -1.1038  2.6357
17896TIP3   OH275178   2.052   5.189  10.389 -0.4279 -0.4046  0.0981
17896TIP3    H175179   1.986   5.251  10.418 -0.3617 -0.2208 -0.1378
17896TIP3    H275180   2.092   5.231  10.313 -0.6442 -0.9002 -0.2976
17897TIP3   OH275181   3.041   2.694  16.273 -0.1712  0.1723 -0.2096
17897TIP3    H175182   3.015   2.607  16.244 -1.3915  0.9271 -1.5376
17897TIP3    H275183   3.092   2.729  16.200 -1.6588  1.3973 -0.7222
17898TIP3   OH275184   1.591   0.722   2.423  0.2045 -0.4511  0.1453
17898TIP3    H175185   1.503   0.697   2.395 -0.6866  0.6581  1.7580
17898TIP3    H275186   1.610   0.801   2.373 -0.8749  0.8286  1.6485
17899TIP3   OH275187   5.582   2.390  15.574 -0.2636  0.0755  0.5030
17899TIP3    H175188   5.611   2.423  15.489  1.1977 -0.6020  0.6982
17899TIP3    H275189   5.664   2.365  15.619 -0.8715  1.5528  2.5991
17900TIP3   OH275190   0.641   6.728   0.113  0.0196 -0.0021  0.1961
17900TIP3    H175191   0.688   6.658   0.158 -0.9186 -1.1736 -0.5786
17900TIP3    H275192   0.631   6.797   0.179 -0.3499 -1.2077  1.4516
17901TIP3   OH275193   2.931   1.330   5.538  0.0790  0.1360  0.3568
17901TIP3    H175194   2.976   1.277   5.472 -0.5233  0.5026 -0.3647
17901TIP3    H275195   3.001   1.367   5.591  0.5818 -0.0868 -0.1405
17902TIP3   OH275196   3.858   0.652  11.381 -0.0614  0.1473  0.2146
17902TIP3    H175197   3.863   0.738  11.423  0.9110  0.4870 -0.5770
17902TIP3    H275198   3.930   0.602  11.419  0.6405  0.3603 -0.8032
17903TIP3   OH275199   0.709   1.971   4.133  0.2464 -0.1748 -0.0619
17903TIP3    H175200   0.708   2.033   4.205  1.7930  2.2695 -1.9795
17903TIP3    H275201   0.779   1.910   4.154  0.9319  0.7411  0.3672
17904TIP3   OH275202   6.388   3.526  13.012 -0.0879  0.7383  0.0632
17904TIP3    H175203   6.339   3.470  13.071  1.5961 -1.4241 -0.4549
17904TIP3    H275204   6.323   3.562  12.952 -1.4219  0.6219  1.4036
17905TIP3   OH275205   6.806   6.087  11.953  0.0835  0.2964  0.7213
17905TIP3    H175206   6.748   6.145  12.003 -0.4344 -1.1607  1.8830
17905TIP3    H275207   6.809   6.126  11.865 -0.6343  1.7894  1.3244
17906TIP3   OH275208   0.482   4.575  15.422 -0.1332 -0.0889 -0.4161
17906TIP3    H175209   0.481   4.628  15.502 -0.8420  0.1785 -0.5942
17906TIP3    H275210   0.573   4.579  15.392  0.3409 -0.9249  0.8416
17907TIP3   OH275211   0.302   1.977  11.619 -0.5817  0.2858 -0.2240
17907TIP3    H175212   0.393   1.999  11.595 -0.7607 -0.1527 -1.3524
17907TIP3    H275213   0.308   1.887  11.652 -0.6752  0.0381 -0.8539
17908TIP3   OH275214   5.138   5.971  11.769  0.8160 -0.5131 -0.5696
17908TIP3    H175215   5.221   6.002  11.734  1.6413 -1.4041  0.4995
17908TIP3    H275216   5.114   5.898  11.712  0.4210  0.1463 -1.2636
17909TIP3   OH275217   0.804   4.573  11.820 -0.1649 -0.6229  0.3543
17909TIP3    H175218   0.710   4.556  11.813 -0.3125  0.2556  0.0461
17909TIP3    H275219   0.820   4.642  11.756  0.1608  1.2695  2.3636
17910TIP3   OH275220   1.574   6.108   1.205  0.1472 -0.2692  0.2239
17910TIP3    H175221   1.583   6.105   1.300  0.6178  0.1243  0.1987
17910TIP3    H275222   1.567   6.017   1.178  0.6613 -0.4219  0.5826
17911TIP3   OH275223   0.911   4.796   0.476 -0.3507 -0.2196  0.6731
17911TIP3    H175224   0.844   4.732   0.501 -0.4968  0.1636  1.2776
17911TIP3    H275225   0.952   4.758   0.398 -0.8638 -0.7445  0.6515
17912TIP3   OH275226   6.440   6.256   5.191  0.4014  0.3519  0.2351
17912TIP3    H175227   6.518   6.291   5.234  0.8922  1.2321 -1.3111
17912TIP3    H275228   6.382   6.331   5.181 -0.9761 -0.3939  1.9129
17913TIP3   OH275229   5.814   4.622  11.164 -0.1098  0.5288 -0.4261
17913TIP3    H175230   5.739   4.658  11.211 -0.7837 -0.2175 -0.9095
17913TIP3    H275231   5.805   4.657  11.075  0.0226  0.2954 -0.5300
17914TIP3   OH275232   3.353   1.388   5.027  0.6538 -0.6382 -0.4809
17914TIP3    H175233   3.315   1.434   4.952 -1.2872  0.0554  0.8369
17914TIP3    H275234   3.445   1.374   5.004  0.3630  0.5192 -2.5060
17915TIP3   OH275235   5.155   4.291  13.861  0.4185 -0.2575  0.0697
17915TIP3    H175236   5.139   4.385  13.874 -0.3841 -0.3893  0.0873
17915TIP3    H275237   5.246   4.286  13.831  0.3604  0.5552 -0.2739
17916TIP3   OH275238   0.738   4.096  17.226  0.1520 -0.0926  0.0397
17916TIP3    H175239   0.773   4.045  17.299  0.3940 -1.5257 -1.0193
17916TIP3    H275240   0.800   4.081  17.155  0.5220  2.1756 -0.1817
17917TIP3   OH275241   6.514   5.610  12.107  0.5955  0.6736 -0.6563
17917TIP3    H175242   6.539   5.624  12.198 -0.1565 -1.3008 -0.0926
17917TIP3    H275243   6.418   5.610  12.108  0.4594 -2.9608 -0.7092
17918TIP3   OH275244   2.181   0.168   0.624  0.2397 -0.1161  0.5526
17918TIP3    H175245   2.228   0.251   0.628  1.0585 -0.5090 -0.5660
17918TIP3    H275246   2.185   0.133   0.714  1.4676  0.1950  0.6269
17919TIP3   OH275247   2.839   3.136  16.318 -0.3553  0.5130 -0.4349
17919TIP3    H175248   2.905   3.136  16.249 -1.6927 -0.5875 -1.7639
17919TIP3    H275249   2.772   3.198  16.289 -0.5109  0.7180  0.3158
17920TIP3   OH275250   3.017   5.498  14.356 -0.1414 -0.2298  0.1762
17920TIP3    H175251   2.968   5.420  14.331  1.3947 -1.6162  1.2569
17920TIP3    H275252   2.974   5.570  14.310 -2.6931 -1.4483  0.4871
17921TIP3   OH275253   6.243   0.381  13.884 -0.0059  0.0145  0.5656
17921TIP3    H175254   6.326   0.352  13.922  1.2342  4.4824  1.8528
17921TIP3    H275255   6.177   0.357  13.949  0.5000 -1.6691  0.5230
17922TIP3   OH275256   3.810   2.838   1.721 -0.4295  0.2101  0.0684
17922TIP3    H175257   3.836   2.918   1.767 -0.3468  0.5667 -0.5957
17922TIP3    H275258   3.854   2.842   1.636 -1.3613  0.0407 -0.4410
17923TIP3   OH275259   2.758   5.859   2.980 -0.4059  0.2660  0.5337
17923TIP3    H175260   2.818   5.920   3.021  0.0010  0.4551 -0.3135
17923TIP3    H275261   2.671   5.886   3.011 -0.2281  1.2338  0.2299
17924TIP3   OH275262   3.652   3.704   5.122  0.0182 -0.1098  0.2246
17924TIP3    H175263   3.587   3.733   5.059 -1.3808 -1.6150  0.8962
17924TIP3    H275264   3.601   3.664   5.192  1.6435 -0.7148  1.1204
17925TIP3   OH275265   2.106   1.541  13.567 -0.4442 -0.1317 -0.3631
17925TIP3    H175266   2.024   1.495  13.548 -0.1089 -0.9630  0.1519
17925TIP3    H275267   2.115   1.536  13.662  0.6712 -0.8949 -0.4941
17926TIP3   OH275268   5.549   1.860  11.651  0.1824 -0.1186 -0.5128
17926TIP3    H175269   5.456   1.861  11.630 -0.1589  0.0548  0.9088
17926TIP3    H275270   5.555   1.809  11.732  1.1488  0.9450  0.1213
17927TIP3   OH275271   0.724   1.125   1.346 -0.2933  0.3473 -0.3824
17927TIP3    H175272   0.678   1.054   1.299  0.9189 -0.3471 -0.5745
17927TIP3    H275273   0.734   1.194   1.280  0.6118 -0.2694 -0.9186
17928TIP3   OH275274   1.731   4.630  16.811 -1.0815 -0.3262 -0.4366
17928TIP3    H175275   1.788   4.705  16.830 -1.8750  0.0270  0.6372
17928TIP3    H275276   1.790   4.564  16.774 -0.5549  1.2316 -2.6050
17929TIP3   OH275277   1.729   0.445   0.573  0.4235  0.4376 -0.0869
17929TIP3    H175278   1.678   0.406   0.644 -0.5546 -0.6640 -1.3640
17929TIP3    H275279   1.819   0.446   0.606 -0.1405  0.8182  1.5218
17930TIP3   OH275280   4.172   3.453  14.055 -0.1740 -0.2727  0.4359
17930TIP3    H175281   4.076   3.455  14.045 -0.1066  0.8513 -0.1201
17930TIP3    H275282   4.193   3.360  14.062 -1.2868 -0.5496  0.3316
17931TIP3   OH275283   0.477   0.010  16.957 -0.0493  0.6287  0.0219
17931TIP3    H175284   0.527   0.012  16.875 -0.7924  0.8659 -0.4393
17931TIP3    H275285   0.406   0.073  16.943 -1.2744 -0.6832  0.1272
17932TIP3   OH275286   3.673   3.257  11.391 -0.4059  0.2841 -0.2995
17932TIP3    H175287   3.628   3.328  11.344 -0.7444  0.0350 -0.3595
17932TIP3    H275288   3.756   3.295  11.418 -0.8283  0.8836  0.1818
17933TIP3   OH275289   4.538   0.675  10.584 -0.2659 -0.5885 -0.9842
17933TIP3    H175290   4.476   0.666  10.656  0.6106 -1.5536 -0.3035
17933TIP3    H275291   4.592   0.596  10.590  1.8788  0.8079 -0.7096
17934TIP3   OH275292   0.211   6.691  16.601 -0.1693  0.0481 -0.6151
17934TIP3    H175293   0.248   6.778  16.613  0.9235  0.0351 -3.0488
17934TIP3    H275294   0.226   6.646  16.684 -2.2697  2.5969  1.3102
17935TIP3   OH275295   0.275   4.384   1.777 -0.3734  0.2662  0.1674
17935TIP3    H175296   0.318   4.372   1.862 -0.2558 -2.0352 -0.1524
17935TIP3    H275297   0.191   4.425   1.799  0.3907  1.3856  1.1696
17936TIP3   OH275298   2.438   5.470   1.761 -1.2502  0.1048  0.7069
17936TIP3    H175299   2.501   5.515   1.704 -0.3796 -1.1012  0.6794
17936TIP3    H275300   2.416   5.535   1.828 -0.9604  0.9660 -0.0030
17937TIP3   OH275301   6.796   1.942   2.359 -0.5427  0.2149 -0.1831
17937TIP3    H175302   6.730   2.001   2.324  0.8687  1.7549 -0.4063
17937TIP3    H275303   6.761   1.914   2.444 -1.1644  1.5710  0.0337
17938TIP3   OH275304   2.389   1.046   2.581  0.5329 -0.4805  0.5004
17938TIP3    H175305   2.324   1.047   2.652  0.3492  0.1756  0.3289
17938TIP3    H275306   2.431   1.132   2.585  0.4118 -0.3744 -0.2847
17939TIP3   OH275307   6.824   2.216  16.209  0.0295 -0.3909 -0.2086
17939TIP3    H175308   6.827   2.267  16.128 -0.7096 -2.1058 -1.3764
17939TIP3    H275309   6.761   2.263  16.264  0.0474  0.4441 -0.8663
17940TIP3   OH275310   1.668   1.558  13.595 -0.0970  0.0808 -0.4575
17940TIP3    H175311   1.620   1.591  13.519  1.9322 -1.2902 -2.4845
17940TIP3    H275312   1.722   1.632  13.623 -0.5035  0.4587 -0.6608
17941TIP3   OH275313   3.884   5.943   2.709 -0.0526 -0.2788  0.5176
17941TIP3    H175314   3.926   5.934   2.623 -2.2522 -0.5052 -0.6354
17941TIP3    H275315   3.928   6.016   2.751  1.2458 -0.3258 -0.7123
17942TIP3   OH275316   3.261   4.850   3.182  0.6225  0.1295  0.0756
17942TIP3    H175317   3.285   4.790   3.112 -0.8116 -2.1349  1.3924
17942TIP3    H275318   3.205   4.915   3.140  1.9348  0.4189 -1.3234
17943TIP3   OH275319   2.749   2.663   0.558 -0.0736  0.4011  0.4250
17943TIP3    H175320   2.803   2.713   0.495 -1.0554 -0.2343 -0.9814
17943TIP3    H275321   2.805   2.590   0.584  0.1781  0.3949 -0.1111
17944TIP3   OH275322   4.889   3.303  13.839 -0.1959  0.6079  0.0895
17944TIP3    H175323   4.918   3.229  13.892 -1.2526 -0.8316 -1.2675
17944TIP3    H275324   4.971   3.344  13.809  0.4176 -0.4259  0.2940
17945TIP3   OH275325   3.652   5.673   0.190 -0.1836 -0.1395 -0.0890
17945TIP3    H175326   3.702   5.718   0.122  0.2618 -1.9326 -0.9952
17945TIP3    H275327   3.716   5.654   0.258 -0.6084  1.5597  0.8473
17946TIP3   OH275328   2.787   4.703  16.252  0.6132 -0.4249  0.4037
17946TIP3    H175329   2.837   4.669  16.326  1.5262 -1.2501 -0.5629
17946TIP3    H275330   2.835   4.674  16.174 -0.5427  0.0564 -0.5357
17947TIP3   OH275331   4.837   3.719   4.081 -0.5159 -0.4209 -0.2863
17947TIP3    H175332   4.928   3.695   4.103 -0.0149 -0.1578 -1.9213
17947TIP3    H275333   4.785   3.684   4.153  0.7480 -1.7987  0.0116
17948TIP3   OH275334   2.410   2.395  14.536 -0.4681  0.1001  0.0181
17948TIP3    H175335   2.385   2.391  14.629  2.1232 -0.6775  0.7692
17948TIP3    H275336   2.441   2.484  14.523 -2.8560  0.9016 -0.7757
17949TIP3   OH275337   4.358   0.592  12.838  0.2189  0.4240  0.5987
17949TIP3    H175338   4.266   0.568  12.833  0.4745 -0.3956 -0.2680
17949TIP3    H275339   4.406   0.509  12.838  0.9155  0.7334  2.9351
17950TIP3   OH275340   0.019   5.150   1.334 -0.1804 -0.2818 -0.0510
17950TIP3    H175341   0.098   5.097   1.325  0.0702 -0.0346  0.5742
17950TIP3    H275342   0.046   5.224   1.389 -0.6073  0.3166 -0.6237
17951TIP3   OH275343   0.982   1.096   4.177  0.0103 -0.1664 -0.1979
17951TIP3    H175344   0.939   1.101   4.262  0.5064 -1.3729  0.1366
17951TIP3    H275345   0.910   1.089   4.114 -0.3421  0.2194  0.1540
17952TIP3   OH275346   5.516   1.009  13.085  0.1360 -0.4426  0.2457
17952TIP3    H175347   5.479   0.960  13.012 -0.4742 -0.4365  0.5466
17952TIP3    H275348   5.550   1.090  13.045 -0.4562 -0.3031  0.0065
17953TIP3   OH275349   6.110   3.096  12.306  0.1438  0.6515  0.0613
17953TIP3    H175350   6.203   3.104  12.284  0.4515 -0.8453  0.7644
17953TIP3    H275351   6.067   3.160  12.249  1.6024  1.4275 -0.2096
17954TIP3   OH275352   3.357   3.573   3.058  1.1395  0.1174  0.1588
17954TIP3    H175353   3.391   3.609   3.139  0.0812  2.5581 -0.3853
17954TIP3    H275354   3.270   3.541   3.081  1.3177 -0.3178  0.2336
17955TIP3   OH275355   0.861   3.586   3.879  0.3331  0.7649 -0.6999
17955TIP3    H175356   0.768   3.571   3.894  0.5975  0.7923  1.2086
17955TIP3    H275357   0.865   3.632   3.795 -1.6202  3.5883  0.6210
17956TIP3   OH275358   1.506   2.355   0.916  0.5839 -0.2167 -0.0967
17956TIP3    H175359   1.574   2.314   0.970 -0.0806 -1.6942 -0.3398
17956TIP3    H275360   1.549   2.372   0.833  1.0851  0.3286  0.2631
17957TIP3   OH275361   3.217   3.920   5.378 -0.1769 -0.6772  0.3542
17957TIP3    H175362   3.206   3.838   5.426 -0.6944  0.2815  1.9633
17957TIP3    H275363   3.131   3.962   5.383  0.5362  0.7850  1.2069
17958TIP3   OH275364   0.206   1.242  14.596 -0.0469  0.1966  0.1249
17958TIP3    H175365   0.212   1.177  14.666  1.4152 -1.3583 -1.3359
17958TIP3    H275366   0.284   1.297  14.607  1.2478 -1.2430 -1.3082
17959TIP3   OH275367   0.018   6.764  14.233 -0.0089  0.5976 -0.1299
17959TIP3    H175368   0.090   6.812  14.191  0.7620  0.5472  1.0643
17959TIP3    H275369  -0.031   6.832  14.279  0.4640  0.3988  0.6924
17960TIP3   OH275370   6.353   6.792   1.774  0.2208 -0.5813 -0.2184
17960TIP3    H175371   6.360   6.884   1.749  0.9641 -0.2670  1.0841
17960TIP3    H275372   6.443   6.763   1.784 -0.0257 -1.1523  0.4166
17961TIP3   OH275373   0.880   0.778  15.289 -0.3442 -0.2250  0.2191
17961TIP3    H175374   0.904   0.699  15.241 -2.5463 -1.0647  0.3802
17961TIP3    H275375   0.788   0.764  15.314 -0.1656  1.4816  2.0796
17962TIP3   OH275376   0.937   0.720   2.687  0.3401  0.1938 -0.2521
17962TIP3    H175377   0.843   0.733   2.678  0.3383 -0.8935 -2.4229
17962TIP3    H275378   0.945   0.634   2.730  0.2982 -0.3709 -1.3306
17963TIP3   OH275379   1.443   6.156   4.317  0.5693  0.8846 -0.0722
17963TIP3    H175380   1.372   6.218   4.332 -0.1612 -0.4744  2.5859
17963TIP3    H275381   1.402   6.070   4.326  1.9538 -0.0083 -1.7268
17964TIP3   OH275382   3.081   2.721   1.153  0.5563  0.0097  0.3421
17964TIP3    H175383   3.140   2.762   1.216  2.9395 -1.3167 -0.8906
17964TIP3    H275384   3.049   2.794   1.100 -0.5002  0.9788  2.2014
17965TIP3   OH275385   3.806   5.804   5.607 -0.3574  0.2798  0.5669
17965TIP3    H175386   3.739   5.795   5.540 -0.0315  1.4881  0.0514
17965TIP3    H275387   3.772   5.755   5.682 -1.1780 -0.2562 -0.1395
17966TIP3   OH275388   0.689   3.266  16.323 -0.0071 -0.4750  0.6320
17966TIP3    H175389   0.657   3.310  16.245  1.0399  0.1970  0.5520
17966TIP3    H275390   0.617   3.211  16.352  0.1766 -2.1843 -1.8508
17967TIP3   OH275391   2.730   5.094   4.171 -0.5403  0.1979 -0.2136
17967TIP3    H175392   2.688   5.066   4.252 -1.6131  0.0371 -0.8122
17967TIP3    H275393   2.786   5.168   4.197 -3.2707  2.2595  0.2120
17968TIP3   OH275394   4.358   2.812   0.643 -0.3546 -0.0893 -0.0230
17968TIP3    H175395   4.375   2.840   0.553 -2.4270 -0.3213 -0.5365
17968TIP3    H275396   4.268   2.782   0.642  0.1321 -1.8105  1.7405
17969TIP3   OH275397   1.889   4.147  12.578 -0.1108 -0.6551  0.1885
17969TIP3    H175398   1.868   4.178  12.490 -1.8020 -1.1113  0.3872
17969TIP3    H275399   1.933   4.063  12.564  2.2659  0.6011 -0.2693
17970TIP3   OH275400   4.695   5.997   0.298 -0.2228  0.2047  0.8730
17970TIP3    H175401   4.761   6.066   0.300  0.2147 -0.1926  0.2209
17970TIP3    H275402   4.689   5.968   0.389 -0.5342  1.2107  1.1875
17971TIP3   OH275403   1.480   0.040  16.002  0.0056  0.1784  0.0699
17971TIP3    H175404   1.434   0.108  15.953  1.0822 -0.8450 -2.5095
17971TIP3    H275405   1.413  -0.026  16.020 -0.7156  1.1995  1.3040
17972TIP3   OH275406   5.455   6.485   3.643 -0.0091  0.9202  0.2211
17972TIP3    H175407   5.461   6.403   3.595 -1.4939  0.5917  0.5385
17972TIP3    H275408   5.418   6.547   3.579  1.5345  1.4791 -0.1556
17973TIP3   OH275409   1.810   2.367  10.340 -0.5513  0.1115 -0.3716
17973TIP3    H175410   1.811   2.285  10.291 -0.3015  0.1927 -0.5069
17973TIP3    H275411   1.734   2.360  10.397 -0.1965 -0.4627  0.0429
17974TIP3   OH275412   1.878   6.002   3.660  0.0810 -0.0875 -0.2415
17974TIP3    H175413   1.794   5.971   3.693 -0.7511  1.5629 -0.6907
17974TIP3    H275414   1.877   5.978   3.567  1.0975 -2.0053  0.1883
17975TIP3   OH275415   0.931   4.426  16.024 -0.1843  0.4389  0.2794
17975TIP3    H175416   0.988   4.495  16.058  0.5303  0.7570 -1.4570
17975TIP3    H275417   0.843   4.464  16.027  0.1022  1.1400  0.0861
17976TIP3   OH275418   0.823   2.452   2.384  0.1974 -0.0634 -0.4474
17976TIP3    H175419   0.738   2.470   2.423 -0.4096 -1.2691 -1.1162
17976TIP3    H275420   0.871   2.404   2.451  0.2499  0.3939 -0.1592
17977TIP3   OH275421   6.008   4.198   3.759  0.4820 -0.3127 -0.1956
17977TIP3    H175422   6.073   4.267   3.772  0.4364 -0.2575 -0.2624
17977TIP3    H275423   6.017   4.142   3.836  0.3232 -0.0763 -0.0031
17978TIP3   OH275424   5.877   2.701  16.304  0.9204 -0.4834  0.6413
17978TIP3    H175425   5.884   2.760  16.230 -1.3297 -1.4588 -0.4573
17978TIP3    H275426   5.967   2.681  16.328  1.7039  0.9995 -0.8854
17979TIP3   OH275427   3.388   0.905  13.666 -0.4553 -0.5285 -0.1633
17979TIP3    H175428   3.343   0.976  13.711  0.0598 -0.6736  0.6149
17979TIP3    H275429   3.467   0.946  13.630 -0.2569 -0.6534  0.1191
17980TIP3   OH275430   0.245   0.743  10.611  0.1492 -0.1625  0.4564
17980TIP3    H175431   0.296   0.666  10.585 -0.8819 -0.1878 -1.6636
17980TIP3    H275432   0.295   0.817  10.580 -0.8569 -0.1755 -1.3219
17981TIP3   OH275433   0.090   2.955  16.162  0.3741 -0.5812  0.2760
17981TIP3    H175434   0.175   2.911  16.168  0.7189 -0.4982 -2.6641
17981TIP3    H275435   0.110   3.047  16.181  0.9994 -0.5426 -0.5086
17982TIP3   OH275436   6.692   3.423  14.463  0.5163 -0.8994  0.0753
17982TIP3    H175437   6.616   3.366  14.468 -1.1059  1.1935  0.6042
17982TIP3    H275438   6.746   3.399  14.538 -1.3342 -0.1657  1.7222
17983TIP3   OH275439   1.528   1.515   3.649 -1.0999 -0.3811 -0.5299
17983TIP3    H175440   1.588   1.526   3.575  0.2281 -0.5486  0.4948
17983TIP3    H275441   1.473   1.593   3.647 -0.7064 -0.1111 -1.3499
17984TIP3   OH275442   0.235   3.533   3.231 -0.2809  0.0694  0.5675
17984TIP3    H175443   0.239   3.551   3.325  1.7803 -0.0806  0.5493
17984TIP3    H275444   0.247   3.618   3.189  3.3748 -0.3209  0.5033
17985TIP3   OH275445   0.835   1.694   1.874  0.5286 -0.4553 -0.1133
17985TIP3    H175446   0.823   1.739   1.790 -0.8233 -0.3020  0.1323
17985TIP3    H275447   0.910   1.737   1.914  0.8371 -0.1520 -0.9987
17986TIP3   OH275448   4.479   4.538  13.316  0.2886 -0.4753  0.1112
17986TIP3    H175449   4.385   4.543  13.333  0.3265  2.1265 -0.0800
17986TIP3    H275450   4.495   4.445  13.298 -1.9457 -1.2426  1.6412
17987TIP3   OH275451   6.047   5.812   4.086 -0.1859  0.3627  0.0963
17987TIP3    H175452   5.954   5.789   4.077 -0.1009  0.2039 -0.4325
17987TIP3    H275453   6.054   5.900   4.050 -0.3801  0.9390  1.4457
17988TIP3   OH275454   0.071   3.885  12.565  0.0037  0.1308 -0.2489
17988TIP3    H175455  -0.014   3.922  12.586  0.3958  0.3115  1.0785
17988TIP3    H275456   0.131   3.959  12.566  0.3099 -0.1082 -0.4350
17989TIP3   OH275457   0.467   1.324   1.875 -0.0725 -0.3645 -0.0866
17989TIP3    H175458   0.424   1.409   1.860  0.0659 -0.2383  0.2205
17989TIP3    H275459   0.552   1.333   1.833  0.4512  0.1101  1.0083
17990TIP3   OH275460   1.400   4.017   0.403  0.0758  0.8054  0.2142
17990TIP3    H175461   1.403   3.988   0.312  1.8608  0.3756  0.3763
17990TIP3    H275462   1.306   4.023   0.423 -0.3455  0.5343 -1.5169
17991TIP3   OH275463   6.418   2.078  12.580 -0.6254  0.0650  0.0512
17991TIP3    H175464   6.460   2.145  12.633  0.4003 -0.4047 -0.1330
17991TIP3    H275465   6.479   2.004  12.583 -1.8208 -0.9338  0.4155
17992TIP3   OH275466   2.470   3.512   4.875  0.2659 -0.5718  0.2525
17992TIP3    H175467   2.439   3.460   4.949  0.3944 -0.3811  0.4426
17992TIP3    H275468   2.486   3.448   4.805 -1.0895 -0.6170 -0.0402
17993TIP3   OH275469   4.948   6.771   4.849 -0.3114 -0.0783  0.1838
17993TIP3    H175470   5.018   6.716   4.812 -0.3943  0.8136 -1.3840
17993TIP3    H275471   4.874   6.759   4.790 -1.5758 -1.0957  1.8963
17994TIP3   OH275472   4.388   4.294   0.381  0.3695  0.4131  0.0187
17994TIP3    H175473   4.439   4.279   0.460 -1.0533 -0.6435  0.7737
17994TIP3    H275474   4.305   4.331   0.412 -0.4942 -0.6936 -0.8962
17995TIP3   OH275475   6.047   1.472  12.887 -0.2066 -0.2394  0.0937
17995TIP3    H175476   6.086   1.389  12.861 -0.5622 -0.5500  0.5311
17995TIP3    H275477   6.101   1.539  12.844 -0.0929 -0.6998 -0.4905
17996TIP3   OH275478   4.477   4.612  12.394 -0.0362  0.4794  0.3816
17996TIP3    H175479   4.430   4.660  12.462  1.6955  2.6848  0.1569
17996TIP3    H275480   4.461   4.663  12.314 -1.7581 -1.8659 -0.9107
17997TIP3   OH275481   6.778   2.254  13.980 -0.4797  0.1854  0.0024
17997TIP3    H175482   6.841   2.325  13.991 -1.0529  0.5920  0.7938
17997TIP3    H275483   6.781   2.233  13.887  0.8172  0.1905  0.0245
17998TIP3   OH275484   4.805   5.814  12.483  0.4327  0.0064 -0.6062
17998TIP3    H175485   4.830   5.733  12.440  0.7961  0.5968 -1.5431
17998TIP3    H275486   4.889   5.859  12.500  0.4024 -0.7070  1.7809
17999TIP3   OH275487   2.617   5.032  12.879 -0.3666  0.6875 -0.6885
17999TIP3    H175488   2.522   5.034  12.895 -0.2572  1.5527 -0.0638
17999TIP3    H275489   2.625   5.020  12.784 -1.0708 -1.3260 -0.5402
18000TIP3   OH275490   5.097   2.558   5.100 -0.3316 -0.1588  0.2374
18000TIP3    H175491   5.136   2.472   5.083 -0.1062 -0.0690  0.3068
18000TIP3    H275492   5.017   2.558   5.047  0.1930 -0.0099 -0.5650
18001TIP3   OH275493   3.384   3.764   1.980  0.1314  0.0049 -0.1299
18001TIP3    H175494   3.379   3.778   1.885 -0.5145  0.4435 -0.0359
18001TIP3    H275495   3.471   3.726   1.994 -0.5412 -2.0825 -1.1468
18002TIP3   OH275496   0.952   1.784  14.811  0.7501  0.5012  0.7240
18002TIP3    H175497   0.943   1.851  14.879 -0.7144  0.2618  0.7875
18002TIP3    H275498   0.912   1.706  14.849  0.7578  0.1105 -0.0610
18003TIP3   OH275499   3.769   5.108   3.198 -0.0359 -0.0957  0.1493
18003TIP3    H175500   3.848   5.091   3.147 -1.5365  1.2057 -2.8767
18003TIP3    H275501   3.700   5.063   3.150 -1.2719 -0.6621  2.3570
18004TIP3   OH275502   2.561   4.777  10.335 -0.4139  0.3686 -0.2806
18004TIP3    H175503   2.498   4.841  10.300 -0.4309  0.7122  0.3630
18004TIP3    H275504   2.507   4.702  10.360 -0.4875  0.3946 -0.3620
18005TIP3   OH275505   2.226   1.292  13.008  0.0837  0.1324 -0.4621
18005TIP3    H175506   2.233   1.286  12.913 -1.3081 -2.6668 -0.4949
18005TIP3    H275507   2.288   1.227  13.041 -0.8109 -0.2951  0.4399
18006TIP3   OH275508   4.874   5.668  16.959 -0.6724 -0.2302  0.0854
18006TIP3    H175509   4.954   5.615  16.954  2.4142  3.9192  0.2196
18006TIP3    H275510   4.856   5.693  16.868  1.7352  3.2305  0.3609
18007TIP3   OH275511   1.699   3.484   0.183  0.3420 -0.0315  0.7062
18007TIP3    H175512   1.749   3.517   0.109  2.2557 -1.4322  1.2822
18007TIP3    H275513   1.731   3.534   0.258 -0.9840  0.8100  0.7327
18008TIP3   OH275514   6.280   2.952  15.763 -0.1517  0.2630 -0.0820
18008TIP3    H175515   6.200   2.943  15.712  0.7432 -2.0079 -1.1871
18008TIP3    H275516   6.344   2.987  15.702  0.1657  0.4084  0.3247
18009TIP3   OH275517   2.473   2.568  13.355  0.7213  0.0614  0.1919
18009TIP3    H175518   2.567   2.558  13.368  1.7900  1.8768 -4.3734
18009TIP3    H275519   2.455   2.660  13.378  0.1350 -0.1106  0.4555
18010TIP3   OH275520   2.022   1.684   3.866  0.1411 -0.1147  0.2351
18010TIP3    H175521   2.085   1.747   3.898 -0.2669 -0.8140  2.5614
18010TIP3    H275522   2.069   1.601   3.862 -0.0749 -0.2278 -0.0608
18011TIP3   OH275523   6.748   6.327  13.729 -0.0790 -0.3663 -0.1668
18011TIP3    H175524   6.693   6.323  13.807 -0.0409 -0.2509 -0.1341
18011TIP3    H275525   6.688   6.311  13.656 -0.2833  0.4739 -0.1889
18012TIP3   OH275526   2.325   2.339   2.903  0.5256  0.2041 -0.1038
18012TIP3    H175527   2.393   2.402   2.928 -0.2242  1.5063 -1.2280
18012TIP3    H275528   2.351   2.307   2.817 -0.6959  1.3828 -0.9459
18013TIP3   OH275529   3.134   0.428   4.394  0.7194 -0.4206 -0.1672
18013TIP3    H175530   3.116   0.474   4.311 -0.1721 -2.0229 -0.8966
18013TIP3    H275531   3.214   0.468   4.426  0.4027  1.1044 -1.1643
18014TIP3   OH275532   5.197   4.360   4.260 -0.3639  0.4561  0.1606
18014TIP3    H175533   5.284   4.392   4.281 -0.2231  0.8288 -0.8987
18014TIP3    H275534   5.151   4.437   4.226  0.0889 -0.4290 -2.7610
18015TIP3   OH275535   2.024   1.556  16.160  0.0694  0.2256 -0.1722
18015TIP3    H175536   2.065   1.516  16.084 -0.8879  1.4572 -1.3935
18015TIP3    H275537   2.092   1.556  16.227  0.8592 -1.1001 -0.9438
18016TIP3   OH275538   2.768   4.325   2.006  0.5206  0.7326 -0.1604
18016TIP3    H175539   2.825   4.382   2.058  0.5793  0.8823 -0.3848
18016TIP3    H275540   2.692   4.308   2.062 -0.2724  2.3600 -0.6878
18017TIP3   OH275541   1.116   2.611   3.391  0.4629  0.0863  0.1797
18017TIP3    H175542   1.036   2.651   3.427  0.6527 -1.1357  2.0796
18017TIP3    H275543   1.093   2.590   3.300 -2.7854 -3.5519  1.5704
18018TIP3   OH275544   4.214   6.680   1.895  0.2410  0.5441 -0.1212
18018TIP3    H175545   4.127   6.694   1.934  0.5363 -1.2254  1.3172
18018TIP3    H275546   4.207   6.718   1.808 -1.6226  1.4447  0.3594
18019TIP3   OH275547   0.354   1.968  10.375 -0.3335  0.0759 -0.6215
18019TIP3    H175548   0.348   2.061  10.355  0.0131  0.2518  0.0707
18019TIP3    H275549   0.269   1.946  10.413 -0.4996  0.0495 -1.0006
18020TIP3   OH275550   0.822   2.803   1.735 -0.5293  0.0241 -0.0921
18020TIP3    H175551   0.866   2.805   1.820  0.3342 -0.2440 -0.5126
18020TIP3    H275552   0.784   2.890   1.725 -0.3575  0.1615  0.4305
18021TIP3   OH275553   4.362   3.309   0.629  0.0459  0.0846 -0.6329
18021TIP3    H175554   4.351   3.250   0.704  2.5335 -1.8958 -1.6640
18021TIP3    H275555   4.288   3.288   0.572  0.1556 -1.1261 -0.3711
18022TIP3   OH275556   2.242   2.736  12.422 -0.6777  0.0392 -0.1381
18022TIP3    H175557   2.300   2.801  12.463  1.5984 -1.6825 -0.4258
18022TIP3    H275558   2.221   2.675  12.493  0.5896 -1.1290 -0.7184
18023TIP3   OH275559   3.949   6.725  15.815 -0.2279  0.6246 -1.2963
18023TIP3    H175560   3.917   6.798  15.868 -0.6226  0.2843 -1.0577
18023TIP3    H275561   3.883   6.715  15.747 -1.7790 -1.3927  0.3699
18024TIP3   OH275562   4.276   2.454   6.029  0.5237 -0.1768  0.7048
18024TIP3    H175563   4.184   2.473   6.042  0.6648  0.3163  0.9923
18024TIP3    H275564   4.296   2.384   6.092  0.8642  1.2248  2.1961
18025TIP3   OH275565   0.131   3.242  16.260 -0.1430  0.4618 -0.2067
18025TIP3    H175566   0.067   3.265  16.192 -2.0912 -0.1919  1.2835
18025TIP3    H275567   0.155   3.325  16.300  1.8064  0.9736 -2.2532
18026TIP3   OH275568   4.058   5.198   3.129 -0.0906 -0.7164 -0.3460
18026TIP3    H175569   4.138   5.178   3.081  0.2053  0.1415 -0.2181
18026TIP3    H275570   4.070   5.287   3.160 -1.0230 -0.6443 -0.1685
18027TIP3   OH275571   2.957   5.965   6.731 -0.2761  0.0828  0.3903
18027TIP3    H175572   2.975   5.977   6.638 -2.1833 -1.9211 -0.3194
18027TIP3    H275573   2.896   6.036   6.753 -1.0440 -0.3612 -0.2919
18028TIP3   OH275574   4.093   6.312  17.237  0.1706  0.4369  0.0724
18028TIP3    H175575   4.031   6.244  17.263 -1.6001  1.2421 -1.8094
18028TIP3    H275576   4.176   6.265  17.223 -0.0438 -0.7223  2.2525
18029TIP3   OH275577   6.756   5.682   3.524  0.4276 -0.1509  0.5672
18029TIP3    H175578   6.676   5.639   3.495  0.5483  0.3751 -0.5939
18029TIP3    H275579   6.763   5.761   3.469  0.8347  0.7302  1.8270
18030TIP3   OH275580   3.948   0.274   3.714 -0.3878 -0.0733 -0.3129
18030TIP3    H175581   3.876   0.222   3.749 -0.7489 -0.7812 -1.9803
18030TIP3    H275582   3.962   0.343   3.778 -0.9091 -1.3488  1.2281
18031TIP3   OH275583   4.411   6.082   0.572 -0.4758 -0.2269 -0.1839
18031TIP3    H175584   4.363   6.008   0.609  0.1610 -0.6449 -0.1920
18031TIP3    H275585   4.498   6.047   0.550 -0.8027  0.0017 -2.0544
18032TIP3   OH275586   3.274   3.192   4.085 -0.3233  0.1522  0.1069
18032TIP3    H175587   3.183   3.162   4.092 -0.4592  0.8053  1.4883
18032TIP3    H275588   3.306   3.153   4.003 -2.0255  0.4138 -0.7291
18033TIP3   OH275589   1.837   2.863  17.252  0.3700 -0.0826  0.2234
18033TIP3    H175590   1.921   2.875  17.296 -0.3025 -1.4928  2.0227
18033TIP3    H275591   1.776   2.919  17.301 -0.4147 -1.7701  1.2763
18034TIP3   OH275592   5.950   1.104  11.746 -0.0658  0.0805 -0.1693
18034TIP3    H175593   5.939   1.079  11.838  0.5927 -2.3991 -0.6910
18034TIP3    H275594   5.861   1.114  11.713 -0.3599 -0.7030  0.3493
18035TIP3   OH275595   3.029   0.967   1.774 -0.2087  0.1000 -0.4684
18035TIP3    H175596   3.078   0.898   1.819 -0.3707 -0.8072 -1.6309
18035TIP3    H275597   3.094   1.033   1.753 -0.0348  0.2770  0.5873
18036TIP3   OH275598   4.571   6.338   1.342 -0.0163  0.0580  0.0334
18036TIP3    H175599   4.487   6.329   1.296  0.5439  0.9517 -1.2253
18036TIP3    H275600   4.621   6.261   1.316  0.3322  0.6063 -0.9727
18037TIP3   OH275601   5.168   5.419  14.849 -0.1424  0.0501  0.2508
18037TIP3    H175602   5.249   5.470  14.841 -0.0507 -0.1249  0.0537
18037TIP3    H275603   5.150   5.388  14.760 -0.1984 -0.2626  0.3708
18038TIP3   OH275604   4.447   2.440   2.995 -0.4398  0.1468  0.3823
18038TIP3    H175605   4.514   2.508   2.984 -2.0862  1.5739 -1.6018
18038TIP3    H275606   4.425   2.443   3.088  3.1561 -1.3590  1.4355
18039TIP3   OH275607   3.076   5.808  15.000  0.0440  0.5124 -0.4149
18039TIP3    H175608   3.047   5.740  14.937 -0.5800  0.6234 -0.2597
18039TIP3    H275609   3.130   5.761  15.063 -1.3857 -0.1205  0.4066
18040TIP3   OH275610   2.311   1.511  12.831  0.2610  0.0589  0.0063
18040TIP3    H175611   2.282   1.576  12.767  1.0123  0.2105 -0.1839
18040TIP3    H275612   2.269   1.429  12.803 -0.6329  0.4395  0.2088
18041TIP3   OH275613   6.705   2.698   0.957  0.6023 -0.0207  0.1220
18041TIP3    H175614   6.796   2.679   0.932  1.1526  1.6522  0.6846
18041TIP3    H275615   6.712   2.737   1.044 -0.5104  1.3277 -0.3562
18042TIP3   OH275616   4.576   2.795  13.387  0.3700  0.1005 -0.2632
18042TIP3    H175617   4.587   2.775  13.294 -2.0113 -0.1686 -0.5556
18042TIP3    H275618   4.658   2.837  13.413  1.4077 -0.5778 -2.2642
18043TIP3   OH275619   2.649   3.120   0.364 -0.1887  0.1357  0.2527
18043TIP3    H175620   2.583   3.072   0.315  0.0388  0.4957 -0.4159
18043TIP3    H275621   2.638   3.090   0.455  0.9489 -2.3395 -0.3361
18044TIP3   OH275622   4.932   0.344   0.360 -0.0271 -0.5381 -0.1509
18044TIP3    H175623   4.873   0.303   0.296  0.6827 -0.9950 -0.5327
18044TIP3    H275624   4.982   0.407   0.308  0.1656 -0.5099  0.0693
18045TIP3   OH275625   6.748   3.094   5.279  0.1891  0.0276 -0.0776
18045TIP3    H175626   6.746   3.182   5.243 -1.2381 -0.8756 -2.4293
18045TIP3    H275627   6.840   3.067   5.273  0.5704  1.2093  0.3428
18046TIP3   OH275628   1.881   4.656  16.106 -0.6591 -0.3763 -0.0774
18046TIP3    H175629   1.927   4.636  16.024  0.8798  1.0027  0.3891
18046TIP3    H275630   1.917   4.593  16.169 -0.4696 -0.2415 -0.0485
18047TIP3   OH275631   2.066   4.284   2.446 -0.5184 -0.0852 -0.3828
18047TIP3    H175632   2.020   4.344   2.388 -0.7250 -1.2667 -1.4732
18047TIP3    H275633   2.009   4.207   2.451 -0.7792  0.1736  1.8424
18048TIP3   OH275634   2.561   3.683  16.291 -0.0442  0.0465 -0.4454
18048TIP3    H175635   2.488   3.636  16.332  0.8765  0.0470  1.2656
18048TIP3    H275636   2.520   3.750  16.237 -1.3053  0.2252  0.7078
18049TIP3   OH275637   5.083   3.148   1.449  0.4529 -0.5837 -0.4763
18049TIP3    H175638   5.064   3.057   1.471 -0.5356 -0.3127 -0.1447
18049TIP3    H275639   5.015   3.172   1.387 -1.7521  1.0560  2.3184
18050TIP3   OH275640   5.096   2.629  12.801  0.0430  0.2356  0.1202
18050TIP3    H175641   5.064   2.719  12.791  0.5644  0.3778 -0.3924
18050TIP3    H275642   5.098   2.614  12.895  0.8756  1.1136  0.2595
18051TIP3   OH275643   4.678   0.211  11.315  0.2680 -0.4750  0.0411
18051TIP3    H175644   4.675   0.211  11.410 -1.0618 -0.5385  0.0228
18051TIP3    H275645   4.657   0.121  11.290 -1.0124 -0.0952 -0.3227
18052TIP3   OH275646   1.384   6.529   6.441  0.1088  0.0763  0.0265
18052TIP3    H175647   1.461   6.586   6.453  0.1354  0.2670 -0.9908
18052TIP3    H275648   1.313   6.576   6.486 -0.1120  1.4718 -1.6563
18053TIP3   OH275649   6.635   0.527  11.779 -0.0812 -0.0417  0.3808
18053TIP3    H175650   6.642   0.597  11.714 -1.7796 -0.5048 -0.3725
18053TIP3    H275651   6.717   0.530  11.827  0.5767  1.3513 -0.7564
18054TIP3   OH275652   1.435   5.104  15.524  0.6281  0.9231  0.2846
18054TIP3    H175653   1.459   5.017  15.554 -1.4818 -0.0021 -0.5494
18054TIP3    H275654   1.351   5.123  15.566  1.2242  2.7654  0.7784
18055TIP3   OH275655   2.720   2.812  14.989 -0.0954 -0.1915  0.7365
18055TIP3    H175656   2.758   2.851  15.068  1.7802  1.1867 -0.7579
18055TIP3    H275657   2.783   2.744  14.963  1.6255  2.1930 -1.8404
18056TIP3   OH275658   3.107   5.238  17.172  0.1214 -0.1377  0.3572
18056TIP3    H175659   3.141   5.179  17.105  2.4252  0.6244  0.7745
18056TIP3    H275660   3.039   5.287  17.128 -0.5456 -1.7694 -0.5260
18057TIP3   OH275661   1.163   4.293  16.285 -0.0290 -0.0967  0.2431
18057TIP3    H175662   1.166   4.197  16.288  2.4558 -0.0861 -0.2264
18057TIP3    H275663   1.154   4.319  16.377  0.1897 -0.7826  0.4668
18058TIP3   OH275664   5.619   6.215  12.343  0.4037 -0.0554 -0.0001
18058TIP3    H175665   5.619   6.232  12.249 -2.3629 -3.4392 -0.7935
18058TIP3    H275666   5.542   6.161  12.358  1.7491 -1.2138  3.9415
18059TIP3   OH275667   1.512   1.013   3.448 -0.2576  0.4075  0.3255
18059TIP3    H175668   1.590   1.007   3.393  0.4263  0.0375  1.3105
18059TIP3    H275669   1.500   1.107   3.462 -1.0228  0.5867 -1.2171
18060TIP3   OH275670   1.447   6.420  14.015  0.5543 -0.0877  0.2489
18060TIP3    H175671   1.378   6.453  14.073 -1.0141 -2.5377 -0.0835
18060TIP3    H275672   1.512   6.382  14.075  0.2910 -0.1480  0.5010
18061TIP3   OH275673   6.629   6.139   3.209 -0.3792 -0.3436  0.0405
18061TIP3    H175674   6.658   6.208   3.149  0.1461 -0.8859 -0.3350
18061TIP3    H275675   6.536   6.129   3.191 -0.1676 -0.6965 -0.8945
18062TIP3   OH275676   4.020   2.799  16.134 -0.2550 -0.0740  0.1434
18062TIP3    H175677   4.068   2.773  16.213 -0.1100  0.8242  0.3534
18062TIP3    H275678   4.023   2.721  16.078  0.0911 -0.5433  0.8062
18063TIP3   OH275679   0.460   5.736   1.300 -0.0955  0.0365  0.2714
18063TIP3    H175680   0.456   5.726   1.205  0.4869 -0.2220  0.2706
18063TIP3    H275681   0.520   5.809   1.314  1.5885 -1.3339  0.4948
18064TIP3   OH275682   4.277   1.814  15.160  0.5318 -0.1443 -0.2403
18064TIP3    H175683   4.348   1.776  15.108  0.2981  0.0751 -0.7267
18064TIP3    H275684   4.228   1.738  15.191  0.7502 -0.2815 -0.2249
18065TIP3   OH275685   2.051   4.858  14.073 -0.2193 -0.2099 -1.1874
18065TIP3    H175686   2.132   4.877  14.026  1.2197 -1.0432  0.7979
18065TIP3    H275687   2.030   4.768  14.049  1.5330 -1.2988  0.9834
18066TIP3   OH275688   2.510   2.793   0.457 -0.1119  0.4011 -0.1177
18066TIP3    H175689   2.591   2.749   0.484 -0.9746 -1.9795 -1.0762
18066TIP3    H275690   2.526   2.819   0.367 -0.3172  0.1527 -0.2264
18067TIP3   OH275691   1.468   5.420  17.145  0.1328 -0.0039 -0.1956
18067TIP3    H175692   1.464   5.476  17.223 -0.6626  0.1417 -0.3292
18067TIP3    H275693   1.559   5.427  17.115  0.2507  0.5594  0.2701
18068TIP3   OH275694   1.392   5.618  15.825  0.3100  0.1463  0.2679
18068TIP3    H175695   1.418   5.672  15.750 -0.1010  0.2224  0.1784
18068TIP3    H275696   1.307   5.653  15.852 -0.9550 -1.7009 -1.0429
18069TIP3   OH275697   6.245   5.216   0.488  0.2704  0.6586 -0.3443
18069TIP3    H175698   6.322   5.204   0.545  0.1736  2.0240  0.1230
18069TIP3    H275699   6.218   5.307   0.504  0.5784  1.2850 -3.0021
18070TIP3   OH275700   4.614   3.710  15.872 -0.1365 -0.5631 -0.5151
18070TIP3    H175701   4.683   3.692  15.936 -1.6036 -2.2061  0.6929
18070TIP3    H275702   4.639   3.661  15.794 -0.1864 -1.5802  0.0967
18071TIP3   OH275703   1.067   3.205   5.361 -0.0830  0.0736  0.2154
18071TIP3    H175704   0.973   3.201   5.341 -0.2983  0.0962  1.1697
18071TIP3    H275705   1.094   3.113   5.364  0.6228  0.0521 -3.0028
18072TIP3   OH275706   6.285   2.023   4.113 -0.1478  0.1392  0.1039
18072TIP3    H175707   6.253   1.968   4.185 -0.9208 -0.4196 -0.6439
18072TIP3    H275708   6.278   2.113   4.146  0.3357 -0.1520  1.0380
18073TIP3   OH275709   4.741   5.533  13.618  0.4913  0.5837  0.0189
18073TIP3    H175710   4.821   5.520  13.569  1.0049 -5.1902  1.6386
18073TIP3    H275711   4.769   5.543  13.709 -0.5921  0.5528  0.3789
18074TIP3   OH275712   4.977   1.479  17.018  0.2499  0.5159 -0.5090
18074TIP3    H175713   4.968   1.554  17.076 -1.4902  0.2588 -0.3897
18074TIP3    H275714   5.038   1.421  17.063 -0.3233  0.7630  0.6230
18075TIP3   OH275715   5.335   1.427   1.323 -0.6784  0.3257 -0.3302
18075TIP3    H175716   5.415   1.469   1.291 -0.1335  0.1637  0.7768
18075TIP3    H275717   5.363   1.380   1.402 -1.1518 -2.4485 -1.7061
18076TIP3   OH275718   4.889   6.217   2.693  0.0035 -0.4634  0.2428
18076TIP3    H175719   4.797   6.218   2.718  0.5778  0.4931  2.6761
18076TIP3    H275720   4.936   6.216   2.776  2.2013 -0.4221 -0.9228
18077TIP3   OH275721   0.438   5.430   2.328 -0.0258  0.2666 -0.3317
18077TIP3    H175722   0.425   5.338   2.304  1.3860 -0.7013  2.2634
18077TIP3    H275723   0.409   5.436   2.419  2.5146  1.6433  0.5130
18078TIP3   OH275724   6.231   0.467   1.959 -0.1197  0.2075  0.0539
18078TIP3    H175725   6.184   0.550   1.967 -0.7311 -0.1340  0.0717
18078TIP3    H275726   6.166   0.406   1.925  0.2160 -0.3675  0.4226
18079TIP3   OH275727   3.530   3.701   2.728  0.0012  0.4560 -0.3367
18079TIP3    H175728   3.592   3.773   2.724  1.7580 -0.7891  2.0694
18079TIP3    H275729   3.579   3.625   2.697 -0.5982 -0.3567  0.6184
18080TIP3   OH275730   4.927   3.135   3.470  0.3846 -0.0424  0.6438
18080TIP3    H175731   4.881   3.051   3.462  1.4771 -0.5658 -0.4897
18080TIP3    H275732   4.917   3.176   3.385  0.9184  0.4156  0.7976
18081TIP3   OH275733   6.023   3.251   0.271  0.1887  0.3787 -0.2044
18081TIP3    H175734   6.077   3.218   0.199 -0.4062 -0.1409 -0.4214
18081TIP3    H275735   5.981   3.329   0.236 -0.6411 -0.2607 -0.6706
18082TIP3   OH275736   0.721   1.663  15.812 -1.0791 -0.1094  0.3811
18082TIP3    H175737   0.710   1.663  15.907 -0.7768 -0.1670  0.4175
18082TIP3    H275738   0.678   1.583  15.782  0.2368 -0.9382  0.6407
18083TIP3   OH275739   2.600   4.940  12.060  0.2050  0.0182  0.1371
18083TIP3    H175740   2.670   4.977  12.006  0.5467  0.3137  0.7676
18083TIP3    H275741   2.523   4.993  12.041 -0.3913 -1.4784 -2.0027
18084TIP3   OH275742   3.183   1.779  11.026 -0.4241  0.4036  0.2744
18084TIP3    H175743   3.244   1.718  10.985  0.5545  2.8536 -2.1465
18084TIP3    H275744   3.126   1.808  10.956  1.2418  4.7026  0.3885
18085TIP3   OH275745   5.772   4.364   1.797  0.0553  0.0588  0.4983
18085TIP3    H175746   5.702   4.417   1.835 -0.1302  0.7765 -0.7999
18085TIP3    H275747   5.727   4.285   1.765  0.2672 -0.7267  2.0330
18086TIP3   OH275748   3.561   5.352   6.090 -0.2764  0.1252 -0.2444
18086TIP3    H175749   3.535   5.443   6.076  0.0477  0.1067 -1.0585
18086TIP3    H275750   3.479   5.306   6.109 -0.5006  0.5058 -0.2784
18087TIP3   OH275751   6.715   3.365   2.612 -0.4993 -0.5511 -0.3152
18087TIP3    H175752   6.679   3.383   2.525  0.7592 -2.7363 -1.3774
18087TIP3    H275753   6.660   3.295   2.647 -1.2943  0.6440  0.8951
18088TIP3   OH275754   1.696   1.243  15.604 -0.4710  0.0773 -0.0627
18088TIP3    H175755   1.605   1.217  15.590 -1.0293  2.0833 -0.4462
18088TIP3    H275756   1.739   1.225  15.521 -0.9325  0.6876 -0.4426
18089TIP3   OH275757   4.343   0.879  16.144 -0.3295 -0.1057 -0.1179
18089TIP3    H175758   4.376   0.791  16.165 -1.6022 -0.3196  1.1980
18089TIP3    H275759   4.255   0.864  16.111 -0.9828  0.7232  1.1738
18090TIP3   OH275760   0.384   3.123  16.025 -0.2382  0.4054 -0.1898
18090TIP3    H175761   0.296   3.126  15.989 -0.6262  1.5219  0.8093
18090TIP3    H275762   0.441   3.117  15.948 -1.1010  1.3900 -0.9369
18091TIP3   OH275763   6.441   3.653  11.563 -0.1956 -0.2021 -0.5868
18091TIP3    H175764   6.440   3.660  11.467  4.1383 -0.5672 -0.8726
18091TIP3    H275765   6.388   3.576  11.582  1.4533 -2.1377 -3.1263
18092TIP3   OH275766   6.112   5.687  14.345  0.5094 -0.2235  0.3041
18092TIP3    H175767   6.177   5.745  14.305  1.4219 -0.4315  1.4183
18092TIP3    H275768   6.163   5.635  14.408 -0.5138 -1.3561  0.2090
18093TIP3   OH275769   2.841   5.765   1.298 -0.6807 -0.3562  0.3912
18093TIP3    H175770   2.781   5.691   1.301 -0.7534 -0.2762  1.6964
18093TIP3    H275771   2.843   5.791   1.206 -1.8873 -0.9652  0.1711
18094TIP3   OH275772   0.934   0.151  13.211  0.0137  0.4644  0.0021
18094TIP3    H175773   0.846   0.157  13.174 -0.3707 -1.2652  0.5652
18094TIP3    H275774   0.925   0.092  13.286  1.4858  0.9632  0.6146
18095TIP3   OH275775   3.462   6.589   5.515 -0.3873 -0.2297  0.1343
18095TIP3    H175776   3.431   6.663   5.462  0.5654  0.4592  0.5028
18095TIP3    H275777   3.412   6.514   5.483 -0.6900  0.3948 -0.9170
18096TIP3   OH275778   1.634   5.394   3.877 -0.2726 -1.1544  0.4054
18096TIP3    H175779   1.609   5.368   3.789  0.1121  0.4825 -0.2187
18096TIP3    H275780   1.559   5.444   3.910  1.1614  2.0211 -0.7140
18097TIP3   OH275781   2.460   2.925   1.473  1.0582 -0.1253  0.3843
18097TIP3    H175782   2.467   2.905   1.567  0.9468 -1.0622  0.2073
18097TIP3    H275783   2.413   3.008   1.470  1.2726  0.0370  1.1706
18098TIP3   OH275784   2.583   5.328  17.250 -0.0186 -0.3860 -0.2505
18098TIP3    H175785   2.679   5.331  17.246 -0.0515  0.4001 -0.5976
18098TIP3    H275786   2.554   5.374  17.171 -0.6834  0.5515  0.5101
18099TIP3   OH275787   0.834   1.679  13.560 -0.2055 -0.0378  0.1472
18099TIP3    H175788   0.811   1.763  13.520 -0.4045 -0.2260 -0.1454
18099TIP3    H275789   0.856   1.700  13.650  0.5253  0.4351 -0.1382
18100TIP3   OH275790   5.190   1.569   0.987  0.3823 -0.1285 -1.1985
18100TIP3    H175791   5.272   1.618   0.974 -1.2465  2.9938 -0.6323
18100TIP3    H275792   5.176   1.571   1.081 -0.9425  0.4550 -1.3935
18101TIP3   OH275793   0.867   5.696  10.265 -0.4124 -0.2638  0.6515
18101TIP3    H175794   0.851   5.608  10.231  1.6793 -1.3750  2.2535
18101TIP3    H275795   0.958   5.715  10.240 -0.6094  1.1586  0.9198
18102TIP3   OH275796   1.702   1.731  14.893  0.2899 -0.1938 -0.0935
18102TIP3    H175797   1.695   1.817  14.935 -1.0066 -1.1965  1.9144
18102TIP3    H275798   1.705   1.750  14.800  1.7761  2.0999  0.3420
18103TIP3   OH275799   5.119   4.129   4.159 -0.4008  0.7524  0.2613
18103TIP3    H175800   5.146   4.210   4.203 -0.3068  0.2767  1.1054
18103TIP3    H275801   5.049   4.156   4.100  1.2509  1.8700 -1.3108
18104TIP3   OH275802   1.018   3.876  15.540  0.3934 -0.1830 -0.1028
18104TIP3    H175803   1.014   3.860  15.634 -0.3333 -0.8027 -0.2325
18104TIP3    H275804   0.931   3.909  15.517 -0.3762 -2.6275 -0.9911
18105TIP3   OH275805   6.607   4.886  11.469 -0.7738  0.2692  0.8312
18105TIP3    H175806   6.689   4.925  11.438 -0.3500 -1.6307 -0.6587
18105TIP3    H275807   6.564   4.956  11.518  1.6042  1.4148  1.4301
18106TIP3   OH275808   5.960   0.160  11.975 -0.0576  0.5624  0.3041
18106TIP3    H175809   5.890   0.155  11.910  1.0065  1.3931 -0.9822
18106TIP3    H275810   5.978   0.069  11.998 -0.1674  0.2123 -0.9222
18107TIP3   OH275811   1.537   3.532  11.192  0.1483 -0.7501  0.0726
18107TIP3    H175812   1.577   3.619  11.193 -1.2911 -0.0455 -0.7750
18107TIP3    H275813   1.600   3.476  11.236  1.9807  0.3317 -1.0788
18108TIP3   OH275814   0.963   5.134  15.478 -0.1527 -0.2166 -0.3185
18108TIP3    H175815   0.873   5.129  15.446 -0.0601 -1.0593 -0.4692
18108TIP3    H275816   0.965   5.078  15.555  0.2577 -0.2437 -0.3452
18109TIP3   OH275817   6.357   3.611   1.879  0.2966  0.1910  0.1984
18109TIP3    H175818   6.279   3.661   1.854  0.0244  0.3754  1.3226
18109TIP3    H275819   6.413   3.676   1.922  0.2919 -0.2915  0.9535
18110TIP3   OH275820   4.286   5.678  17.258  0.0552  0.0742 -0.1177
18110TIP3    H175821   4.369   5.710  17.223 -1.3222  2.1660 -1.7699
18110TIP3    H275822   4.244   5.633  17.185 -0.3224 -0.9032  0.6749
18111TIP3   OH275823   2.857   6.759  15.738  0.2140  0.8739 -0.6422
18111TIP3    H175824   2.894   6.772  15.651 -0.5635  1.4822 -0.8936
18111TIP3    H275825   2.909   6.816  15.795  3.0114 -2.0264 -0.0247
18112TIP3   OH275826   0.169   5.073  16.435 -0.1994 -0.6453  0.2844
18112TIP3    H175827   0.255   5.085  16.393 -0.7853  1.3537 -0.4995
18112TIP3    H275828   0.190   5.059  16.528  0.9899  0.3680  0.2094
18113TIP3   OH275829   0.095   4.934  15.039 -0.0938 -0.2655 -0.2145
18113TIP3    H175830   0.063   4.848  15.063 -2.4125  0.1183 -1.6231
18113TIP3    H275831   0.034   4.995  15.080  1.2501  0.7205  0.4049
18114TIP3   OH275832   2.365   3.402  11.202  0.6653 -0.1360 -0.9351
18114TIP3    H175833   2.329   3.326  11.157 -1.2729  0.1927 -0.0391
18114TIP3    H275834   2.455   3.377  11.224 -0.1487 -2.4991  0.0320
18115TIP3   OH275835   2.970   4.139  15.729  0.4579  0.2746  0.6059
18115TIP3    H175836   3.012   4.153  15.644  2.5484 -0.8510  1.3806
18115TIP3    H275837   2.982   4.221  15.776  0.2807  0.5197  0.2290
18116TIP3   OH275838   1.731   1.639  12.878  0.1063 -0.1185  0.2971
18116TIP3    H175839   1.783   1.582  12.935 -0.1867 -1.7502 -0.9804
18116TIP3    H275840   1.759   1.617  12.789 -0.0651  1.7278 -0.2671
18117TIP3   OH275841   1.873   6.613   2.054 -0.1044  0.0609 -0.3955
18117TIP3    H175842   1.811   6.686   2.056  0.3458  0.4168  0.9059
18117TIP3    H275843   1.949   6.643   2.103  1.9437  0.3165 -3.4642
18118TIP3   OH275844   2.471   2.861   4.335  0.4425  0.3378 -0.2010
18118TIP3    H175845   2.419   2.941   4.351  0.7212  0.8411 -1.6886
18118TIP3    H275846   2.513   2.844   4.419 -0.2102  1.3307  0.3595
18119TIP3   OH275847   5.664   2.784  10.766  0.3197 -0.5957 -0.1445
18119TIP3    H175848   5.694   2.693  10.756  0.7757 -0.3810 -0.8226
18119TIP3    H275849   5.653   2.815  10.676  0.1128  0.0066  0.0857
18120TIP3   OH275850   2.230   5.361   2.678 -0.4731  0.0623  0.3050
18120TIP3    H175851   2.281   5.402   2.748 -0.0010  0.2639 -0.1475
18120TIP3    H275852   2.169   5.429   2.650 -0.1612  0.2345  0.0275
18121TIP3   OH275853   5.360   1.468   2.077  0.4123 -0.2880 -0.4648
18121TIP3    H175854   5.337   1.395   2.134  1.5010 -1.7965 -1.8659
18121TIP3    H275855   5.292   1.468   2.010  0.8760 -0.5754 -0.9421
18122TIP3   OH275856   3.644   5.738   1.423  0.1346  0.0593 -0.5455
18122TIP3    H175857   3.708   5.763   1.355 -1.0062  0.6331 -1.4427
18122TIP3    H275858   3.651   5.643   1.428  2.6445  0.2176  1.0023
18123TIP3   OH275859   1.572   1.914   9.947 -0.1036  0.0219  0.8194
18123TIP3    H175860   1.585   1.929  10.041 -0.5879 -0.0047  0.8896
18123TIP3    H275861   1.548   2.000   9.913  1.4456  0.3476  0.4760
18124TIP3   OH275862   3.511   6.021  12.750  0.2230 -0.7340 -0.3198
18124TIP3    H175863   3.464   6.101  12.726 -0.5359 -1.8526 -2.9474
18124TIP3    H275864   3.598   6.032  12.710  0.5637 -0.6986  0.4167
18125TIP3   OH275865   2.968   5.298  11.691 -0.0784  0.4331  0.4307
18125TIP3    H175866   2.901   5.276  11.626  1.0209  1.5660 -1.1391
18125TIP3    H275867   2.945   5.386  11.721  1.0120  1.0905 -0.5826
18126TIP3   OH275868   3.520   1.115  11.345 -0.1934 -0.4951 -0.1868
18126TIP3    H175869   3.463   1.082  11.275  0.6134 -0.3818 -0.9229
18126TIP3    H275870   3.471   1.188  11.384 -0.4654 -0.2576 -0.9519
18127TIP3   OH275871   2.400   2.233   1.780  0.0939 -0.5166 -0.0946
18127TIP3    H175872   2.413   2.300   1.713  0.6858 -0.0825  0.4368
18127TIP3    H275873   2.479   2.178   1.774 -0.2181 -0.9432 -0.2821
18128TIP3   OH275874   1.627   5.289  15.434 -0.1960  0.1649  0.0537
18128TIP3    H175875   1.704   5.253  15.390 -1.3471 -0.6816 -1.3484
18128TIP3    H275876   1.599   5.220  15.494  0.3543  0.6265  0.8494
18129TIP3   OH275877   2.669   4.348  12.695  0.4621 -0.0549 -0.3799
18129TIP3    H175878   2.583   4.378  12.726  0.3332  0.3523 -1.1098
18129TIP3    H275879   2.730   4.415  12.725  0.7161 -0.9171  1.1420
18130TIP3   OH275880   1.452   2.428  11.425  1.6979 -0.1407 -0.4823
18130TIP3    H175881   1.418   2.346  11.388  0.9320 -0.4110  0.7557
18130TIP3    H275882   1.395   2.496  11.389 -0.5683 -0.6222  1.8725
18131TIP3   OH275883   3.052   1.610  12.077 -0.2122 -0.2075 -0.2224
18131TIP3    H175884   3.030   1.567  11.995 -0.3726 -0.3891 -0.0865
18131TIP3    H275885   3.142   1.586  12.095 -0.2228 -0.2823 -0.2742
18132TIP3   OH275886   5.072   4.550  17.308 -0.5435 -0.3945 -0.3477
18132TIP3    H175887   5.027   4.501  17.239 -3.0127  1.6384 -0.3519
18132TIP3    H275888   5.059   4.642  17.285  1.5366  0.3411  1.0668
18133TIP3   OH275889   2.299   4.439   1.651 -0.1963  0.2318 -0.2053
18133TIP3    H175890   2.370   4.399   1.702  0.8240 -0.8972 -2.3717
18133TIP3    H275891   2.289   4.381   1.575 -1.2456  2.1200 -1.5868
18134TIP3   OH275892   0.630   0.843   0.718 -0.0788 -0.1474  0.0946
18134TIP3    H175893   0.551   0.894   0.735 -0.6360 -0.5037 -1.3313
18134TIP3    H275894   0.599   0.754   0.704  0.7397 -0.5973  1.0247
18135TIP3   OH275895   1.852   0.616   4.642 -0.3074 -0.4613 -0.4777
18135TIP3    H175896   1.933   0.567   4.626 -0.3242  0.1690 -2.7736
18135TIP3    H275897   1.796   0.555   4.690  0.5918 -1.8156 -1.0888
18136TIP3   OH275898   3.735   5.797  16.165 -0.0507  1.0839  0.3167
18136TIP3    H175899   3.756   5.750  16.246  1.2147  1.3424  0.1739
18136TIP3    H275900   3.780   5.881  16.174  2.2043  0.2334 -1.5996
18137TIP3   OH275901   2.652   0.183   2.374  0.2345  0.3658  0.2053
18137TIP3    H175902   2.690   0.097   2.388 -0.2933 -0.2919 -2.0284
18137TIP3    H275903   2.717   0.231   2.323  0.2680  1.1165  0.9208
18138TIP3   OH275904   2.660   0.463   3.726  0.2618  0.6180 -0.3888
18138TIP3    H175905   2.594   0.403   3.693 -1.3100  1.8023  0.4571
18138TIP3    H275906   2.679   0.521   3.653 -0.5119  0.9845 -0.3072
18139TIP3   OH275907   3.055   6.560   1.917  0.5073 -0.1948 -0.5150
18139TIP3    H175908   3.081   6.486   1.862  1.2458 -0.5506  0.2820
18139TIP3    H275909   3.096   6.542   2.002 -0.9441  0.1229  0.2922
18140TIP3   OH275910   6.119   0.984   4.700 -0.6132  0.2829  0.1811
18140TIP3    H175911   6.201   0.945   4.730 -0.5065 -0.1472 -0.6353
18140TIP3    H275912   6.057   0.968   4.771 -0.1547  0.0337  0.5309
18141TIP3   OH275913   4.539   1.772  11.362  0.2280  0.3042 -0.0296
18141TIP3    H175914   4.488   1.762  11.442 -0.7574 -0.4023 -0.7136
18141TIP3    H275915   4.474   1.790  11.294  0.9459  0.0607 -0.8114
18142TIP3   OH275916   3.741   4.704  11.763  0.1153 -0.9578 -0.4189
18142TIP3    H175917   3.754   4.795  11.788 -0.5095 -1.3354  1.3900
18142TIP3    H275918   3.740   4.706  11.667 -1.1248  1.1075 -0.4268
18143TIP3   OH275919   6.361   6.757   0.319  0.1162  0.2683  0.2823
18143TIP3    H175920   6.399   6.669   0.316 -1.3945 -0.4157  0.1211
18143TIP3    H275921   6.359   6.778   0.413 -0.3678 -0.2729  0.3996
18144TIP3   OH275922   3.178   4.920  14.903 -0.0317  0.5925 -0.0223
18144TIP3    H175923   3.265   4.919  14.944  0.0957 -1.8297 -0.1875
18144TIP3    H275924   3.195   4.906  14.810 -0.5361  2.1180 -0.3721
18145TIP3   OH275925   2.894   5.627   3.824 -0.2260 -0.6109  0.1743
18145TIP3    H175926   2.819   5.677   3.791  1.7071  2.2010 -0.3666
18145TIP3    H275927   2.911   5.665   3.911  0.8861 -0.8417  0.0634
18146TIP3   OH275928   5.213   4.614  13.108  0.7268 -0.4276 -0.1244
18146TIP3    H175929   5.271   4.540  13.126  0.1141 -0.2848  3.1364
18146TIP3    H275930   5.211   4.663  13.190 -1.8692  1.1056 -0.9812
18147TIP3   OH275931   4.824   0.269  10.946  0.5041 -0.2632  0.6433
18147TIP3    H175932   4.915   0.284  10.920  0.8355 -2.6509  0.2291
18147TIP3    H275933   4.811   0.175  10.938 -1.6560 -0.1540  1.9154
18148TIP3   OH275934   6.499   6.669   2.155 -0.0740  0.3377 -0.2839
18148TIP3    H175935   6.448   6.652   2.234 -0.3209  0.1576 -0.4820
18148TIP3    H275936   6.535   6.757   2.169  0.9902 -0.2184  0.6185
18149TIP3   OH275937   3.549   6.011   1.956  0.3703  0.7337 -0.0513
18149TIP3    H175938   3.603   5.954   1.901 -1.5958 -0.8443 -0.5132
18149TIP3    H275939   3.524   6.083   1.898 -0.8370 -0.3798 -1.0124
18150TIP3   OH275940   0.260   0.765   5.122 -0.4522 -0.1975  0.1094
18150TIP3    H175941   0.217   0.688   5.087 -0.7635  0.1225 -0.2207
18150TIP3    H275942   0.192   0.832   5.125 -0.1616  0.0975  0.2853
18151TIP3   OH275943   1.139   5.935   3.013  0.6639  0.1549 -0.4966
18151TIP3    H175944   1.199   5.927   2.939  2.8808 -0.6523  1.2831
18151TIP3    H275945   1.161   6.019   3.053 -1.6468  1.3851 -1.5782
18152TIP3   OH275946   2.444   5.847   4.174 -0.0320 -0.2896 -0.2046
18152TIP3    H175947   2.356   5.839   4.211  0.5748 -4.1113  0.8440
18152TIP3    H275948   2.431   5.848   4.080 -1.2229  1.3592 -0.0720
18153TIP3   OH275949   0.484   1.801  11.732  0.6523 -0.0213  0.5882
18153TIP3    H175950   0.543   1.832  11.663 -1.7673  2.0118 -0.7569
18153TIP3    H275951   0.483   1.872  11.796 -1.0255  0.4906  0.0534
18154TIP3   OH275952   5.322   2.925   1.021  0.3558  0.0017  1.0038
18154TIP3    H175953   5.358   2.935   0.933 -1.1350  2.2803  0.5541
18154TIP3    H275954   5.239   2.880   1.009 -0.7301  1.9100  0.9301
18155TIP3   OH275955   3.526   1.721   2.639  0.5816  0.5820 -0.0727
18155TIP3    H175956   3.573   1.748   2.718 -0.3068  1.1656  0.2786
18155TIP3    H275957   3.440   1.761   2.648 -0.0185 -0.5329 -0.6516
18156TIP3   OH275958   4.590   5.336   0.239  0.0990 -0.1386  0.6305
18156TIP3    H175959   4.499   5.363   0.222 -0.2745 -1.3262  0.6112
18156TIP3    H275960   4.590   5.243   0.219  1.1453 -0.3105  1.3866
18157TIP3   OH275961   0.251   5.666  13.930  0.0308  0.1174  0.1118
18157TIP3    H175962   0.181   5.606  13.956  0.6147 -0.8303 -0.4846
18157TIP3    H275963   0.286   5.699  14.013 -1.8127  1.4700  0.4312
18158TIP3   OH275964   3.710   4.274   0.635 -0.1610 -0.5673  0.1391
18158TIP3    H175965   3.618   4.256   0.653 -0.4878  1.3170  0.5896
18158TIP3    H275966   3.714   4.289   0.541 -0.3849 -0.2812  0.1749
18159TIP3   OH275967   3.140   1.820  11.910 -0.1563  0.1435 -0.1425
18159TIP3    H175968   3.106   1.898  11.953  0.7947 -0.0336  0.9680
18159TIP3    H275969   3.140   1.753  11.978  1.9512  0.0190 -0.2110
18160TIP3   OH275970   5.442   0.301  16.207 -0.5686  0.4354  0.4338
18160TIP3    H175971   5.460   0.219  16.161 -0.9955  0.3943  0.3409
18160TIP3    H275972   5.526   0.325  16.246 -0.5620 -0.3229  0.9014
18161TIP3   OH275973   0.706   3.207   3.698 -0.5021  0.2537 -0.7068
18161TIP3    H175974   0.651   3.150   3.751 -0.5450  2.3350  1.6774
18161TIP3    H275975   0.666   3.206   3.611 -1.2253 -2.2366 -0.4332
18162TIP3   OH275976   0.282   0.139  13.009 -0.0008 -0.2157  0.2722
18162TIP3    H175977   0.356   0.081  12.992  0.8833  1.4121 -1.9936
18162TIP3    H275978   0.207   0.095  12.969  0.3962 -0.4161 -0.2705
18163TIP3   OH275979   5.419   0.781   1.681  0.4688 -0.5884 -0.4947
18163TIP3    H175980   5.432   0.738   1.596 -0.7586 -0.4604 -0.7685
18163TIP3    H275981   5.380   0.865   1.659  1.8597  0.2443  0.1053
18164TIP3   OH275982   1.205   0.863  14.510 -0.8223 -0.2270  0.5612
18164TIP3    H175983   1.118   0.825  14.501 -0.7019 -0.2883 -0.5550
18164TIP3    H275984   1.196   0.951  14.472 -0.3962 -0.2573  0.3870
18165TIP3   OH275985   2.074   2.141  13.877  0.2251  0.2209 -0.0002
18165TIP3    H175986   2.067   2.233  13.904  2.5579  0.4686 -0.0561
18165TIP3    H275987   2.049   2.141  13.785 -0.3840  0.6750  0.1549
18166TIP3   OH275988   4.508   4.673  12.100 -0.1206  0.0093  0.0365
18166TIP3    H175989   4.502   4.718  12.016 -0.5363  1.4466  0.7966
18166TIP3    H275990   4.455   4.594  12.090 -0.3456  0.2811 -0.9737
18167TIP3   OH275991   1.575   5.455  12.385  0.3639  0.0499 -0.5768
18167TIP3    H175992   1.667   5.440  12.364  0.2515 -0.6617 -0.5942
18167TIP3    H275993   1.558   5.400  12.462 -0.2203 -0.3982 -1.0055
18168TIP3   OH275994   5.885   2.216   3.866  0.2941 -0.1709  0.2788
18168TIP3    H175995   5.955   2.252   3.811  0.2701 -1.0529 -0.3494
18168TIP3    H275996   5.882   2.123   3.844 -0.5451 -0.3039  0.8833
18169TIP3   OH275997   2.032   2.681  11.196  0.2456 -0.2593  0.8134
18169TIP3    H175998   2.076   2.754  11.239  0.9211  0.9123 -1.6716
18169TIP3    H275999   1.939   2.697  11.212  0.3896  1.0722  0.4730
18170TIP3   OH276000   2.483   3.081   4.965  0.0113 -0.2693 -0.5763
18170TIP3    H176001   2.507   3.083   5.057 -0.5250 -0.1070 -0.4313
18170TIP3    H276002   2.388   3.069   4.966 -0.0821  0.3523 -1.0887
18171TIP3   OH276003   0.861   1.890  17.166 -0.4194  0.2606  0.6906
18171TIP3    H176004   0.854   1.920  17.075  0.0821 -1.1856  0.1528
18171TIP3    H276005   0.938   1.935  17.200  1.0309 -1.2185 -0.4705
18172TIP3   OH276006   5.412   2.142  11.233 -0.0690  0.3899 -0.3797
18172TIP3    H176007   5.495   2.189  11.235  1.4060 -1.9325 -1.8046
18172TIP3    H276008   5.434   2.055  11.199 -2.7267 -1.0976  1.2795
18173TIP3   OH276009   5.203   3.354  14.795  0.0818 -0.1458 -0.0361
18173TIP3    H176010   5.245   3.436  14.772  0.5027 -0.3159  0.1157
18173TIP3    H276011   5.200   3.354  14.891 -1.4030  0.4298 -0.0554
18174TIP3   OH276012   3.157   3.515  12.037 -0.2109  0.4116  0.2026
18174TIP3    H176013   3.066   3.529  12.009 -0.4619  0.1646  0.8770
18174TIP3    H276014   3.165   3.566  12.117 -0.1092 -0.5316  0.8013
18175TIP3   OH276015   4.177   2.178   1.671  0.3077 -0.9142 -0.0737
18175TIP3    H176016   4.109   2.240   1.699  0.5923 -0.0768 -1.1872
18175TIP3    H276017   4.257   2.209   1.714  0.0359 -1.8453  1.1615
18176TIP3   OH276018   3.981   0.128  14.598 -0.1913  0.0370  0.1582
18176TIP3    H176019   3.910   0.152  14.539  0.6074 -0.2340 -0.9401
18176TIP3    H276020   3.975   0.032  14.605 -0.6939  0.1224  1.0724
18177TIP3   OH276021   1.384   4.582  12.682 -0.1515  0.5433  0.2974
18177TIP3    H176022   1.354   4.663  12.641 -1.7664 -0.3688 -0.3968
18177TIP3    H276023   1.365   4.594  12.775 -1.3771  0.5579  0.0595
18178TIP3   OH276024   2.319   1.142  16.774 -0.1629  0.3842  0.4392
18178TIP3    H176025   2.262   1.198  16.827 -0.9383 -0.5735  0.6340
18178TIP3    H276026   2.260   1.076  16.737  0.6859 -0.1084 -0.0541
18179TIP3   OH276027   4.074   4.174   2.828  0.2565  0.6819  0.1090
18179TIP3    H176028   4.106   4.261   2.853  0.1003  1.3234 -1.7235
18179TIP3    H276029   3.986   4.190   2.795 -0.1590 -0.3528  0.6743
18180TIP3   OH276030   4.631   2.625   2.998  0.1739  0.4948 -0.6279
18180TIP3    H176031   4.696   2.663   2.939  1.1462 -0.0619  0.0658
18180TIP3    H276032   4.638   2.678   3.078  0.7263 -0.3954 -0.0717
18181TIP3   OH276033   6.559   0.537  16.732 -0.4689  0.2491 -0.5292
18181TIP3    H176034   6.548   0.457  16.783  0.1349 -0.7946 -1.9676
18181TIP3    H276035   6.587   0.603  16.796 -0.5091 -0.8067  0.6052
18182TIP3   OH276036   0.266   6.219   2.967  0.1791 -0.7211  0.0570
18182TIP3    H176037   0.242   6.309   2.944 -0.9416 -1.4148 -1.7158
18182TIP3    H276038   0.357   6.225   2.996  0.6970  0.7748 -1.6681
18183TIP3   OH276039   0.629   1.688   2.063 -0.2867 -0.2859 -0.1164
18183TIP3    H176040   0.706   1.680   2.007 -0.5358 -0.0657 -0.4996
18183TIP3    H276041   0.640   1.771   2.109 -0.3792 -0.1668 -0.3067
18184TIP3   OH276042   5.514   6.415   2.451 -0.0608  0.0788 -0.0983
18184TIP3    H176043   5.457   6.382   2.521 -1.1931 -2.9260 -2.2550
18184TIP3    H276044   5.458   6.420   2.374  1.2010  3.0744 -1.0005
18185TIP3   OH276045   6.456   1.435  10.915  0.3051  0.3350  0.2517
18185TIP3    H176046   6.522   1.385  10.868 -0.2036  0.3637 -0.5032
18185TIP3    H276047   6.406   1.369  10.963  0.7294  0.2918  0.6419
18186TIP3   OH276048   4.241   5.472   2.954  0.1417  0.8867 -0.4534
18186TIP3    H176049   4.205   5.389   2.923  1.9497 -0.9146  1.8718
18186TIP3    H276050   4.167   5.516   2.997 -0.3144 -0.7949  0.6001
18187TIP3   OH276051   2.041   5.654  14.357  0.2587 -0.3221 -0.3871
18187TIP3    H176052   2.059   5.641  14.264  0.8074 -1.3797 -0.1488
18187TIP3    H276053   2.023   5.566  14.390  0.6721 -0.0306  0.6307
18188TIP3   OH276054   2.254   5.449  13.281  0.3122 -0.0789  0.3990
18188TIP3    H176055   2.344   5.476  13.260  0.3071  0.8834  1.4554
18188TIP3    H276056   2.265   5.376  13.342  0.3913  0.1234  0.6305
18189TIP3   OH276057   1.582   2.214  15.436  0.1620 -0.5717 -0.2927
18189TIP3    H176058   1.552   2.177  15.519  1.5408 -1.8241 -0.3016
18189TIP3    H276059   1.526   2.290  15.422 -1.0613 -1.1725  1.0528
18190TIP3   OH276060   5.690   6.502   1.402 -0.5840  0.0374  0.4068
18190TIP3    H176061   5.677   6.507   1.497 -0.3477 -3.4224  0.7393
18190TIP3    H276062   5.628   6.436   1.373  0.2326  0.1152 -1.6580
18191TIP3   OH276063   4.798   2.084   3.641  0.0124  0.4861 -0.1969
18191TIP3    H176064   4.752   2.086   3.724  1.0557  2.0857  0.3918
18191TIP3    H276065   4.876   2.031   3.657  0.0777  0.5703 -0.2326
18192TIP3   OH276066   3.968   2.194   5.166 -0.0377 -0.0160 -0.2011
18192TIP3    H176067   3.918   2.115   5.149  0.8110 -0.8265  0.9157
18192TIP3    H276068   3.908   2.266   5.146 -0.9977 -0.9436 -0.6979
18193TIP3   OH276069   5.383   4.091  12.944  0.1718 -0.5009 -0.1652
18193TIP3    H176070   5.477   4.107  12.952  0.1878 -0.1250 -1.0071
18193TIP3    H276071   5.371   4.065  12.852 -0.2698 -2.5289  0.4052
18194TIP3   OH276072   3.299   5.746   2.627 -0.1002  0.2513  0.0393
18194TIP3    H176073   3.320   5.827   2.581  0.7760 -0.8457 -1.5681
18194TIP3    H276074   3.216   5.717   2.589 -0.5952  0.5484  0.8620
18195TIP3   OH276075   4.714   6.263  15.497  0.3318  0.4190 -0.0268
18195TIP3    H176076   4.765   6.220  15.565  2.2031  1.6522 -0.5694
18195TIP3    H276077   4.681   6.343  15.538 -1.1174 -0.3096  0.2823
18196TIP3   OH276078   3.464   0.577   0.918 -0.4693 -0.2328 -0.7309
18196TIP3    H176079   3.407   0.613   0.850 -1.2348  1.4068  0.7141
18196TIP3    H276080   3.495   0.494   0.881 -2.4074 -0.3517 -2.2661
18197TIP3   OH276081   4.126   2.124  11.936  0.7500 -0.3865 -0.2129
18197TIP3    H176082   4.081   2.183  11.997 -0.4145 -0.7625 -0.6856
18197TIP3    H276083   4.119   2.037  11.976 -0.4451 -0.7132 -1.0942
18198TIP3   OH276084   5.852   1.114   4.618 -0.0419  0.4920  0.4159
18198TIP3    H176085   5.911   1.189   4.606 -1.3497  1.8045  1.8326
18198TIP3    H276086   5.796   1.116   4.541  0.1572  0.7552  0.2725
18199TIP3   OH276087   4.788   2.199   0.181 -0.3620 -0.6056 -0.6734
18199TIP3    H176088   4.775   2.146   0.260  3.5578 -0.3154  0.3566
18199TIP3    H276089   4.739   2.279   0.197 -0.6948 -1.0842  0.8761
18200TIP3   OH276090   5.513   3.673  11.843 -0.0882 -0.3115  0.6361
18200TIP3    H176091   5.554   3.658  11.757 -0.7798 -0.4328  0.3178
18200TIP3    H276092   5.442   3.735  11.825  0.0286 -0.0115  1.1981
18201TIP3   OH276093   0.055   4.178   3.702  0.8903 -0.5414 -0.4226
18201TIP3    H176094   0.011   4.217   3.778  0.8423 -1.3936 -0.0091
18201TIP3    H276095   0.141   4.220   3.701  0.7024 -0.1397 -0.2133
18202TIP3   OH276096   0.499   5.751   5.215 -0.0335 -0.2026  0.1283
18202TIP3    H176097   0.427   5.730   5.276 -2.3372  1.7968 -1.6788
18202TIP3    H276098   0.519   5.843   5.234 -0.9435  0.5311 -2.1148
18203TIP3   OH276099   1.148   2.732   5.740 -0.1086 -0.2395  0.8905
18203TIP3    H176100   1.129   2.814   5.695  2.3489  0.2253  0.5562
18203TIP3    H276101   1.132   2.751   5.833  0.7351  0.7318  0.8522
18204TIP3   OH276102   6.170   2.621   6.299  0.4678 -0.2888 -0.0805
18204TIP3    H176103   6.235   2.630   6.229  1.5242 -2.6163  0.5102
18204TIP3    H276104   6.195   2.541   6.345 -0.2709  1.0543  2.9078
18205TIP3   OH276105   2.203   2.058   3.597 -0.0120  0.1769  0.7625
18205TIP3    H176106   2.171   2.068   3.507 -1.2177 -2.0090  0.8892
18205TIP3    H276107   2.143   2.110   3.650 -0.3572  0.0855  0.4662
18206TIP3   OH276108   1.712   1.306   2.823  0.1361  0.0275 -0.6705
18206TIP3    H176109   1.798   1.341   2.800 -0.4207  0.5217 -2.0902
18206TIP3    H276110   1.726   1.212   2.831  1.5798  0.3765  2.8115
18207TIP3   OH276111   0.579   0.073   0.733 -1.5071 -0.3982 -0.4940
18207TIP3    H176112   0.605  -0.017   0.716 -2.3056 -0.4758 -1.3913
18207TIP3    H276113   0.619   0.124   0.663 -1.0967 -0.0482 -0.0186
18208TIP3   OH276114   5.377   4.952   5.922  0.1291  0.2163  0.1934
18208TIP3    H176115   5.302   5.005   5.950  0.0099  0.2152 -0.1106
18208TIP3    H276116   5.367   4.947   5.826  0.2222 -0.2282  0.2080
18209TIP3   OH276117   5.653   0.231  16.723  0.5966 -0.1985  0.1278
18209TIP3    H176118   5.688   0.278  16.798  0.7726 -0.7430  0.3955
18209TIP3    H276119   5.713   0.157  16.711 -0.3033 -1.0098  0.4374
18210TIP3   OH276120   1.048   6.053   5.079  0.2483 -0.0114 -0.1067
18210TIP3    H176121   1.053   6.147   5.062  1.3780  0.1073  0.7487
18210TIP3    H276122   1.130   6.018   5.045  0.1823 -0.5660  0.2879
18211TIP3   OH276123   2.251   4.257   3.428 -0.2496  0.2867 -0.4471
18211TIP3    H176124   2.261   4.351   3.446 -1.5070  0.0828  1.5403
18211TIP3    H276125   2.182   4.253   3.361 -0.3142  0.7606 -0.4115
18212TIP3   OH276126   5.233   5.186   0.145  0.2071 -0.2441 -0.4897
18212TIP3    H176127   5.200   5.126   0.212 -0.0294  0.5831  0.1570
18212TIP3    H276128   5.326   5.195   0.165  0.0374  0.3906  0.0493
18213TIP3   OH276129   2.340   3.438  16.048  0.5175 -0.8410  0.3399
18213TIP3    H176130   2.404   3.370  16.028  0.1763 -0.7918 -1.0232
18213TIP3    H276131   2.299   3.459  15.964  2.3018  2.8265  0.1806
18214TIP3   OH276132   5.906   6.616   2.031 -0.4849  0.4248  0.5886
18214TIP3    H176133   5.947   6.539   2.070  0.6798  0.8436  0.2229
18214TIP3    H276134   5.979   6.669   1.999 -1.2053  2.1111  1.6061
18215TIP3   OH276135   1.764   5.453   0.737  0.2884 -0.0559 -0.3877
18215TIP3    H176136   1.786   5.527   0.680 -1.6727  1.4799  0.7529
18215TIP3    H276137   1.669   5.445   0.730  0.4753 -2.9775 -1.0001
18216TIP3   OH276138   1.150   2.495   3.137  0.2197 -0.0809  0.3993
18216TIP3    H176139   1.225   2.533   3.091  0.0960 -0.4150 -0.0838
18216TIP3    H276140   1.189   2.443   3.207  0.3770  1.4898  1.5287
18217TIP3   OH276141   2.750   4.926  13.469 -0.4223 -0.3473 -0.3947
18217TIP3    H176142   2.800   5.005  13.448 -0.3453  0.0215  1.0903
18217TIP3    H276143   2.705   4.947  13.550 -0.8829 -1.6323 -0.2972
18218TIP3   OH276144   4.421   3.327  13.199  0.5313  0.1430  0.5911
18218TIP3    H176145   4.509   3.346  13.169  0.5721 -1.2860 -0.3211
18218TIP3    H276146   4.421   3.233  13.217 -0.4202  0.3721  1.9633
18219TIP3   OH276147   5.040   5.053  13.185  0.1603  0.7395  0.2210
18219TIP3    H176148   5.113   5.071  13.125 -0.5251  1.6528 -0.3630
18219TIP3    H276149   5.082   5.020  13.264  1.0574 -1.2096 -0.9957
18220TIP3   OH276150   3.262   4.326  14.733  0.3087 -0.4775 -0.1781
18220TIP3    H176151   3.176   4.292  14.709 -0.1325 -0.2106  0.9612
18220TIP3    H276152   3.254   4.421  14.721 -0.6226 -0.0727  2.9096
18221TIP3   OH276153   2.355   6.579  11.243 -0.2687 -0.3824  0.1449
18221TIP3    H176154   2.263   6.556  11.230 -0.4218  0.4835 -0.3378
18221TIP3    H276155   2.368   6.657  11.190  0.4972  0.0753  0.9855
18222TIP3   OH276156   6.573   2.205  12.759  0.1331  0.2245  0.1085
18222TIP3    H176157   6.639   2.250  12.707  0.4430 -1.5979 -1.1526
18222TIP3    H276158   6.583   2.242  12.847 -0.6411  3.6508 -1.0645
18223TIP3   OH276159   3.405   4.426   3.350 -0.1321 -0.0014 -1.0387
18223TIP3    H176160   3.468   4.379   3.294  0.0491 -0.3106 -0.5823
18223TIP3    H276161   3.372   4.497   3.295  1.0363  0.5161 -1.0996
18224TIP3   OH276162   0.966   1.030  16.782 -0.6620  0.0554  0.0708
18224TIP3    H176163   1.009   1.045  16.698  0.0810  0.1557  0.4630
18224TIP3    H276164   0.898   1.098  16.786 -1.5607 -0.7407 -1.0038
18225TIP3   OH276165   5.157   2.390   1.215 -0.7909  0.1528 -0.2170
18225TIP3    H176166   5.099   2.465   1.207 -2.5616 -1.0543  0.6929
18225TIP3    H276167   5.220   2.401   1.144 -1.1789  2.3085 -0.2940
18226TIP3   OH276168   1.682   3.985  14.321  0.1668  0.0724 -0.5572
18226TIP3    H176169   1.645   4.024  14.400  2.6145 -0.2927  0.8794
18226TIP3    H276170   1.687   4.057  14.259  1.0251  1.1538  0.7070
18227TIP3   OH276171   2.731   1.880  14.739 -0.3848  0.2620  0.1379
18227TIP3    H176172   2.780   1.927  14.671 -0.8930  1.2010  0.4051
18227TIP3    H276173   2.652   1.851  14.694  1.0134 -2.5768 -0.7079
18228TIP3   OH276174   3.633   1.247   3.684  0.3405 -0.2844  0.0587
18228TIP3    H176175   3.688   1.182   3.640 -0.4851  0.1951 -1.8069
18228TIP3    H276176   3.547   1.205   3.692  0.8414 -0.9383  2.7237
18229TIP3   OH276177   1.155   4.640  15.364  0.3829  0.1395 -0.4600
18229TIP3    H176178   1.123   4.714  15.313  2.5226 -0.1497 -2.3472
18229TIP3    H276179   1.150   4.670  15.455  0.2444  2.2043 -1.1013
18230TIP3   OH276180   0.680   1.290   4.170  0.0182 -0.0228  0.2523
18230TIP3    H176181   0.754   1.273   4.227  0.3483  0.1066 -0.1327
18230TIP3    H276182   0.695   1.234   4.094  0.6040  1.2142 -0.5819
18231TIP3   OH276183   2.337   5.728   3.927 -0.1381  0.6351  0.1170
18231TIP3    H176184   2.254   5.682   3.917 -0.4327  0.5040  2.5339
18231TIP3    H276185   2.402   5.659   3.933 -0.2795  0.5957  1.3746
18232TIP3   OH276186   1.915   4.640  13.983  0.4027 -0.2026  0.3828
18232TIP3    H176187   1.979   4.619  13.915  0.7772 -0.1030  0.6969
18232TIP3    H276188   1.851   4.696  13.940 -0.4990 -1.7713 -0.4191
18233TIP3   OH276189   4.765   6.313   0.777  0.2950 -0.6161 -0.7505
18233TIP3    H176190   4.679   6.290   0.813  0.4658  1.3143  1.1301
18233TIP3    H276191   4.807   6.229   0.762 -0.5990 -1.6474  1.8051
18234TIP3   OH276192   5.542   0.753  16.907  0.1317  0.2059 -0.2718
18234TIP3    H176193   5.446   0.753  16.897  0.1249 -0.0925 -0.2269
18234TIP3    H276194   5.560   0.679  16.965  0.5649 -1.2104 -2.1017
18235TIP3   OH276195   5.910   6.812   2.959 -0.0451 -0.0105  0.1734
18235TIP3    H176196   5.973   6.877   2.927  0.4974 -0.0040  1.2260
18235TIP3    H276197   5.848   6.861   3.012 -0.9538 -0.0212 -0.8502
18236TIP3   OH276198   6.768   6.715   3.719  0.4164 -0.1676 -0.1772
18236TIP3    H176199   6.719   6.645   3.764 -0.3024 -0.9901 -2.1029
18236TIP3    H276200   6.792   6.676   3.635  2.7166  0.9097 -0.0781
18237TIP3   OH276201   6.634   3.390  16.342 -0.3309  0.0491  0.4007
18237TIP3    H176202   6.676   3.385  16.256 -0.0171  1.3592  0.4568
18237TIP3    H276203   6.682   3.327  16.396  1.6033  1.4752  0.4527
18238TIP3   OH276204   1.864   2.071   0.392  0.2519  0.3139 -0.3726
18238TIP3    H176205   1.880   2.164   0.373  1.2793 -0.5808 -5.0165
18238TIP3    H276206   1.798   2.045   0.328  0.6409 -2.3563  0.2279
18239TIP3   OH276207   4.543   5.925  11.586  0.1933  0.4318 -0.2254
18239TIP3    H176208   4.590   5.952  11.507 -0.9836  0.9321 -0.7812
18239TIP3    H276209   4.558   5.997  11.648  0.8209  0.2079 -0.1145
18240TIP3   OH276210   1.158   0.042  10.664 -0.2227  0.2771  1.1115
18240TIP3    H176211   1.190   0.014  10.578 -0.4882 -1.2567  1.4838
18240TIP3    H276212   1.064   0.052  10.652 -0.0689  1.5356  0.8593
18241TIP3   OH276213   5.845   3.331  15.458  0.0616  0.3160 -0.7239
18241TIP3    H176214   5.916   3.318  15.395 -0.4731 -0.0094 -1.2837
18241TIP3    H276215   5.787   3.394  15.415  0.4658  1.2691  0.1206
18242TIP3   OH276216   0.771   1.453   5.862 -0.3280 -0.6674  0.2724
18242TIP3    H176217   0.710   1.490   5.926 -0.9222 -0.9882 -0.1014
18242TIP3    H276218   0.795   1.368   5.897  1.7275  0.3551  1.5798
18243TIP3   OH276219   5.658   4.308  12.378  0.1774  0.4139  0.0252
18243TIP3    H176220   5.563   4.306  12.391  0.3486  0.0484  1.4543
18243TIP3    H276221   5.682   4.399  12.393  0.2042  0.2418  1.1716
18244TIP3   OH276222   6.032   4.539   2.262  0.6480 -0.5106 -0.1772
18244TIP3    H176223   5.950   4.502   2.293  1.1012 -1.1808  0.2424
18244TIP3    H276224   6.021   4.548   2.168  0.2595 -1.0076 -0.1789
18245TIP3   OH276225   0.337   5.866  13.733 -0.1766  0.0270 -0.4882
18245TIP3    H176226   0.284   5.793  13.765  0.8253 -0.5955 -0.2154
18245TIP3    H276227   0.392   5.828  13.664 -1.1910  1.0146 -1.8997
18246TIP3   OH276228   2.168   2.637  15.839  0.4046 -0.3706  0.3284
18246TIP3    H176229   2.167   2.543  15.822  2.0793 -0.5979  1.2428
18246TIP3    H276230   2.077   2.660  15.853 -0.1122 -1.7098 -0.6702
18247TIP3   OH276231   2.626   5.326  14.602 -0.7305  0.1099  1.0389
18247TIP3    H176232   2.704   5.303  14.652  0.8782  0.7245 -1.0279
18247TIP3    H276233   2.582   5.392  14.655  0.6480  0.4119  1.8618
18248TIP3   OH276234   1.175   1.986   1.035  0.6212  0.2279 -0.3564
18248TIP3    H176235   1.259   1.958   1.000  0.5782 -1.9252  1.0265
18248TIP3    H276236   1.184   1.975   1.130 -0.8096  1.1717 -0.0763
18249TIP3   OH276237   3.183   5.105  11.685 -0.4422  0.3827 -0.2953
18249TIP3    H176238   3.188   5.072  11.775 -0.1796  0.4165 -0.2991
18249TIP3    H276239   3.128   5.183  11.691 -1.1909 -0.1280 -0.3063
18250TIP3   OH276240   1.720   3.567  10.737  0.4205  0.2936 -0.4818
18250TIP3    H176241   1.788   3.618  10.693  1.4934 -0.3210  0.4224
18250TIP3    H276242   1.664   3.536  10.665  1.9148 -0.3779 -1.4103
18251TIP3   OH276243   6.663   2.049  16.737 -0.4776  0.3490  0.2650
18251TIP3    H176244   6.691   2.125  16.687 -1.1450  0.6499  0.3360
18251TIP3    H276245   6.630   1.987  16.672  1.1798 -0.4025  0.0843
18252TIP3   OH276246   4.207   1.179  17.194  0.3952 -0.0024  0.0832
18252TIP3    H176247   4.200   1.135  17.110  1.4021  1.4138 -0.7998
18252TIP3    H276248   4.293   1.153  17.228 -0.5195 -1.5709  1.3170
18253TIP3   OH276249   4.191   1.892  16.172  0.1543 -0.0083  0.0844
18253TIP3    H176250   4.234   1.904  16.088  0.8393 -1.4393  0.2038
18253TIP3    H276251   4.248   1.831  16.220 -0.5882  0.2191  1.3099
18254TIP3   OH276252   4.795   4.719  14.492 -0.3937 -0.1539  0.2165
18254TIP3    H176253   4.809   4.717  14.586  0.7970 -1.0937  0.0412
18254TIP3    H276254   4.750   4.802  14.476 -0.6765 -0.0263  1.6107
18255TIP3   OH276255   0.182   4.078  16.506 -0.4356  0.1299 -0.2650
18255TIP3    H176256   0.229   4.156  16.475 -3.0771  1.3930 -1.4199
18255TIP3    H276257   0.193   4.080  16.601 -0.9149  2.3052 -0.1930
18256TIP3   OH276258   5.746   3.387  12.043 -0.2665  0.2277  0.2046
18256TIP3    H176259   5.661   3.384  12.000  1.2302  0.0822 -3.0970
18256TIP3    H276260   5.743   3.464  12.099 -1.8715  1.4704 -1.4911
18257TIP3   OH276261   5.217   0.174   0.732  0.3894  0.0587 -0.3740
18257TIP3    H176262   5.142   0.117   0.714 -0.2493  0.3034  1.2716
18257TIP3    H276263   5.180   0.246   0.784  1.7260  0.2948  0.2872
18258TIP3   OH276264   3.436   4.143   3.505 -0.2068  0.0348 -0.6347
18258TIP3    H176265   3.341   4.135   3.496 -0.4181 -0.3757  1.4746
18258TIP3    H276266   3.448   4.221   3.560  0.4695 -1.6269  1.7035
18259TIP3   OH276267   5.656   1.428  16.392 -0.0647 -0.2917  0.5388
18259TIP3    H176268   5.695   1.387  16.315  1.2719  1.1322  0.4146
18259TIP3    H276269   5.689   1.376  16.466 -0.0419 -0.6763  0.2636
18260TIP3   OH276270   2.612   3.449  14.562 -0.0990 -0.2297 -0.0350
18260TIP3    H176271   2.586   3.504  14.636  0.1938 -1.0201  0.6758
18260TIP3    H276272   2.702   3.423  14.582 -0.8948 -2.6759  0.7527
18261TIP3   OH276273   4.331   3.928  12.109 -0.3108 -0.9695 -0.4380
18261TIP3    H176274   4.269   3.862  12.141  0.8946 -1.8807  0.1016
18261TIP3    H276275   4.372   3.887  12.033 -0.4626 -0.3212 -0.8736
18262TIP3   OH276276   0.482   2.026   1.868  0.0306  0.0311  0.2670
18262TIP3    H176277   0.434   2.104   1.839 -1.1217 -0.1496  1.6198
18262TIP3    H276278   0.565   2.030   1.819 -1.4764  0.1069 -2.4645
18263TIP3   OH276279   3.735   4.234   2.224  0.1836  0.4582 -0.2127
18263TIP3    H176280   3.770   4.299   2.285  1.2514 -1.2623  1.0895
18263TIP3    H276281   3.765   4.265   2.138  1.7711  1.0362  0.5041
18264TIP3   OH276282   5.556   2.693  15.441  0.3475 -0.0392  0.2146
18264TIP3    H176283   5.502   2.626  15.398 -0.1356  0.8714 -0.6317
18264TIP3    H276284   5.640   2.688  15.396  0.3991 -0.2536  0.3327
18265TIP3   OH276285   0.304   1.606   4.046  0.0137 -0.1829  0.5144
18265TIP3    H176286   0.349   1.689   4.033 -0.9231  0.2774  0.1128
18265TIP3    H276287   0.275   1.608   4.137 -0.7809  0.3317  0.2576
18266TIP3   OH276288   5.015   1.793  13.840 -0.1498  0.0607 -0.1242
18266TIP3    H176289   4.971   1.834  13.765  0.5680 -0.6856 -0.9826
18266TIP3    H276290   5.105   1.780  13.810  0.9102  2.2162  1.8467
18267TIP3   OH276291   0.325   3.117   4.544  0.0863 -0.2554  0.2558
18267TIP3    H176292   0.316   3.137   4.638 -0.4834  0.9076 -0.0285
18267TIP3    H276293   0.303   3.024   4.538  0.5524 -0.4576  1.3362
18268TIP3   OH276294   4.299   0.545  15.190  0.5407  0.2341 -0.1192
18268TIP3    H176295   4.345   0.580  15.266  0.0053  2.6093 -0.8239
18268TIP3    H276296   4.244   0.475  15.226 -0.2899  1.8002  1.8665
18269TIP3   OH276297   3.984   0.340  11.795  0.6161 -0.0295  0.1597
18269TIP3    H176298   3.912   0.385  11.752 -0.1601 -1.2640  0.1218
18269TIP3    H276299   3.979   0.250  11.763  1.9773 -0.2181  0.4034
18270TIP3   OH276300   3.407   3.323   1.768 -0.0351 -0.4808  0.5618
18270TIP3    H176301   3.312   3.338   1.776  0.3286  1.1332  3.2899
18270TIP3    H276302   3.440   3.336   1.857  2.7725 -0.9876 -0.3275
18271TIP3   OH276303   4.057   4.558  16.523  0.2715  0.3025 -0.2189
18271TIP3    H176304   4.118   4.535  16.592 -0.1896  0.5198  0.2693
18271TIP3    H276305   4.048   4.478  16.471  0.5061  0.0935  0.0591
18272TIP3   OH276306   6.482   2.558  10.654  0.4442 -0.4655  0.4079
18272TIP3    H176307   6.404   2.501  10.651  1.3654 -1.7666  0.4100
18272TIP3    H276308   6.447   2.646  10.641 -1.1490 -0.9105  1.3591
18273TIP3   OH276309   6.161   3.218  16.481 -0.3974  0.3792 -0.3824
18273TIP3    H176310   6.124   3.271  16.410 -0.1671  3.1159  1.4030
18273TIP3    H276311   6.255   3.234  16.476 -0.5529  2.6872  1.9358
18274TIP3   OH276312   3.304   1.136  13.223  0.5926  1.1432  0.5891
18274TIP3    H176313   3.343   1.111  13.139  2.1887  1.9787  1.0424
18274TIP3    H276314   3.210   1.138  13.206  0.7923  0.1002 -0.8458
18275TIP3   OH276315   5.882   5.973  12.008  0.6147  0.5849 -0.5460
18275TIP3    H176316   5.873   6.020  12.091  2.4882  0.6317 -0.3188
18275TIP3    H276317   5.974   5.946  12.006  0.5652  0.4171 -2.5291
18276TIP3   OH276318   5.386   1.263   4.333 -1.3387 -0.4898  0.0130
18276TIP3    H176319   5.481   1.267   4.334 -1.3046 -1.3166  0.6935
18276TIP3    H276320   5.358   1.354   4.324 -0.4937  0.0517  2.1562
18277TIP3   OH276321   4.423   5.255   5.275  0.5763  0.1952 -0.2569
18277TIP3    H176322   4.353   5.198   5.242  0.6158  0.1001 -0.1758
18277TIP3    H276323   4.413   5.336   5.224  1.7592 -0.5788 -1.8006
18278TIP3   OH276324   6.422   3.763  13.736  0.1244 -0.0161 -0.8352
18278TIP3    H176325   6.334   3.778  13.702  0.0202 -1.1434 -1.0845
18278TIP3    H276326   6.444   3.674  13.709  1.9834  0.7781 -2.1870
18279TIP3   OH276327   5.705   3.760  17.063  0.3689 -0.2945  0.0391
18279TIP3    H176328   5.686   3.738  17.154 -2.7075 -1.3660 -0.7556
18279TIP3    H276329   5.799   3.778  17.062  0.9972 -2.7201  2.9314
18280TIP3   OH276330   6.545   0.323   2.589 -0.2073  0.0497 -0.1112
18280TIP3    H176331   6.550   0.404   2.640 -0.1081 -0.1775  0.2403
18280TIP3    H276332   6.528   0.255   2.653 -0.4651 -0.1885 -0.4261
18281TIP3   OH276333   4.421   0.702  13.090  0.3611  0.5515  0.6355
18281TIP3    H176334   4.380   0.686  13.005 -2.3187  0.8082  1.7883
18281TIP3    H276335   4.501   0.751  13.070  0.7103 -0.8772 -1.8130
18282TIP3   OH276336   5.889   1.299  13.722  0.0264  0.0339  0.5189
18282TIP3    H176337   5.945   1.318  13.797  1.6587 -0.5639 -0.5141
18282TIP3    H276338   5.861   1.208  13.736  0.6944 -0.2257  0.1829
18283TIP3   OH276339   0.796   6.604   0.344  0.1109 -0.1381 -0.4917
18283TIP3    H176340   0.730   6.662   0.382  1.3908  1.6340 -0.8514
18283TIP3    H276341   0.867   6.603   0.409  0.3859 -0.8111 -0.7888
18284TIP3   OH276342   5.451   0.035   0.684 -0.2212  0.0159  0.1551
18284TIP3    H176343   5.359   0.061   0.679  0.0542  0.9891 -0.0359
18284TIP3    H276344   5.499   0.112   0.653  0.6320 -0.6691 -0.2516
18285TIP3   OH276345   0.071   2.507   4.048  0.7230 -0.3794 -0.1522
18285TIP3    H176346   0.065   2.602   4.036 -1.2821 -0.4908 -0.2537
18285TIP3    H276347   0.159   2.485   4.016  1.1185  1.3952 -0.3852
18286TIP3   OH276348   2.947   0.632   5.398 -0.0007  0.0132  0.0506
18286TIP3    H176349   2.904   0.610   5.481 -0.9298  1.4022 -0.0357
18286TIP3    H276350   3.040   0.637   5.420 -0.1026 -0.8116  0.7296
18287TIP3   OH276351   5.554   0.691   1.147  0.2439 -0.1978  0.2921
18287TIP3    H176352   5.567   0.785   1.160  0.2630  0.1709 -1.9722
18287TIP3    H276353   5.462   0.676   1.168  0.7376 -0.1547  2.8123
18288TIP3   OH276354   3.044   0.422  12.302 -0.0774  0.1057 -0.3329
18288TIP3    H176355   3.087   0.360  12.362  0.0313  2.5174  2.2801
18288TIP3    H276356   2.951   0.411  12.319 -0.1350 -0.2135 -0.8307
18289TIP3   OH276357   5.055   1.976   3.662  0.2195  0.3196  0.2133
18289TIP3    H176358   5.139   1.990   3.705 -0.3954  2.6250  0.7842
18289TIP3    H276359   5.078   1.957   3.571  1.3620  1.3474  0.2620
18290TIP3   OH276360   6.247   4.157   5.908 -0.6657  0.1539  0.2087
18290TIP3    H176361   6.229   4.063   5.903  1.9543 -0.5772  2.3199
18290TIP3    H276362   6.168   4.195   5.948 -1.5280 -1.2239 -0.1448
18291TIP3   OH276363   4.477   2.930   1.314  0.3838  0.6723  0.1294
18291TIP3    H176364   4.470   3.001   1.378 -0.6043 -0.4442  1.3160
18291TIP3    H276365   4.484   2.851   1.367 -0.6699 -0.3106 -1.1450
18292TIP3   OH276366   5.795   4.099   4.488 -0.1111  0.0819 -0.3538
18292TIP3    H176367   5.846   4.146   4.421  0.0789  1.2668  0.5876
18292TIP3    H276368   5.707   4.136   4.480  0.4864  2.1980  1.7492
18293TIP3   OH276369   0.210   3.933   5.973  0.5624 -0.3323  0.0947
18293TIP3    H176370   0.192   3.964   6.062  2.4619 -0.8201  0.6866
18293TIP3    H276371   0.154   3.855   5.964  1.3206 -1.0789  1.4044
18294TIP3   OH276372   0.730   3.619  15.850 -0.9265  0.5568 -0.1785
18294TIP3    H176373   0.755   3.694  15.795 -2.3939  1.0083 -0.2541
18294TIP3    H276374   0.689   3.658  15.926  1.3209 -0.0463  1.4603
18295TIP3   OH276375   1.283   2.017   1.903 -0.1300  0.2739 -0.7693
18295TIP3    H176376   1.252   2.108   1.897  0.2228  0.7440  2.4993
18295TIP3    H276377   1.365   2.016   1.854 -0.2818  1.6530 -1.0906
18296TIP3   OH276378   4.307   3.553   0.736 -0.0525  0.0912  0.1619
18296TIP3    H176379   4.301   3.468   0.691  2.4244  1.0459 -2.2709
18296TIP3    H276380   4.392   3.588   0.709  0.4189  2.0331  3.5663
18297TIP3   OH276381   5.017   1.990   1.700 -0.0529  0.5695  0.0562
18297TIP3    H176382   4.958   2.062   1.723 -0.4453  0.4713 -0.6262
18297TIP3    H276383   5.002   1.976   1.607  0.3766 -0.0763  0.0813
18298TIP3   OH276384   4.017   6.032  11.282  0.0182  0.1680  0.1455
18298TIP3    H176385   3.963   6.038  11.203  0.6218 -0.8617 -0.3570
18298TIP3    H276386   3.955   6.014  11.352 -0.2928 -1.3130 -0.4714
18299TIP3   OH276387   4.778   3.186   2.072  0.1001  0.3016  0.0607
18299TIP3    H176388   4.748   3.277   2.075  0.9138  0.5679  1.0000
18299TIP3    H276389   4.780   3.159   2.164 -1.3868 -1.1099 -0.2965
18300TIP3   OH276390   2.218   6.421   1.640 -0.1532 -0.1546 -0.2031
18300TIP3    H176391   2.158   6.438   1.567  0.9994  0.3100 -1.0725
18300TIP3    H276392   2.183   6.343   1.683 -0.4578 -0.8725 -1.7046
18301TIP3   OH276393   5.183   5.450   5.861 -0.3652  0.1718 -0.2901
18301TIP3    H176394   5.174   5.492   5.776  0.6153  0.1854 -0.4011
18301TIP3    H276395   5.258   5.493   5.902  0.1309 -0.8716 -0.0514
18302TIP3   OH276396   0.097   5.283   5.171  0.5979  0.6077 -0.3719
18302TIP3    H176397   0.103   5.290   5.266  1.4272 -1.2072 -0.2568
18302TIP3    H276398   0.172   5.229   5.145  0.3832  1.0470 -2.0647
18303TIP3   OH276399   4.226   3.877   5.642  0.4428 -0.6110 -0.2345
18303TIP3    H176400   4.209   3.842   5.555 -0.7382  0.3272 -0.4082
18303TIP3    H276401   4.141   3.871   5.687 -0.1627  2.8835 -0.6116
18304TIP3   OH276402   0.313   0.780  12.600  0.4199  0.0512 -0.0048
18304TIP3    H176403   0.239   0.775  12.661  0.8290 -0.5660  0.4497
18304TIP3    H276404   0.381   0.828  12.649  0.3452  0.5727 -0.4023
18305TIP3   OH276405   6.762   3.689  16.966 -0.2025 -0.5287 -0.4533
18305TIP3    H176406   6.675   3.650  16.974  0.1502 -1.2727 -0.1702
18305TIP3    H276407   6.769   3.713  16.873 -1.6770  1.8846 -0.0122
18306TIP3   OH276408   0.196   1.276   3.690  0.1624  0.1585 -0.1393
18306TIP3    H176409   0.208   1.361   3.647  2.1800  0.4488  0.8752
18306TIP3    H276410   0.106   1.277   3.721  0.0682  1.8255 -0.3902
18307TIP3   OH276411   0.787   3.997  11.953 -0.3140  0.2432 -0.2467
18307TIP3    H176412   0.855   4.007  12.020  0.4358 -1.2272 -0.7405
18307TIP3    H276413   0.789   3.904  11.931 -1.1292  0.5472 -1.7113
18308TIP3   OH276414   0.039   6.783   5.563  0.0857 -0.6352 -0.2732
18308TIP3    H176415   0.083   6.742   5.637  0.3274 -1.5623 -0.9070
18308TIP3    H276416   0.101   6.848   5.531  0.0207 -0.3010  0.2733
18309TIP3   OH276417   2.757   2.689  15.791  0.0189 -0.2105  0.5519
18309TIP3    H176418   2.762   2.757  15.724  1.0920 -0.1738  0.6527
18309TIP3    H276419   2.664   2.669  15.798 -0.1004 -0.4898 -1.2275
18310TIP3   OH276420   3.051   0.171  14.457  0.1547 -0.4291 -0.2467
18310TIP3    H176421   2.972   0.173  14.403  0.8008  3.4269 -1.3969
18310TIP3    H276422   3.018   0.180  14.546 -0.8689  2.2197 -0.7665
18311TIP3   OH276423   2.631   4.755   5.529 -0.3627 -0.3225  0.4085
18311TIP3    H176424   2.592   4.722   5.610 -1.0744 -0.0465  0.1884
18311TIP3    H276425   2.703   4.812   5.558 -0.0046 -0.9786  0.8180
18312TIP3   OH276426   1.459   5.596  13.574  0.0409  0.6210 -0.2610
18312TIP3    H176427   1.406   5.642  13.639 -0.7620 -1.4695  0.6642
18312TIP3    H276428   1.543   5.580  13.618 -0.1471  0.0774 -0.0940
18313TIP3   OH276429   2.270   4.155  13.549 -0.4420  0.0410 -0.3639
18313TIP3    H176430   2.289   4.086  13.612 -2.2590 -0.3503 -0.1872
18313TIP3    H276431   2.316   4.232  13.583 -0.4140 -0.4679  0.7878
18314TIP3   OH276432   1.598   4.293  17.178 -0.1279 -0.0356 -0.0972
18314TIP3    H176433   1.641   4.260  17.256  0.1154 -0.8916 -0.5832
18314TIP3    H276434   1.597   4.219  17.117 -1.1434  0.3402 -0.5676
18315TIP3   OH276435   4.734   1.188   0.085  0.2902 -0.5037  0.0561
18315TIP3    H176436   4.759   1.278   0.107  0.5544 -0.5540 -0.0349
18315TIP3    H276437   4.784   1.134   0.147 -0.1253 -0.5715  0.3318
18316TIP3   OH276438   5.464   1.318  11.718 -0.5016  0.2696  0.3599
18316TIP3    H176439   5.464   1.306  11.623 -0.7874 -0.6376  0.4665
18316TIP3    H276440   5.467   1.229  11.754 -2.0977  0.5279  1.2082
18317TIP3   OH276441   5.505   2.661  14.141  0.3273  0.3288  0.1141
18317TIP3    H176442   5.535   2.705  14.220 -1.3104  1.3620  0.2221
18317TIP3    H276443   5.409   2.659  14.150  0.2418 -1.7690 -0.6983
18318TIP3   OH276444   2.495   3.867  11.512 -0.2385  0.2067  0.2816
18318TIP3    H176445   2.477   3.861  11.418 -1.4256  2.4494  0.2877
18318TIP3    H276446   2.413   3.902  11.549  0.8064  1.0612  1.8827
18319TIP3   OH276447   0.906   2.704   0.722 -0.0120  0.4158 -0.8028
18319TIP3    H176448   0.827   2.725   0.772 -0.3598 -0.8598 -0.7939
18319TIP3    H276449   0.970   2.677   0.788 -0.4750 -1.2814 -1.0190
18320TIP3   OH276450   3.459   5.721   5.101  0.5107  0.0345  0.1254
18320TIP3    H176451   3.384   5.715   5.042  0.9521 -0.2127 -0.4252
18320TIP3    H276452   3.530   5.754   5.045  0.0802  3.3087  1.2978
18321TIP3   OH276453   1.736   1.224   3.546  0.5394  0.1798  0.2487
18321TIP3    H176454   1.792   1.171   3.602 -1.2357 -1.0194  0.9743
18321TIP3    H276455   1.664   1.252   3.603 -0.9945 -0.5575 -1.2269
18322TIP3   OH276456   3.257   4.216   0.120  0.2334 -0.2282  0.1901
18322TIP3    H176457   3.350   4.197   0.117  0.3310 -0.0214  1.2792
18322TIP3    H276458   3.246   4.295   0.068  0.0646 -2.1791 -3.0568
18323TIP3   OH276459   5.377   4.401  12.478 -0.4343 -0.6934 -0.1971
18323TIP3    H176460   5.305   4.345  12.506 -0.8245 -0.6354 -1.0449
18323TIP3    H276461   5.385   4.386  12.384  2.0452 -2.2527  0.1790
18324TIP3   OH276462   3.670   2.288  11.358 -0.1943 -0.1817  0.0751
18324TIP3    H176463   3.618   2.234  11.418 -1.3687  0.4788 -0.3149
18324TIP3    H276464   3.716   2.350  11.414 -1.0790  0.2635  0.3176
18325TIP3   OH276465   3.115   0.484  14.159 -0.4767 -0.6754 -0.3180
18325TIP3    H176466   3.183   0.551  14.157 -0.4874 -0.5692  1.2561
18325TIP3    H276467   3.069   0.499  14.242 -2.8107 -0.3816 -1.5991
18326TIP3   OH276468   2.243   5.160   0.236  0.0385  0.1506 -0.0643
18326TIP3    H176469   2.255   5.253   0.253 -1.7691  0.8304 -2.1515
18326TIP3    H276470   2.149   5.146   0.238  0.1847 -1.3121 -1.2398
18327TIP3   OH276471   0.559   1.658   3.389  0.1126 -0.2953  0.5927
18327TIP3    H176472   0.551   1.601   3.466  1.0630 -2.3738 -0.7546
18327TIP3    H276473   0.468   1.682   3.367 -0.2454 -0.5850  1.6918
18328TIP3   OH276474   2.748   4.289  14.030 -0.2122  0.2331  0.1350
18328TIP3    H176475   2.824   4.259  13.981 -0.6343  1.8353 -1.6038
18328TIP3    H276476   2.767   4.265  14.121  1.9601 -0.1722 -0.3766
18329TIP3   OH276477   1.637   5.447  12.865 -0.1557  0.2397 -0.2389
18329TIP3    H176478   1.719   5.413  12.902  0.1594 -2.0956 -2.7435
18329TIP3    H276479   1.613   5.519  12.923  3.4340  0.7722  0.8630
18330TIP3   OH276480   0.394   1.906  11.094 -0.3627 -0.2990  1.1199
18330TIP3    H176481   0.369   1.998  11.098 -0.8301 -0.4515  1.9817
18330TIP3    H276482   0.486   1.908  11.066 -0.9898  0.3104 -1.0910
18331TIP3   OH276483   6.007   5.627  12.291 -0.3704 -0.0640  0.2352
18331TIP3    H176484   5.914   5.647  12.281  0.0642  1.6141 -0.9435
18331TIP3    H276485   6.017   5.538  12.258 -1.6414 -0.5108  1.0010
18332TIP3   OH276486   5.491   1.951  11.050  1.0684 -0.7044  0.4725
18332TIP3    H176487   5.583   1.948  11.026  1.0501 -0.4558  0.3746
18332TIP3    H276488   5.447   1.989  10.974  1.3319  2.6321  1.8316
18333TIP3   OH276489   1.508   5.914   4.981  0.6168  0.1249  1.2023
18333TIP3    H176490   1.525   5.924   5.075 -2.0500 -0.3211  1.7905
18333TIP3    H276491   1.436   5.973   4.963 -0.5257 -1.5499 -0.0178
18334TIP3   OH276492   6.659   1.236  16.747 -0.5376 -0.2697  0.5325
18334TIP3    H176493   6.577   1.225  16.795  0.4289 -0.9478  2.1093
18334TIP3    H276494   6.721   1.268  16.813  0.6482 -0.4541 -0.4571
18335TIP3   OH276495   1.733   4.214  15.089  0.0059 -0.4379 -0.1199
18335TIP3    H176496   1.799   4.178  15.147 -1.5802 -1.5066  1.1256
18335TIP3    H276497   1.768   4.200  15.001  1.6370 -0.4988  0.5072
18336TIP3   OH276498   4.854   6.455   2.581 -0.3383 -0.5282  0.2641
18336TIP3    H176499   4.924   6.500   2.629 -1.9475  1.4068  0.9196
18336TIP3    H276500   4.861   6.364   2.610  1.1141 -0.1471  1.2673
18337TIP3   OH276501   0.677   3.876  11.034  0.0017 -0.2406 -0.5877
18337TIP3    H176502   0.616   3.871  11.108 -2.3866  2.1762 -2.1686
18337TIP3    H276503   0.764   3.868  11.073 -1.1898 -0.2669  2.3063
18338TIP3   OH276504   6.135   4.007  15.312 -0.5823  0.2398 -0.4304
18338TIP3    H176505   6.071   3.971  15.250 -2.6781  1.0863  1.1166
18338TIP3    H276506   6.213   4.022  15.260 -2.1430  0.6619 -2.8135
18339TIP3   OH276507   4.387   5.011   1.129 -0.2813 -0.2062 -0.1636
18339TIP3    H176508   4.383   4.984   1.037  1.1011 -1.0303  0.0025
18339TIP3    H276509   4.369   5.105   1.127 -1.0055 -0.3526 -1.1854
18340TIP3   OH276510   3.612   4.153  13.685 -0.1600 -0.1991 -0.0058
18340TIP3    H176511   3.603   4.124  13.594  1.2901  1.4023 -0.7386
18340TIP3    H276512   3.528   4.194  13.705 -0.3995 -0.3102 -0.7327
18341TIP3   OH276513   3.582   6.711   3.727  0.4725  0.4485  0.7012
18341TIP3    H176514   3.490   6.692   3.744 -0.4968  1.2020 -2.9571
18341TIP3    H276515   3.624   6.625   3.725 -0.7582 -0.1694 -0.3547
18342TIP3   OH276516   0.375   6.044   0.614  0.0443 -0.6533  0.6156
18342TIP3    H176517   0.393   6.120   0.669 -0.5446 -1.1869  1.5696
18342TIP3    H276518   0.412   6.067   0.529  0.8824  0.2298  1.2015
18343TIP3   OH276519   3.137   0.580   2.833 -0.6565 -0.5518  0.0535
18343TIP3    H176520   3.052   0.538   2.843 -1.3272  0.1158 -2.3098
18343TIP3    H276521   3.157   0.573   2.739  2.2546 -1.3374  0.6012
18344TIP3   OH276522   6.217   5.261  16.506  0.2547 -0.3196  0.7306
18344TIP3    H176523   6.309   5.248  16.529  0.0249  0.0024  1.9108
18344TIP3    H276524   6.216   5.343  16.456  0.9162 -1.6244 -1.5382
18345TIP3   OH276525   5.699   1.999   0.083 -0.4090  0.0496 -0.1899
18345TIP3    H176526   5.789   2.028   0.066  0.1065 -1.7583 -0.8424
18345TIP3    H276527   5.707   1.941   0.159 -0.6647 -1.5912 -1.3597
18346TIP3   OH276528   6.172   1.988   2.912 -0.2939  0.3356 -0.1765
18346TIP3    H176529   6.092   2.017   2.955 -0.2321  0.1836  0.0402
18346TIP3    H276530   6.148   1.905   2.869 -0.6469  1.0155 -1.3404
18347TIP3   OH276531   6.654   4.960   2.086  0.1149 -0.3594  0.4713
18347TIP3    H176532   6.689   5.010   2.160  0.0235 -0.4267  0.5590
18347TIP3    H276533   6.732   4.935   2.036  0.1504  0.0469  0.3159
18348TIP3   OH276534   5.326   6.331   1.059 -0.6769  0.4815 -0.1742
18348TIP3    H176535   5.351   6.242   1.033  2.0308  1.7529 -2.4830
18348TIP3    H276536   5.251   6.352   1.005 -0.2608  0.1849 -0.8770
18349TIP3   OH276537   6.604   1.370  17.164  0.7702  0.5703 -0.3295
18349TIP3    H176538   6.579   1.296  17.219  0.2772  0.2674 -0.9579
18349TIP3    H276539   6.523   1.419  17.152  0.8327  0.5309 -0.9416
18350TIP3   OH276540   3.406   5.575   6.595 -0.1952  0.0233 -0.1617
18350TIP3    H176541   3.408   5.535   6.508  0.3992 -0.2671 -0.0161
18350TIP3    H276542   3.316   5.562   6.625  0.1187 -1.7593  0.1323
18351TIP3   OH276543   3.247   3.749   0.507 -0.0025 -0.1232 -0.0586
18351TIP3    H176544   3.241   3.662   0.467 -0.5614  0.3489 -1.0444
18351TIP3    H276545   3.155   3.775   0.521  0.1680 -0.2852  1.6023
18352TIP3   OH276546   5.223   0.638   5.152  0.1253  0.3776  0.0280
18352TIP3    H176547   5.168   0.561   5.134  0.4609 -0.1307  1.0662
18352TIP3    H276548   5.162   0.706   5.178 -0.1652  0.4181 -0.7444
18353TIP3   OH276549   2.304   5.393   4.226 -0.0344 -0.3005 -0.4049
18353TIP3    H176550   2.316   5.310   4.180  1.6090  0.2571 -1.0757
18353TIP3    H276551   2.379   5.400   4.285 -0.2624  0.5943 -0.1936
18354TIP3   OH276552   4.021   2.959  14.167 -0.0380  0.3331 -0.3662
18354TIP3    H176553   3.946   2.981  14.222 -0.5036 -3.0821  0.5723
18354TIP3    H276554   4.096   2.968  14.226 -0.1536 -0.0165 -0.1638
18355TIP3   OH276555   6.470   5.701   1.178 -0.1178  0.3137 -0.1299
18355TIP3    H176556   6.434   5.731   1.261 -1.3310 -0.1569 -0.4554
18355TIP3    H276557   6.563   5.688   1.195 -0.1064  1.4211  0.8031
18356TIP3   OH276558   5.117   5.404   0.251 -0.0460  0.0304 -0.1755
18356TIP3    H176559   5.050   5.337   0.260  0.4836 -0.6719 -1.2331
18356TIP3    H276560   5.190   5.360   0.208  0.2259  1.3199 -1.1171
18357TIP3   OH276561   4.357   2.078  11.600 -0.7033  0.5793 -0.0375
18357TIP3    H176562   4.439   2.124  11.619  0.3085 -0.7852 -0.9167
18357TIP3    H276563   4.289   2.135  11.635  0.6540  1.4430  1.3225
18358TIP3   OH276564   3.130   3.367   1.061  0.0287  0.8794  0.2537
18358TIP3    H176565   3.097   3.292   1.012  1.1014  2.0223 -2.3881
18358TIP3    H276566   3.085   3.443   1.024  1.6750  1.8998  0.2007
18359TIP3   OH276567   0.129   6.389  12.155  0.3256 -0.7482 -0.2480
18359TIP3    H176568   0.114   6.321  12.221 -0.8548 -0.7926 -0.5399
18359TIP3    H276569   0.206   6.358  12.106  0.9672 -0.9169  0.8248
18360TIP3   OH276570   3.557   3.957   2.414  0.0374 -0.3200 -0.2266
18360TIP3    H176571   3.509   3.875   2.401  0.1967 -0.3162 -0.9103
18360TIP3    H276572   3.645   3.937   2.383 -0.7405  1.0527 -3.8076
18361TIP3   OH276573   4.383   5.015   6.516  0.2536  0.1981 -0.8479
18361TIP3    H176574   4.379   5.106   6.485 -0.8528 -0.2069 -1.9553
18361TIP3    H276575   4.413   4.965   6.441  2.8482 -0.1605  0.3075
18362TIP3   OH276576   0.075   3.086  12.123 -0.3074  0.1014 -0.2477
18362TIP3    H176577   0.031   3.171  12.130 -0.5270  0.1790 -2.1873
18362TIP3    H276578   0.166   3.108  12.104 -1.0590  0.0795 -5.0930
18363TIP3   OH276579   3.181   5.114   5.283  0.4197 -0.5743  0.2323
18363TIP3    H176580   3.092   5.081   5.298 -0.0725  1.3115  1.9370
18363TIP3    H276581   3.239   5.042   5.307 -0.6195 -1.0231  1.4907
18364TIP3   OH276582   5.849   2.914   4.238  0.7505  0.0089  0.0517
18364TIP3    H176583   5.827   2.895   4.330  1.2393 -0.1868  0.1325
18364TIP3    H276584   5.767   2.899   4.191  0.6305 -0.4154  0.3839
18365TIP3   OH276585   3.255   6.603   3.479 -0.3309  0.0238  0.5122
18365TIP3    H176586   3.252   6.535   3.411 -1.8666 -1.0774  1.6204
18365TIP3    H276587   3.321   6.572   3.541 -0.2720  0.0881  0.4819
18366TIP3   OH276588   4.575   0.404  16.096  0.2794 -0.5509  0.2381
18366TIP3    H176589   4.638   0.356  16.149  0.9697  0.5002  0.3844
18366TIP3    H276590   4.493   0.355  16.106  0.6266 -0.9041  1.5077
18367TIP3   OH276591   0.662   6.635   1.600  0.2493 -0.2468 -0.5023
18367TIP3    H176592   0.732   6.599   1.546  0.8255 -0.0735  0.1034
18367TIP3    H276593   0.705   6.656   1.683 -0.3461  0.6408 -0.4035
18368TIP3   OH276594   0.009   5.035  13.519  0.2989 -0.3356  0.1142
18368TIP3    H176595   0.093   5.079  13.529 -0.3412  1.1915 -0.8365
18368TIP3    H276596  -0.020   5.060  13.431 -2.1044  0.9761  1.1749
18369TIP3   OH276597   3.772   4.674  10.794 -0.0259  0.5420 -0.0336
18369TIP3    H176598   3.692   4.623  10.780  0.7562 -0.9291  0.6292
18369TIP3    H276599   3.753   4.728  10.871 -0.2727 -0.0318  0.3089
18370TIP3   OH276600   3.262   3.448  16.203 -0.0901 -0.6364 -0.3814
18370TIP3    H176601   3.284   3.436  16.111 -2.3752 -1.8229 -0.8465
18370TIP3    H276602   3.215   3.531  16.206 -1.3855 -1.3361 -0.6013
18371TIP3   OH276603   3.746   6.767   1.626  0.0437 -0.3850 -0.3025
18371TIP3    H176604   3.824   6.733   1.584  1.2072  0.1723  1.3029
18371TIP3    H276605   3.777   6.837   1.683 -1.2194 -1.7327  2.2481
18372TIP3   OH276606   6.157   5.955  14.778 -0.2447 -0.0013 -0.2058
18372TIP3    H176607   6.235   5.928  14.730 -0.1738  0.4206 -0.3295
18372TIP3    H276608   6.162   6.050  14.781 -1.3860  0.1217 -1.3063
18373TIP3   OH276609   3.415   1.680  15.050 -0.1049 -0.0683 -0.1804
18373TIP3    H176610   3.493   1.644  15.092 -0.0823  2.5093  2.2750
18373TIP3    H276611   3.443   1.765  15.016 -1.7427  0.7980  0.5175
18374TIP3   OH276612   0.720   2.354   5.751  0.2236  0.2420 -0.2326
18374TIP3    H176613   0.662   2.327   5.823 -1.5688 -1.8803 -2.3090
18374TIP3    H276614   0.808   2.335   5.783 -0.5843 -1.7034  1.0176
18375TIP3   OH276615   2.823   0.841  12.811  0.5744 -0.1979 -0.0068
18375TIP3    H176616   2.796   0.933  12.811  0.6501  0.0473 -4.5257
18375TIP3    H276617   2.908   0.841  12.855  1.1182  2.1582 -0.8973
18376TIP3   OH276618   2.554   5.857  15.956  0.1536  0.3039  0.3786
18376TIP3    H176619   2.534   5.831  15.866 -0.7167  0.4599  0.5157
18376TIP3    H276620   2.649   5.858  15.961  0.2338  1.3516 -0.8660
18377TIP3   OH276621   2.231   0.465  11.438  0.3824  0.1136  0.0595
18377TIP3    H176622   2.324   0.485  11.426  1.1559 -1.9817  1.8392
18377TIP3    H276623   2.217   0.388  11.383 -0.2634  0.2807 -0.0155
18378TIP3   OH276624   1.782   2.244  14.064  0.3238  0.4151 -0.2190
18378TIP3    H176625   1.778   2.260  13.970 -1.9751  0.5603 -0.1745
18378TIP3    H276626   1.812   2.327  14.102 -1.1788  1.2394 -0.7132
18379TIP3   OH276627   2.154   6.536  17.005  0.5823 -0.2049  0.2200
18379TIP3    H176628   2.210   6.610  16.982 -1.7666  0.9091 -2.5107
18379TIP3    H276629   2.110   6.563  17.086  2.0963 -0.0538  1.0182
18380TIP3   OH276630   3.761   2.972  10.788  0.1779 -0.0956 -0.2603
18380TIP3    H176631   3.856   2.966  10.795 -0.0170 -1.2297  2.1808
18380TIP3    H276632   3.736   3.042  10.849 -0.5771  0.2903 -0.9786
18381TIP3   OH276633   4.746   5.504  15.560  0.0109  0.1555  0.6049
18381TIP3    H176634   4.753   5.450  15.482  0.8732 -0.3942  1.0433
18381TIP3    H276635   4.795   5.456  15.627  0.9020  1.5358  0.9787
18382TIP3   OH276636   3.385   4.694   0.155  0.1748 -0.1309 -0.3432
18382TIP3    H176637   3.354   4.691   0.245  1.6408 -0.7245  0.1586
18382TIP3    H276638   3.416   4.606   0.136  0.1328  0.0510 -1.3486
18383TIP3   OH276639   4.988   2.177   0.532 -0.6610  0.2021 -0.5999
18383TIP3    H176640   5.060   2.131   0.576 -0.7007  0.6629 -0.0574
18383TIP3    H276641   4.978   2.130   0.449  0.0655 -0.0570 -0.5499
18384TIP3   OH276642   3.340   0.352   4.076 -1.0926  0.3569  0.1859
18384TIP3    H176643   3.315   0.302   3.998 -0.9158  3.0548 -1.7773
18384TIP3    H276644   3.435   0.366   4.065 -1.2235  1.4826  0.3905
18385TIP3   OH276645   6.058   4.079  12.025  0.2160  0.2696  0.3814
18385TIP3    H176646   6.029   4.070  12.116 -0.7170 -0.3758  0.0403
18385TIP3    H276647   6.001   4.146  11.989 -0.4165 -0.5086 -0.1069
18386TIP3   OH276648   2.900   5.580   1.882  0.1131 -0.0466 -0.3390
18386TIP3    H176649   2.929   5.543   1.799  0.1285  1.1365 -0.8820
18386TIP3    H276650   2.965   5.549   1.946  0.1739 -0.8535 -0.7838
18387TIP3   OH276651   3.332   2.421   1.602  0.3008  0.0379 -0.1381
18387TIP3    H176652   3.355   2.328   1.596  0.6127  0.1263 -0.2992
18387TIP3    H276653   3.395   2.457   1.665 -0.2261  0.0092  0.4162
18388TIP3   OH276654   2.644   3.297   1.274  0.2900 -0.3719  0.1033
18388TIP3    H176655   2.686   3.271   1.356  2.0472  0.1741 -0.5703
18388TIP3    H276656   2.638   3.392   1.280 -1.8549 -0.4918  0.6055
18389TIP3   OH276657   1.520   6.622   3.971 -0.0100 -0.2803 -0.2378
18389TIP3    H176658   1.541   6.712   3.948 -2.2723  0.6889  1.1787
18389TIP3    H276659   1.503   6.580   3.886 -0.9177  1.1980 -0.8379
18390TIP3   OH276660   4.340   2.096   1.984  0.1288  0.4444 -0.3370
18390TIP3    H176661   4.251   2.099   1.950 -0.1575 -0.3362  0.3045
18390TIP3    H276662   4.396   2.100   1.906 -0.5195 -2.7077 -1.0924
18391TIP3   OH276663   4.604   1.314  12.162  0.4655 -0.0693 -0.3180
18391TIP3    H176664   4.614   1.408  12.177  0.4211 -0.0343 -0.5056
18391TIP3    H276665   4.535   1.287  12.223 -0.2724  0.2213 -1.0069
18392TIP3   OH276666   2.542   1.857   0.645 -0.7773  0.0629  0.0631
18392TIP3    H176667   2.541   1.877   0.552 -0.1886 -1.4509 -0.3032
18392TIP3    H276668   2.466   1.902   0.681  1.1706  4.1273 -0.3422
18393TIP3   OH276669   2.431   3.879  16.156  0.1926 -0.4761  0.2149
18393TIP3    H176670   2.438   3.968  16.189 -1.9341  0.5503 -1.8723
18393TIP3    H276671   2.338   3.865  16.140  0.7613 -1.6466 -3.0452
18394TIP3   OH276672   6.366   6.198  13.071  0.1965 -0.1690  0.2751
18394TIP3    H176673   6.302   6.136  13.035  1.0963 -0.5467 -0.7300
18394TIP3    H276674   6.317   6.280  13.081 -0.4149 -0.4025 -0.6313
18395TIP3   OH276675   0.155   0.486   6.190  0.1124  0.2061  0.1922
18395TIP3    H176676   0.105   0.424   6.243 -0.2415  0.1655 -0.1859
18395TIP3    H276677   0.246   0.457   6.200  0.0396  0.1430  0.6965
18396TIP3   OH276678   0.710   5.633   1.589  0.4520  0.2009  0.0580
18396TIP3    H176679   0.706   5.541   1.614 -0.7346  0.0894 -0.4631
18396TIP3    H276680   0.717   5.633   1.494  0.4237  0.6532  0.0514
18397TIP3   OH276681   0.935   4.104  11.019 -1.0416  0.4765 -0.2309
18397TIP3    H176682   0.896   4.131  11.102 -0.2806  0.3448  0.1878
18397TIP3    H276683   0.862   4.077  10.964 -1.6165  1.2479  0.1449
18398TIP3   OH276684   5.987   3.798  11.983 -0.1358 -0.3792 -0.4502
18398TIP3    H176685   6.044   3.873  11.968 -0.8992  0.2817 -0.1304
18398TIP3    H276686   5.961   3.806  12.075 -0.8950 -0.5506 -0.6468
18399TIP3   OH276687   5.641   2.265  15.089 -0.2316  0.2017 -0.8063
18399TIP3    H176688   5.680   2.207  15.154  0.0225  1.5932  0.3264
18399TIP3    H276689   5.715   2.306  15.045 -0.4025  0.6017 -0.7275
18400TIP3   OH276690   5.754   5.096   3.035 -0.1391 -0.1301 -0.0009
18400TIP3    H176691   5.832   5.132   2.991 -0.8229 -0.2600 -1.3920
18400TIP3    H276692   5.687   5.163   3.022 -0.2999 -0.0696  1.0884
18401TIP3   OH276693   3.405   2.062  12.392 -0.3166  0.0503  0.1201
18401TIP3    H176694   3.404   2.017  12.477  1.3160  0.0713  0.1784
18401TIP3    H276695   3.377   1.995  12.329  0.9215 -0.7330  0.3639
18402TIP3   OH276696   5.475   1.994  12.538 -0.1025 -0.1708  0.0571
18402TIP3    H176697   5.504   1.927  12.600  0.1311 -0.7778 -0.7104
18402TIP3    H276698   5.390   2.023  12.572 -0.1861 -0.8206  0.4082
18403TIP3   OH276699   0.872   2.818  16.911  0.2838  0.3173 -0.1021
18403TIP3    H176700   0.919   2.752  16.962  0.8063  0.3454 -0.5348
18403TIP3    H276701   0.855   2.777  16.827  0.7442  0.7740 -0.4269
18404TIP3   OH276702   2.007   6.322   0.711  0.9726  0.3807 -0.4167
18404TIP3    H176703   1.917   6.309   0.683  1.2910 -1.9824 -0.5812
18404TIP3    H276704   2.030   6.410   0.681 -0.8929  0.5680 -1.4127
18405TIP3   OH276705   5.513   5.262  17.146 -0.3122  0.1400  0.1456
18405TIP3    H176706   5.586   5.322  17.133 -0.8105  0.6814 -0.2663
18405TIP3    H276707   5.547   5.192  17.201 -0.0713  1.4689  1.7487
18406TIP3   OH276708   4.824   3.033   4.655  0.2594 -0.5999  0.1704
18406TIP3    H176709   4.852   2.947   4.625 -1.6501 -1.0483 -0.4828
18406TIP3    H276710   4.846   3.035   4.748  0.2692 -1.8291  0.2058
18407TIP3   OH276711   2.723   6.758  10.961  0.3229 -0.0752 -0.2311
18407TIP3    H176712   2.780   6.827  10.926  1.1053 -0.6133 -0.0363
18407TIP3    H276713   2.635   6.796  10.958  0.7643  1.0086  0.0653
18408TIP3   OH276714   6.159   2.633  16.083  0.6798  0.0799  0.1162
18408TIP3    H176715   6.196   2.686  16.153  0.9009  0.7529 -0.4994
18408TIP3    H276716   6.211   2.655  16.006 -1.3571  1.5318 -0.9270
18409TIP3   OH276717   5.760   1.279   2.201 -0.8084 -0.3967  0.4775
18409TIP3    H176718   5.819   1.216   2.160 -1.7747 -0.3716 -1.0149
18409TIP3    H276719   5.674   1.238   2.195 -1.4947  1.1582 -0.7520
18410TIP3   OH276720   2.895   3.766  14.744 -0.5880 -0.1995  0.0714
18410TIP3    H176721   2.809   3.781  14.705 -0.3821  0.4663 -0.1432
18410TIP3    H276722   2.958   3.789  14.676 -0.2056 -2.5812 -0.4747
18411TIP3   OH276723   6.652   2.975   4.590  0.4493 -0.3383 -0.2054
18411TIP3    H176724   6.632   3.014   4.505 -3.0418  1.4650  1.2449
18411TIP3    H276725   6.728   3.024   4.621 -1.0093  2.2209 -0.4263
18412TIP3   OH276726   4.659   2.604  15.743 -0.4709  0.1678 -0.0791
18412TIP3    H176727   4.696   2.590  15.830  1.6606  0.1151 -0.9096
18412TIP3    H276728   4.593   2.537  15.733  1.4410 -1.9102  0.3666
18413TIP3   OH276729   6.275   0.415  13.333 -0.0329 -0.0842 -0.5062
18413TIP3    H176730   6.323   0.473  13.274  1.4361 -0.9736 -0.2280
18413TIP3    H276731   6.220   0.474  13.385  0.8824  0.9911 -0.7128
18414TIP3   OH276732   2.166   6.076  13.091 -0.2302  0.2419 -0.0048
18414TIP3    H176733   2.146   6.038  13.176  0.3729 -0.4346 -0.1632
18414TIP3    H276734   2.139   6.168  13.100 -0.0905  0.2024  0.9401
18415TIP3   OH276735   3.153   5.817   0.370 -0.6018  0.8214 -0.0901
18415TIP3    H176736   3.203   5.781   0.297 -2.6034 -1.5172 -0.4502
18415TIP3    H276737   3.157   5.912   0.358  1.6264  0.6023 -1.4521
18416TIP3   OH276738   0.561   1.138   0.900 -0.1350  0.1974  0.0909
18416TIP3    H176739   0.483   1.133   0.844 -0.0123 -0.1588 -0.0566
18416TIP3    H276740   0.583   1.231   0.904 -1.9084  0.6022  2.0012
18417TIP3   OH276741   5.886   1.255  15.224 -0.4752 -0.2033  0.0896
18417TIP3    H176742   5.966   1.204  15.239 -1.4789 -1.9095 -0.1458
18417TIP3    H276743   5.886   1.272  15.130  0.0564  0.6342  0.2223
18418TIP3   OH276744   0.702   3.689   1.647 -0.5661  0.3710 -0.2519
18418TIP3    H176745   0.613   3.671   1.678 -0.1731 -0.7987  0.2449
18418TIP3    H276746   0.692   3.697   1.552 -1.0311 -1.0179 -0.3413
18419TIP3   OH276747   4.293   3.742   3.836 -0.2792  0.0942 -0.4720
18419TIP3    H176748   4.295   3.727   3.741 -1.7218  0.1859 -0.5374
18419TIP3    H276749   4.278   3.655   3.873 -0.4960  0.1729 -0.3751
18420TIP3   OH276750   6.755   4.576   5.049 -0.0489 -0.5069  0.1024
18420TIP3    H176751   6.689   4.610   4.989  0.5692  0.3386 -0.1131
18420TIP3    H276752   6.819   4.647   5.057  2.1421 -2.1740 -1.6230
18421TIP3   OH276753   2.375   1.002  15.598 -0.1842  0.4292 -0.0968
18421TIP3    H176754   2.352   0.910  15.615  1.2003  0.3469  1.6053
18421TIP3    H276755   2.295   1.050  15.613 -0.6670 -0.3984  0.0454
18422TIP3   OH276756   3.323   3.023   3.872 -0.3195 -0.1825  0.1748
18422TIP3    H176757   3.276   3.053   3.794  0.0069 -0.4786 -0.1385
18422TIP3    H276758   3.409   2.995   3.839  0.0416  0.2516  0.7189
18423TIP3   OH276759   2.639   5.776  13.794  0.2427 -0.0187 -0.4227
18423TIP3    H176760   2.707   5.807  13.853  0.4515  0.8699 -1.1059
18423TIP3    H276761   2.687   5.725  13.728  0.2209  0.4400 -0.7926
18424TIP3   OH276762   1.978   5.717   5.706  0.5502 -0.3703  0.0340
18424TIP3    H176763   1.938   5.664   5.775 -1.2447 -0.1602 -0.7993
18424TIP3    H276764   2.033   5.655   5.658  0.3794 -0.9327  0.5369
18425TIP3   OH276765   3.338   0.959  10.934 -0.8369 -0.1398 -0.0182
18425TIP3    H176766   3.246   0.952  10.959 -1.1821  1.7542 -0.5903
18425TIP3    H276767   3.335   0.992  10.844  0.4057 -0.0994 -0.0533
18426TIP3   OH276768   6.081   0.853  13.786  0.1139 -0.1853  0.0363
18426TIP3    H176769   6.108   0.762  13.773  2.2487  0.6342 -1.9592
18426TIP3    H276770   6.076   0.864  13.881  1.3314 -1.9771  0.3493
18427TIP3   OH276771   6.670   4.592   1.112  0.7738  0.4282  0.0960
18427TIP3    H176772   6.749   4.539   1.101  0.3220 -0.6270  1.5980
18427TIP3    H276773   6.689   4.650   1.186 -0.5478 -1.3739  1.9817
18428TIP3   OH276774   4.275   6.715   1.621 -0.3604 -0.6836 -0.5285
18428TIP3    H176775   4.354   6.665   1.603  0.5910  0.3736  0.5711
18428TIP3    H276776   4.282   6.793   1.567 -1.1565 -1.0385 -1.1750
18429TIP3   OH276777   3.990   2.389  12.398 -0.0256 -0.0749 -0.1720
18429TIP3    H176778   4.077   2.378  12.437  0.0648  0.9125 -0.0599
18429TIP3    H276779   3.965   2.479  12.421 -1.0631 -0.3360 -0.2306
18430TIP3   OH276780   4.316   4.563  14.643  0.3267 -0.0932  0.9656
18430TIP3    H176781   4.288   4.534  14.556 -0.5222 -0.3449  1.3098
18430TIP3    H276782   4.410   4.544  14.645  0.4137  0.1426  0.0192
18431TIP3   OH276783   1.341   5.511  12.159  0.1740 -0.2634  0.2517
18431TIP3    H176784   1.427   5.510  12.117 -0.1308 -0.0614 -0.3861
18431TIP3    H276785   1.300   5.429  12.131 -0.0903 -0.0540  0.0236
18432TIP3   OH276786   3.009   2.286   1.773  0.6393  0.0796 -0.1744
18432TIP3    H176787   3.018   2.354   1.706 -0.0586  1.2636  0.8787
18432TIP3    H276788   2.961   2.216   1.729  1.1230  0.3775 -1.2090
18433TIP3   OH276789   4.777   0.022   6.029  0.2653  0.7398  0.6911
18433TIP3    H176790   4.783   0.116   6.011  1.2469  0.4822 -0.5194
18433TIP3    H276791   4.867  -0.004   6.049 -0.1010  0.1607  1.6435
18434TIP3   OH276792   0.217   2.075   2.043  0.1532  0.3331 -0.3326
18434TIP3    H176793   0.242   1.994   1.999 -0.8380 -0.9633  1.3893
18434TIP3    H276794   0.237   2.061   2.135 -1.7012  1.3068  0.2908
18435TIP3   OH276795   2.185   3.311  14.407 -0.1700  0.5962  0.0623
18435TIP3    H176796   2.132   3.232  14.396  0.7856 -0.4943  2.6310
18435TIP3    H276797   2.262   3.295  14.352  0.0534 -0.3397  0.6206
18436TIP3   OH276798   3.058   4.945  16.118  0.1114  0.1304  0.2418
18436TIP3    H176799   2.972   4.973  16.148 -0.6031 -1.8880  0.1923
18436TIP3    H276800   3.115   4.953  16.194 -0.1534  1.2234  0.3406
18437TIP3   OH276801   4.304   0.752   0.826  0.4159 -0.6214 -0.0762
18437TIP3    H176802   4.251   0.672   0.834 -0.2255 -0.4700 -2.0159
18437TIP3    H276803   4.295   0.776   0.734  1.6507  0.9849  0.1843
18438TIP3   OH276804   2.491   0.278   4.746 -1.2137  0.0088 -0.5410
18438TIP3    H176805   2.560   0.254   4.685 -1.5940 -0.9314 -0.6104
18438TIP3    H276806   2.508   0.370   4.766  1.3266 -0.7279  1.1172
18439TIP3   OH276807   6.065   4.858   3.041  0.8576 -0.3233  0.3424
18439TIP3    H176808   6.061   4.927   2.975 -0.0769 -0.5511  0.1448
18439TIP3    H276809   6.125   4.793   3.004  1.8501  0.4262  0.5922
18440TIP3   OH276810   1.939   2.104   2.184 -0.3269 -0.4559  0.0002
18440TIP3    H176811   1.913   2.056   2.105  1.2289 -1.2464 -0.0654
18440TIP3    H276812   1.916   2.044   2.256  1.3922 -1.2456 -0.0685
18441TIP3   OH276813   4.543   5.354  13.703  0.3772  0.0601 -0.4457
18441TIP3    H176814   4.462   5.394  13.671  0.4141 -0.1650 -0.8307
18441TIP3    H276815   4.613   5.406  13.664  0.4328 -0.6716 -1.3603
18442TIP3   OH276816   1.479   1.511  16.771  0.6713 -0.0824  0.0921
18442TIP3    H176817   1.566   1.547  16.757  0.6738 -0.3530 -0.5952
18442TIP3    H276818   1.485   1.464  16.854  1.0817  0.1898  0.2191
18443TIP3   OH276819   3.920   3.582   6.672  0.0671  0.3602 -0.0555
18443TIP3    H176820   3.852   3.555   6.610 -1.6813  1.7948  1.1299
18443TIP3    H276821   3.928   3.676   6.659  0.5585  0.4851  1.0561
18444TIP3   OH276822   1.971   1.724  13.852 -0.2098  0.5215 -0.4571
18444TIP3    H176823   1.975   1.802  13.908 -0.1711  1.1422 -1.2863
18444TIP3    H276824   2.053   1.678  13.869 -0.4123  0.4526  0.3379
18445TIP3   OH276825   0.536   3.977  16.822 -0.0058 -0.2710  0.1364
18445TIP3    H176826   0.536   4.056  16.768 -0.5755 -1.0505 -1.0402
18445TIP3    H276827   0.494   4.004  16.904 -0.4294  0.5891 -0.3527
18446TIP3   OH276828   5.152   4.110   3.044 -0.2135 -0.2779 -0.8562
18446TIP3    H176829   5.176   4.184   2.988 -3.0794  0.8477 -0.7443
18446TIP3    H276830   5.056   4.109   3.044 -0.3425 -1.5251  2.3182
18447TIP3   OH276831   4.730   2.563  12.898  0.1433  0.3513  0.4027
18447TIP3    H176832   4.772   2.644  12.926 -0.4212  0.7594  0.0955
18447TIP3    H276833   4.691   2.584  12.813  1.0311 -0.5946 -0.2754
18448TIP3   OH276834   3.595   0.786   5.324  0.5551 -0.2462 -0.6980
18448TIP3    H176835   3.621   0.796   5.415  1.7100 -0.9635 -0.9266
18448TIP3    H276836   3.641   0.857   5.278  1.5747 -1.0592 -0.9885
18449TIP3   OH276837   0.389   3.578   0.116 -0.1481  0.0423 -0.0120
18449TIP3    H176838   0.476   3.566   0.077  0.1492  0.2950  0.5541
18449TIP3    H276839   0.395   3.536   0.201 -0.7211 -0.3064 -0.1378
18450TIP3   OH276840   0.696   1.785  10.573  0.2167  0.8096  0.0550
18450TIP3    H176841   0.624   1.847  10.586 -1.0389 -0.4856 -0.4017
18450TIP3    H276842   0.700   1.773  10.478 -1.0955 -1.4684  0.2276
18451TIP3   OH276843   3.523   5.289  16.453 -0.1803  0.0683 -0.1112
18451TIP3    H176844   3.543   5.383  16.458  0.4385 -0.1274  2.0251
18451TIP3    H276845   3.605   5.249  16.424  1.2556 -0.2030  3.6736
18452TIP3   OH276846   4.396   2.149   5.907  0.2263 -0.4676 -0.8220
18452TIP3    H176847   4.417   2.200   5.985  1.7844 -0.7003 -1.0539
18452TIP3    H276848   4.450   2.070   5.916  0.1383 -0.6635 -1.9498
18453TIP3   OH276849   2.241   0.298   1.950 -0.3213  0.1059 -0.1040
18453TIP3    H176850   2.331   0.307   1.981 -0.3166  1.0002 -0.3414
18453TIP3    H276851   2.211   0.215   1.986  0.5270 -0.0974  0.1553
18454TIP3   OH276852   2.753   5.488  10.647  0.4482 -0.2476 -0.3877
18454TIP3    H176853   2.842   5.489  10.681  0.6711 -2.0259 -0.8024
18454TIP3    H276854   2.728   5.396  10.650 -1.6547  0.2971  0.3902
18455TIP3   OH276855   0.275   1.983   0.858  0.0796  0.0522  0.2200
18455TIP3    H176856   0.245   2.008   0.945  1.1719 -1.5482  1.1069
18455TIP3    H276857   0.199   1.994   0.802 -0.2016  2.7276  1.0094
18456TIP3   OH276858   3.944   2.014  14.460  0.0881  0.4517 -0.1910
18456TIP3    H176859   3.870   1.961  14.432 -0.6044  1.5902 -0.5728
18456TIP3    H276860   4.012   1.995  14.396 -0.3672  0.5023 -0.6965
18457TIP3   OH276861   0.867   4.681   0.760  0.0711  0.4419  0.5865
18457TIP3    H176862   0.823   4.692   0.844 -0.3027 -2.2900  0.8304
18457TIP3    H276863   0.959   4.664   0.783  0.5453  2.3588  0.2620
18458TIP3   OH276864   5.532   5.682  13.982 -0.0637 -0.3384  0.0881
18458TIP3    H176865   5.561   5.773  13.975  0.5677 -0.6343 -1.5597
18458TIP3    H276866   5.448   5.688  14.028 -0.7419  1.2403 -1.2277
18459TIP3   OH276867   1.201   1.252   0.040 -0.1662  0.2360 -0.5945
18459TIP3    H176868   1.169   1.184   0.099  2.1376 -0.5047 -0.0978
18459TIP3    H276869   1.137   1.322   0.048 -1.1524 -0.7679  1.0090
18460TIP3   OH276870   2.748   3.907   6.845 -0.3366  0.6796  0.3282
18460TIP3    H176871   2.832   3.871   6.815 -1.3286 -0.5977 -1.0634
18460TIP3    H276872   2.738   3.875   6.934  0.3682  0.2975  0.2763
18461TIP3   OH276873   5.686   3.293  10.435  0.6771  0.1797  0.1337
18461TIP3    H176874   5.622   3.269  10.368 -0.0145  1.0769  0.4525
18461TIP3    H276875   5.727   3.210  10.461  0.2326 -0.2979 -0.6673
18462TIP3   OH276876   0.767   1.405   1.911 -0.6280  0.4306 -0.1610
18462TIP3    H176877   0.743   1.426   2.001 -0.5345  1.0541 -0.2773
18462TIP3    H276878   0.785   1.489   1.870 -0.8047  0.1672 -0.8076
18463TIP3   OH276879   2.111   6.318   4.450 -0.2230 -0.3552 -0.2344
18463TIP3    H176880   2.165   6.301   4.528 -0.5007  0.2272  0.0938
18463TIP3    H276881   2.122   6.240   4.396 -0.2908 -0.9203  0.5421
18464TIP3   OH276882   2.123   0.710  15.220 -0.4077  0.5647 -0.2567
18464TIP3    H176883   2.219   0.719  15.221 -0.3806  0.2863  1.1445
18464TIP3    H276884   2.100   0.693  15.311 -1.8720  1.3988 -0.4526
18465TIP3   OH276885   0.366   4.934  12.257 -0.0897 -0.1435 -0.1976
18465TIP3    H176886   0.332   5.013  12.216 -1.9309  0.2759  1.9817
18465TIP3    H276887   0.441   4.964  12.308  0.5580 -0.2304 -1.0595
18466TIP3   OH276888   2.588   4.358  11.027 -0.0903  0.0986  0.5783
18466TIP3    H176889   2.597   4.307  11.108  0.6224 -1.2828 -0.3389
18466TIP3    H276890   2.675   4.358  10.988 -0.3096  1.1810  0.0433
18467TIP3   OH276891   3.420   2.794   4.043  0.1462  0.5014  0.1324
18467TIP3    H176892   3.424   2.711   3.996  2.0156  0.6790 -0.1113
18467TIP3    H276893   3.379   2.855   3.981 -1.3945 -0.2247  0.3756
18468TIP3   OH276894   0.597   2.532   2.561  0.1909 -0.1217  0.8026
18468TIP3    H176895   0.681   2.547   2.604  1.0810 -1.5722 -0.3373
18468TIP3    H276896   0.550   2.473   2.620  0.0967  0.4194  1.2782
18469TIP3   OH276897   0.098   5.519  14.368 -0.2286  0.0036  0.1838
18469TIP3    H176898   0.052   5.443  14.333 -1.1697  0.3462  0.6328
18469TIP3    H276899   0.032   5.589  14.370  0.6231  0.8518 -0.2713
18470TIP3   OH276900   5.356   2.028  15.654 -1.0313 -0.0124  0.2798
18470TIP3    H176901   5.392   2.001  15.739 -0.8108  0.6701  0.4113
18470TIP3    H276902   5.344   2.123  15.663 -2.5317 -0.1729  0.1072
18471TIP3   OH276903   5.099   3.524   3.338 -0.0328 -0.5665  0.1704
18471TIP3    H176904   5.099   3.454   3.273 -0.5123  0.4697 -0.9812
18471TIP3    H276905   5.086   3.479   3.422  2.9469 -2.1959 -0.1023
18472TIP3   OH276906   5.825   1.466   6.011  0.1878 -0.6930 -1.1104
18472TIP3    H176907   5.730   1.469   5.999  0.1747 -0.0560 -0.8860
18472TIP3    H276908   5.837   1.473   6.105  0.5049  1.2795 -1.2416
18473TIP3   OH276909   5.642   2.883   4.068 -0.3130 -0.2487 -0.1158
18473TIP3    H176910   5.575   2.859   4.132 -0.3649 -1.1509 -0.4993
18473TIP3    H276911   5.648   2.808   4.010 -0.5726  0.7281 -1.4461
18474TIP3   OH276912   3.839   2.525  15.452  0.3176 -0.6842  0.2237
18474TIP3    H176913   3.745   2.524  15.470 -0.2395  1.2549 -2.0791
18474TIP3    H276914   3.875   2.590  15.512  0.0342 -0.7135  0.4255
18475TIP3   OH276915   5.602   3.209   4.739  0.4213 -0.0028 -0.3834
18475TIP3    H176916   5.677   3.165   4.778  0.5072 -0.2149 -0.7765
18475TIP3    H276917   5.619   3.206   4.645 -0.2458 -0.3505 -0.4933
18476TIP3   OH276918   0.324   5.285   6.346  0.7447 -0.1806  0.1418
18476TIP3    H176919   0.276   5.321   6.421  0.5223 -0.7221  0.2645
18476TIP3    H276920   0.413   5.319   6.356  0.3249  1.1066 -0.2716
18477TIP3   OH276921   2.613   2.889   4.611 -0.2448 -0.5224 -0.1167
18477TIP3    H176922   2.678   2.821   4.630  0.1343  0.0045  0.5004
18477TIP3    H276923   2.617   2.948   4.686 -1.0905 -0.2124 -0.3096
18478TIP3   OH276924   2.614   6.541   3.874  0.1860  0.1871 -0.3397
18478TIP3    H176925   2.629   6.634   3.893 -0.1860  0.2561 -0.3866
18478TIP3    H276926   2.524   6.537   3.844 -0.4907 -0.4762  1.6411
18479TIP3   OH276927   4.724   0.771   4.063 -0.5386  0.2611 -0.2890
18479TIP3    H176928   4.659   0.704   4.041 -2.5899  1.1836  2.4453
18479TIP3    H276929   4.673   0.852   4.072  1.6789  2.0223 -2.2543
18480TIP3   OH276930   2.487   5.717  12.885 -0.3726 -0.2241 -0.3128
18480TIP3    H176931   2.417   5.770  12.923 -0.4628 -0.1858 -0.5345
18480TIP3    H276932   2.444   5.636  12.859 -0.3414 -0.1861 -0.4826
18481TIP3   OH276933   5.721   3.621   5.580 -0.6877  0.0339 -0.1927
18481TIP3    H176934   5.816   3.629   5.588 -0.6761  0.5792 -0.8419
18481TIP3    H276935   5.692   3.592   5.667 -0.2222  2.5355  0.8714
18482TIP3   OH276936   3.756   6.558   4.134 -0.2264 -0.0819  0.2865
18482TIP3    H176937   3.678   6.610   4.154 -0.7564 -0.7413 -0.0244
18482TIP3    H276938   3.814   6.618   4.088 -0.0089  0.7757  1.6219
18483TIP3   OH276939   4.851   1.723   4.100  0.1054 -0.3696  0.0140
18483TIP3    H176940   4.852   1.635   4.138 -2.7742  0.2790  1.9255
18483TIP3    H276941   4.787   1.771   4.153  1.2189  2.7741 -1.2483
18484TIP3   OH276942   6.386   5.846  14.554  0.0368  0.2971 -0.1029
18484TIP3    H176943   6.380   5.760  14.512  1.2142  0.7145 -1.2073
18484TIP3    H276944   6.454   5.835  14.621 -0.0790  0.2764  0.0119
18485TIP3   OH276945   2.373   3.322   0.996 -0.1694 -0.3166  0.9516
18485TIP3    H176946   2.449   3.380   1.001 -1.4299  1.3185  2.1822
18485TIP3    H276947   2.402   3.242   1.040  0.7779  0.3512  1.5912
18486TIP3   OH276948   0.657   6.430  10.345 -0.3345  0.4276 -0.1376
18486TIP3    H176949   0.712   6.430  10.424  0.4825  0.1951 -0.6870
18486TIP3    H276950   0.710   6.384  10.279 -0.5740  1.4583 -1.0977
18487TIP3   OH276951   6.702   4.730   5.528 -0.3745  0.2015  0.4443
18487TIP3    H176952   6.682   4.669   5.458  1.0287 -0.6495  0.7438
18487TIP3    H276953   6.794   4.754   5.513  0.0489 -0.2414  2.1381
18488TIP3   OH276954   4.083   4.263   3.728 -0.6982 -0.2971  0.0295
18488TIP3    H176955   4.167   4.290   3.767 -1.3486  1.3101  0.4172
18488TIP3    H276956   4.106   4.228   3.642  0.4048 -0.2371  0.2854
18489TIP3   OH276957   2.733   5.868   6.574  0.2669 -0.2637  0.4334
18489TIP3    H176958   2.803   5.927   6.600  0.2507 -0.5002  1.0291
18489TIP3    H276959   2.682   5.855   6.653  0.7287 -1.7031  0.5167
18490TIP3   OH276960   6.483   6.370   2.717  0.0762 -0.4083 -0.2974
18490TIP3    H176961   6.424   6.366   2.793 -0.8057 -0.5153 -0.9769
18490TIP3    H276962   6.456   6.449   2.671  0.8249 -0.1727 -0.3356
18491TIP3   OH276963   1.427   2.434  11.826  0.1173 -0.0193 -0.3170
18491TIP3    H176964   1.505   2.381  11.811 -0.4791 -1.2925  0.7846
18491TIP3    H276965   1.371   2.378  11.881  0.1792  2.3638  2.3928
18492TIP3   OH276966   6.292   1.508  13.655 -0.2371 -0.3631  0.1082
18492TIP3    H176967   6.241   1.432  13.625  0.5592 -0.9718  0.2585
18492TIP3    H276968   6.375   1.501  13.608 -0.3917  0.7905 -0.3649
18493TIP3   OH276969   6.640   3.926  13.838  1.0747  0.3760  0.3810
18493TIP3    H176970   6.597   3.841  13.826  1.4684 -0.1131  2.1608
18493TIP3    H276971   6.579   3.989  13.800 -1.6546 -0.2163  3.3845
18494TIP3   OH276972   2.418   6.332  16.275 -1.0319 -0.1990 -0.2738
18494TIP3    H176973   2.490   6.302  16.331 -1.1256 -0.1490 -0.1265
18494TIP3    H276974   2.457   6.400  16.220 -0.7777 -0.7044 -0.7208
18495TIP3   OH276975   2.162   6.378  11.228  0.7313 -0.1433 -0.3214
18495TIP3    H176976   2.112   6.298  11.210 -0.6656  0.5157  0.4149
18495TIP3    H276977   2.207   6.360  11.310 -1.3908  0.5489  1.0897
18496TIP3   OH276978   3.010   2.913  12.628  0.4790 -0.1448 -0.1812
18496TIP3    H176979   2.946   2.982  12.611  0.4310 -0.3819 -0.9607
18496TIP3    H276980   2.958   2.833  12.637  0.5257 -0.0760  0.8138
18497TIP3   OH276981   0.421   3.208   0.347 -0.4466  0.1967 -0.4223
18497TIP3    H176982   0.503   3.180   0.308  0.0649  0.5413  0.3959
18497TIP3    H276983   0.424   3.304   0.343 -1.0579  0.2092 -0.8788
18498TIP3   OH276984   1.802   4.947   5.827  0.2944 -0.0859  0.3856
18498TIP3    H176985   1.877   4.946   5.886  1.1735 -1.1536 -0.7185
18498TIP3    H276986   1.840   4.954   5.740 -0.8845 -0.6971 -0.1948
18499TIP3   OH276987   6.336   4.833   0.143 -0.5017 -0.4093 -0.0145
18499TIP3    H176988   6.325   4.738   0.147 -1.6180 -0.4112 -1.7768
18499TIP3    H276989   6.276   4.867   0.209  0.8678 -0.9296  1.5544
18500TIP3   OH276990   2.469   3.831  14.725 -0.2754  0.1967 -0.1559
18500TIP3    H176991   2.399   3.779  14.686  1.6805 -0.6454 -2.8977
18500TIP3    H276992   2.532   3.767  14.757  0.3750  0.8870 -0.0102
18501TIP3   OH276993   1.591   2.908   3.885  0.6214 -0.1417 -0.2336
18501TIP3    H176994   1.634   2.823   3.894 -2.4243 -1.7301  0.9936
18501TIP3    H276995   1.520   2.892   3.822 -1.0907  0.9190  1.3245
18502TIP3   OH276996   0.283   1.065  12.020 -0.4613 -0.2856  0.4067
18502TIP3    H176997   0.269   0.980  11.980 -0.5370  0.2626 -0.7713
18502TIP3    H276998   0.246   1.128  11.958 -3.3141  0.4570  2.6281
18503TIP3   OH276999   6.740   0.165  11.508 -0.3301  0.3724 -0.7096
18503TIP3    H177000   6.779   0.196  11.426 -0.4025 -0.5179 -1.0998
18503TIP3    H277001   6.703   0.080  11.485 -2.1163  0.9895 -0.2331
18504TIP3   OH277002   1.381   2.060   0.239  0.2123 -0.1016  0.0933
18504TIP3    H177003   1.467   2.053   0.197  1.4001 -2.4618  2.5909
18504TIP3    H277004   1.401   2.088   0.329 -1.7833  0.4899  0.3962
18505TIP3   OH277005   4.762   5.582  16.595 -0.2407  0.1250  0.3343
18505TIP3    H177006   4.745   5.614  16.506  0.8083 -0.6380 -0.1684
18505TIP3    H277007   4.772   5.661  16.647  1.5388  0.6688 -0.7255
18506TIP3   OH277008   3.510   4.618   2.616 -0.1261  0.5617  0.1412
18506TIP3    H177009   3.576   4.603   2.549  0.4740  0.7422  0.6769
18506TIP3    H277010   3.560   4.646   2.693 -0.7169 -0.4551  0.9233
18507TIP3   OH277011   3.619   4.707  15.003 -0.1851  0.2047 -0.8310
18507TIP3    H177012   3.704   4.664  15.005  0.5341  1.4916 -1.9427
18507TIP3    H277013   3.573   4.675  15.081  1.4198 -0.2764 -0.0547
18508TIP3   OH277014   3.141   6.540  13.787 -0.1658 -0.2096  0.0995
18508TIP3    H177015   3.158   6.462  13.734 -0.0463  0.5108 -0.9533
18508TIP3    H277016   3.192   6.609  13.745 -0.3855  0.4773  0.9279
18509TIP3   OH277017   6.126   5.677  14.691 -0.0341  0.2066 -0.2925
18509TIP3    H177018   6.033   5.677  14.712 -0.6725  0.6314 -2.7407
18509TIP3    H277019   6.160   5.758  14.728 -0.9888  0.7851 -0.6548
18510TIP3   OH277020   2.340   1.519  11.007  0.1149 -0.5316  0.0399
18510TIP3    H177021   2.270   1.508  11.071  2.5316  1.6243  3.3302
18510TIP3    H277022   2.385   1.435  11.006 -1.0752 -1.2006 -0.4216
18511TIP3   OH277023   2.574   1.630  12.493 -0.5993 -0.1849  0.1223
18511TIP3    H177024   2.543   1.541  12.475 -0.0313 -0.2597 -0.5286
18511TIP3    H277025   2.633   1.619  12.568 -0.1424 -0.4441 -0.2670
18512TIP3   OH277026   2.511   4.627  11.564 -0.3090  0.6055  1.0248
18512TIP3    H177027   2.590   4.576  11.545 -0.8927 -0.1718  0.6295
18512TIP3    H277028   2.494   4.610  11.657 -0.6624 -0.1801  0.8289
18513TIP3   OH277029   0.510   5.739  13.541 -0.3010 -0.1928 -0.0299
18513TIP3    H177030   0.548   5.825  13.525 -2.1542  0.3099 -2.0280
18513TIP3    H277031   0.521   5.691  13.459 -0.4081 -1.4588  0.6560
18514TIP3   OH277032   0.510   3.617  10.785 -0.3430 -0.2791  0.3500
18514TIP3    H177033   0.540   3.554  10.719 -0.7205 -1.4049  1.2189
18514TIP3    H277034   0.424   3.584  10.813 -1.0099  1.1781  0.1299
18515TIP3   OH277035   5.504   2.628   2.874  0.2375  0.5721  0.8303
18515TIP3    H177036   5.464   2.543   2.890  2.9969 -0.7587  1.1967
18515TIP3    H277037   5.505   2.637   2.779 -1.4571  0.9782  0.8146
18516TIP3   OH277038   5.354   6.449  15.367  0.3352  0.0736 -0.5517
18516TIP3    H177039   5.307   6.532  15.373  2.1030  1.1827 -1.1811
18516TIP3    H277040   5.300   6.387  15.417 -0.4386  1.8690  0.9717
18517TIP3   OH277041   2.067   1.555   4.802 -0.0529  0.0671  0.0097
18517TIP3    H177042   2.119   1.586   4.876 -0.7641  1.5877 -0.0750
18517TIP3    H277043   2.106   1.471   4.778  1.6756  0.6513  0.6059
18518TIP3   OH277044   3.492   0.865   5.764  0.4458 -0.0370 -0.0219
18518TIP3    H177045   3.516   0.833   5.851 -0.0945  1.6749  0.7958
18518TIP3    H277046   3.397   0.853   5.760  0.7291 -2.5798 -1.4811
18519TIP3   OH277047   4.409   3.740  14.363 -0.1088  0.2746  0.2254
18519TIP3    H177048   4.426   3.701  14.277  0.7820 -0.9220  0.9029
18519TIP3    H277049   4.385   3.831  14.344  0.5844  0.1816 -1.2500
18520TIP3   OH277050   2.881   3.835  12.620  0.5051  0.4860  0.2957
18520TIP3    H177051   2.957   3.871  12.575 -0.0025  1.3734  0.1196
18520TIP3    H277052   2.904   3.837  12.713  1.7304 -1.7546  0.1194
18521TIP3   OH277053   1.978   3.291  14.625 -0.0746 -0.0013  0.4685
18521TIP3    H177054   2.008   3.304  14.715 -1.6748 -0.9442  1.1851
18521TIP3    H277055   2.000   3.200  14.605  0.1784  0.1716 -0.0557
18522TIP3   OH277056   2.898   6.392  13.506  0.0169  0.5216  0.0685
18522TIP3    H177057   2.874   6.466  13.450 -0.1030 -0.6367 -1.4536
18522TIP3    H277058   2.989   6.372  13.483  0.8453  1.6013  2.1219
18523TIP3   OH277059   1.772   5.251   2.944  0.0683  0.1764  0.0302
18523TIP3    H177060   1.840   5.283   2.884  1.1306  2.0230  2.0658
18523TIP3    H277061   1.742   5.330   2.990 -0.8505 -1.1175  1.7532
18524TIP3   OH277062   4.122   6.456   1.706 -0.0227  0.6119 -0.1950
18524TIP3    H177063   4.170   6.373   1.710  0.0208  0.5674 -1.4471
18524TIP3    H277064   4.189   6.522   1.695 -0.2186  0.5488 -1.9619
18525TIP3   OH277065   1.213   3.020  13.373  0.4109  0.5753  0.3012
18525TIP3    H177066   1.212   3.050  13.464  0.5765  0.2887  0.3985
18525TIP3    H277067   1.178   2.931  13.377  0.9577  0.3519  0.1611
18526TIP3   OH277068   5.751   4.403   2.503  0.5149  0.5714 -0.3036
18526TIP3    H177069   5.728   4.462   2.431  0.8750 -1.7441 -2.4333
18526TIP3    H277070   5.673   4.350   2.517  1.4796 -1.2266 -1.3607
18527TIP3   OH277071   5.119   1.980   4.498  0.2692  0.1588  0.8466
18527TIP3    H177072   5.067   1.927   4.558 -1.4580  0.0427 -0.6827
18527TIP3    H277073   5.147   1.919   4.430  1.3061  0.5112  0.9314
18528TIP3   OH277074   2.319   1.536  17.046 -0.0168  0.3393  0.4497
18528TIP3    H177075   2.309   1.627  17.075 -1.2259 -0.3975  2.6034
18528TIP3    H277076   2.352   1.490  17.123 -1.0271 -1.3391 -0.0762
18529TIP3   OH277077   1.375   4.837  15.686  0.4909  0.1111  0.2328
18529TIP3    H177078   1.457   4.871  15.722  1.6450 -1.5680 -0.6896
18529TIP3    H277079   1.393   4.745  15.666 -0.8603  0.2727 -2.1847
18530TIP3   OH277080   0.244   2.505  11.621  0.5256 -0.2760 -0.5163
18530TIP3    H177081   0.216   2.512  11.712 -0.8880  0.8573 -0.9942
18530TIP3    H277082   0.212   2.419  11.593  0.1432 -0.2440 -0.1962
18531TIP3   OH277083   3.243   0.107  16.255  0.3021  0.3848 -0.0893
18531TIP3    H177084   3.301   0.100  16.179  0.8482  0.2013  0.3276
18531TIP3    H277085   3.175   0.042  16.240 -0.2851  1.1940 -0.9971
18532TIP3   OH277086   4.916   2.155   5.023 -0.5394  0.0479  0.3913
18532TIP3    H177087   5.002   2.114   5.019 -1.0095 -1.4079  2.9465
18532TIP3    H277088   4.922   2.217   5.096 -1.6577 -0.1411  0.6689
18533TIP3   OH277089   0.333   0.424  15.118 -0.3426 -0.3292 -0.1788
18533TIP3    H177090   0.324   0.330  15.131 -1.7087 -0.2638 -0.4300
18533TIP3    H277091   0.315   0.437  15.024 -1.2247  0.2713  0.0556
18534TIP3   OH277092   1.300   6.780   6.600  0.3677 -0.7754  0.3370
18534TIP3    H177093   1.323   6.799   6.691 -0.5341 -1.5560  0.7457
18534TIP3    H277094   1.373   6.814   6.549  0.6749  0.0795  1.3206
18535TIP3   OH277095   3.219   0.145  15.268  0.1131 -0.1478  0.2231
18535TIP3    H177096   3.164   0.141  15.190  0.1186 -0.6759  0.2400
18535TIP3    H277097   3.292   0.085  15.248  1.2435  1.3290 -0.2320
18536TIP3   OH277098   4.898   6.824   4.566 -0.1002 -0.3297 -0.6058
18536TIP3    H177099   4.890   6.918   4.578 -0.9242 -0.3303 -1.0479
18536TIP3    H277100   4.974   6.813   4.509  2.3139 -0.1840  2.3740
18537TIP3   OH277101   0.159   6.648  11.681 -0.1764  0.2598 -0.0521
18537TIP3    H177102   0.091   6.587  11.653 -0.2254  0.6032 -0.7019
18537TIP3    H277103   0.198   6.680  11.599 -0.0914  1.0329  0.2811
18538TIP3   OH277104   2.569   1.995  12.155  0.0845 -0.0635 -0.4736
18538TIP3    H177105   2.623   2.072  12.136 -0.4706  0.0213 -1.8074
18538TIP3    H277106   2.630   1.933  12.195  0.5086  1.1083  0.7633
18539TIP3   OH277107   4.303   0.137   2.448  0.0490 -0.2649  0.3735
18539TIP3    H177108   4.228   0.181   2.407 -0.7640 -1.2110  0.7918
18539TIP3    H277109   4.314   0.056   2.397 -0.3659 -0.9909  1.3886
18540TIP3   OH277110   0.958   2.820   3.198 -0.2766 -0.6776 -0.1460
18540TIP3    H177111   0.932   2.802   3.288 -1.0973  3.8779  0.7859
18540TIP3    H277112   0.882   2.865   3.159  1.3573  0.8906 -1.7801
18541TIP3   OH277113   5.066   4.484  14.936  0.0312  0.1727 -0.5032
18541TIP3    H177114   5.115   4.402  14.925  0.7726  0.5458 -0.0757
18541TIP3    H277115   4.976   4.456  14.951 -0.1565 -0.4968 -2.5670
18542TIP3   OH277116   1.270   3.520  12.779 -0.0918 -0.5047  0.8159
18542TIP3    H177117   1.236   3.604  12.750  0.5819 -0.8870 -1.2702
18542TIP3    H277118   1.193   3.472  12.809 -0.3128  1.2813  3.3536
18543TIP3   OH277119   2.315   5.502   3.230  0.2540  0.0428 -0.6603
18543TIP3    H177120   2.348   5.478   3.144  0.0003 -1.0756 -0.4558
18543TIP3    H277121   2.394   5.508   3.285  0.2499 -1.4634 -0.4533
18544TIP3   OH277122   4.546   4.730   4.003  0.4417  0.4873 -0.0281
18544TIP3    H177123   4.587   4.816   4.015  0.1932  0.4379  1.2826
18544TIP3    H277124   4.613   4.678   3.958  0.3096  1.5675 -1.5642
18545TIP3   OH277125   1.870   4.105  15.306  0.2132  0.4677  0.3911
18545TIP3    H177126   1.874   4.011  15.319  1.1879  0.3022 -0.9077
18545TIP3    H277127   1.938   4.141  15.363 -0.1377  0.3902  0.8614
18546TIP3   OH277128   3.957   3.419   3.141 -0.1935  0.4405  0.7571
18546TIP3    H177129   4.046   3.388   3.129  0.2346  0.9298  2.4940
18546TIP3    H277130   3.912   3.394   3.060  0.9717 -1.6515  0.6895
18547TIP3   OH277131   2.421   4.762  14.419 -0.4367  0.3072  0.2694
18547TIP3    H177132   2.448   4.853  14.430  0.4707  0.0441  0.2979
18547TIP3    H277133   2.337   4.768  14.373 -1.5448  1.2223  2.2844
18548TIP3   OH277134   1.577   2.814  16.101  0.6392  0.4622  0.4478
18548TIP3    H177135   1.671   2.826  16.112  0.8714  0.4678 -1.2878
18548TIP3    H277136   1.564   2.810  16.007 -1.3258  2.1529  0.5846
18549TIP3   OH277137   1.535   3.029  15.342  0.1559  0.5972  0.2043
18549TIP3    H177138   1.459   3.086  15.336  0.1781  0.6207  0.1471
18549TIP3    H277139   1.585   3.047  15.263 -0.0782  0.1588 -0.0491
18550TIP3   OH277140   1.311   2.277   1.239  0.0511  0.1709 -0.0483
18550TIP3    H177141   1.387   2.332   1.222  0.4786  0.2025  1.7413
18550TIP3    H277142   1.347   2.192   1.266 -0.4470  0.5953  2.1631
18551TIP3   OH277143   5.097   4.396  15.617 -0.1410 -0.8869 -0.0380
18551TIP3    H177144   5.086   4.371  15.708 -1.0979  0.0936  0.1258
18551TIP3    H277145   5.043   4.333  15.568  0.4366 -1.4615  0.0513
18552TIP3   OH277146   1.620   0.352   5.617  0.3572  0.4345 -0.6173
18552TIP3    H177147   1.595   0.262   5.635  0.2918  0.9856  2.5358
18552TIP3    H277148   1.706   0.346   5.576 -0.7531 -1.0735 -3.0020
18553TIP3   OH277149   4.726   5.434   6.589 -0.1892 -0.7734  0.0335
18553TIP3    H177150   4.736   5.343   6.618 -1.0847 -0.8969  0.0027
18553TIP3    H277151   4.631   5.445   6.579 -0.2493  0.6587  1.6655
18554TIP3   OH277152   3.521   1.367  14.605  0.1941  0.1017  0.8807
18554TIP3    H177153   3.529   1.298  14.671  0.5791 -0.3248  0.3900
18554TIP3    H277154   3.448   1.421  14.636 -0.7492 -1.0628  0.7822
18555TIP3   OH277155   2.290   5.333   5.451 -0.6366  0.1857 -0.1886
18555TIP3    H177156   2.323   5.400   5.391 -1.4487  1.1558  0.4293
18555TIP3    H277157   2.224   5.285   5.401  0.5679 -0.7712 -0.9264
18556TIP3   OH277158   3.583   5.346   3.047  0.6607 -0.3622 -0.4345
18556TIP3    H177159   3.493   5.379   3.051  1.2956  1.5966 -0.8515
18556TIP3    H277160   3.597   5.330   2.953  1.3521  1.3494 -0.6683
18557TIP3   OH277161   0.124   6.713  13.408  0.5013 -0.1391  0.0761
18557TIP3    H177162   0.067   6.770  13.356 -0.5485 -0.5759  0.7105
18557TIP3    H277163   0.173   6.773  13.464 -0.0138  0.1981  0.1755
18558TIP3   OH277164   1.124   3.620  11.863 -0.5996 -0.2666  0.4565
18558TIP3    H177165   1.081   3.696  11.825  1.1353  0.1121 -0.8923
18558TIP3    H277166   1.217   3.644  11.865 -0.1988 -1.7339  1.5453
18559TIP3   OH277167   5.192   2.872  14.423 -0.0069  0.2911 -0.2712
18559TIP3    H177168   5.138   2.907  14.352  0.0770  0.1669 -0.3986
18559TIP3    H277169   5.131   2.820  14.475 -0.2587  1.1084  0.2646
18560TIP3   OH277170   6.743   5.339   0.608  0.1852 -0.0211 -0.6564
18560TIP3    H177171   6.792   5.260   0.632 -0.5876 -0.9721 -2.0743
18560TIP3    H277172   6.652   5.317   0.628  0.0775  0.9157 -0.0873
18561TIP3   OH277173   5.870   4.931   0.086  0.2473 -0.7696 -0.1902
18561TIP3    H177174   5.854   4.869   0.157 -0.4762  0.0585  0.4056
18561TIP3    H277175   5.845   4.885   0.007 -1.6644 -0.7836  0.3726
18562TIP3   OH277176   1.985   3.275   5.629 -0.1079  0.2429  0.2258
18562TIP3    H177177   1.891   3.270   5.612 -0.2049 -0.8130  0.9853
18562TIP3    H277178   2.010   3.363   5.600 -1.3614  0.6120  0.2061
18563TIP3   OH277179   4.588   4.556  14.637 -0.1678  0.1827 -0.0005
18563TIP3    H177180   4.632   4.624  14.689  1.1987 -0.1589 -0.6376
18563TIP3    H277181   4.629   4.563  14.551 -1.3597 -0.2177 -0.6206
18564TIP3   OH277182   4.586   6.333   3.909 -0.3470 -0.1248  0.5818
18564TIP3    H177183   4.604   6.242   3.934  1.7551  0.8537  3.0017
18564TIP3    H277184   4.667   6.365   3.871 -2.2286 -0.2828 -4.3040
18565TIP3   OH277185   3.939   1.364   0.549  0.3419 -0.0891 -0.4762
18565TIP3    H177186   4.005   1.404   0.605 -0.9741  0.9147  0.4226
18565TIP3    H277187   3.883   1.315   0.610 -0.5586  0.2349 -1.0244
18566TIP3   OH277188   2.518   2.757  14.847  0.8103 -0.3689 -0.2486
18566TIP3    H177189   2.482   2.842  14.820 -2.2752 -1.1578  0.9416
18566TIP3    H277190   2.576   2.778  14.920  1.3696  0.8343 -1.0039
18567TIP3   OH277191   5.997   0.218   3.795  0.3658  0.4692  0.3421
18567TIP3    H177192   5.962   0.301   3.826 -1.5883  0.1454 -0.8276
18567TIP3    H277193   6.016   0.168   3.875  2.3359  2.2579  1.0921
18568TIP3   OH277194   2.854   6.166  13.745  0.0343  0.5903  0.3847
18568TIP3    H177195   2.864   6.189  13.837  1.4332  1.6762 -0.0021
18568TIP3    H277196   2.811   6.243  13.706 -1.2343 -0.1598  0.2301
18569TIP3   OH277197   3.107   4.140   3.112  0.2137  0.0703  0.2473
18569TIP3    H177198   3.120   4.210   3.048 -1.4920 -0.2050 -0.4688
18569TIP3    H277199   3.160   4.067   3.079 -0.9074 -0.1818 -1.1064
18570TIP3   OH277200   4.421   3.126  16.849 -0.1578  0.1047 -0.0161
18570TIP3    H177201   4.444   3.114  16.941  0.6406  1.2471 -0.0472
18570TIP3    H277202   4.485   3.075  16.800  0.1991  0.4994  0.0295
18571TIP3   OH277203   1.637   1.473   1.132 -0.4479 -0.2714 -0.2713
18571TIP3    H177204   1.587   1.479   1.051  0.5437  3.0836 -0.7825
18571TIP3    H277205   1.727   1.461   1.105 -0.2385 -0.2501  0.3885
18572TIP3   OH277206   1.503   5.544  15.236  0.4768 -0.3739 -0.0204
18572TIP3    H177207   1.551   5.463  15.218 -1.3664 -1.2351 -1.4665
18572TIP3    H277208   1.452   5.525  15.315  0.6491 -0.3562  0.0933
18573TIP3   OH277209   4.370   6.600   1.174  0.1846 -0.4332 -0.1793
18573TIP3    H177210   4.364   6.552   1.092 -0.4345 -0.7053  0.0206
18573TIP3    H277211   4.401   6.687   1.149 -1.5298  0.0104 -0.8999
18574TIP3   OH277212   3.214   4.378   2.022 -0.5219 -0.5772  0.5084
18574TIP3    H177213   3.178   4.293   2.045 -0.2420 -0.7585  0.2835
18574TIP3    H277214   3.296   4.383   2.072  0.8309 -1.5801 -1.4899
18575TIP3   OH277215   2.312   4.764  12.227  0.0697 -0.9933  0.5377
18575TIP3    H177216   2.367   4.687  12.244 -0.0281 -1.5449 -1.3620
18575TIP3    H277217   2.223   4.730  12.230 -0.2982 -0.1054  3.5895
18576TIP3   OH277218   1.711   0.649   0.152  0.3462 -0.0762 -0.0658
18576TIP3    H177219   1.715   0.726   0.208  0.5213  0.7275 -1.1673
18576TIP3    H277220   1.781   0.592   0.185 -1.0261 -0.7022  2.0246
18577TIP3   OH277221   0.786   0.862  17.022 -0.5409 -0.6155 -0.0986
18577TIP3    H177222   0.726   0.880  17.094  0.3160  0.7113  0.3072
18577TIP3    H277223   0.835   0.943  17.010  0.2142 -1.2233 -1.3431
18578TIP3   OH277224   6.626   5.002   0.488  0.7190 -0.0914  0.6435
18578TIP3    H177225   6.633   4.917   0.443 -1.6231 -0.9332  1.7033
18578TIP3    H277226   6.576   5.057   0.428  0.6637 -0.0438  0.7335
18579TIP3   OH277227   5.790   5.828  11.789  0.2871 -0.1536 -0.3503
18579TIP3    H177228   5.874   5.782  11.785 -0.4789 -1.7168  0.5627
18579TIP3    H277229   5.803   5.897  11.854  1.3254  0.7309 -1.4296
18580TIP3   OH277230   2.768   1.955   3.112  0.0355  0.2048  0.2160
18580TIP3    H177231   2.753   1.860   3.105 -2.4290  0.3557  1.9625
18580TIP3    H277232   2.853   1.962   3.155  0.2067 -1.2324  0.1843
18581TIP3   OH277233   3.306   1.109   0.972  0.0912  0.2374 -0.1732
18581TIP3    H177234   3.213   1.093   0.990  0.0244 -1.0445 -1.4667
18581TIP3    H277235   3.309   1.133   0.880  1.0914 -0.2570 -0.2861
18582TIP3   OH277236   5.678   3.661   4.743  0.3996 -0.0743  0.2974
18582TIP3    H177237   5.608   3.639   4.681  2.0519 -0.2804 -1.5929
18582TIP3    H277238   5.692   3.581   4.794 -0.5962 -0.0814  0.5763
18583TIP3   OH277239   1.474   3.588   1.542 -0.4280  0.0327 -0.5321
18583TIP3    H177240   1.534   3.661   1.560 -0.4357 -0.4403  1.8224
18583TIP3    H277241   1.419   3.620   1.471  0.9286  1.4974 -0.9930
18584TIP3   OH277242   0.557   5.003  12.438  0.2783  0.4406  0.5298
18584TIP3    H177243   0.599   4.970  12.517 -1.5723 -0.0974  1.3400
18584TIP3    H277244   0.537   5.094  12.458 -1.7133 -0.1284  1.4213
18585TIP3   OH277245   3.045   0.091  16.626 -0.1000 -0.2277  0.4513
18585TIP3    H177246   3.005   0.020  16.576 -0.8485 -0.1961  0.9883
18585TIP3    H277247   3.121   0.117  16.574  0.2781 -1.5201  0.3318
18586TIP3   OH277248   6.455   4.753   2.443 -0.6798  0.0744 -0.2480
18586TIP3    H177249   6.515   4.818   2.479  0.3536 -1.0412  0.1527
18586TIP3    H277250   6.510   4.675   2.430 -1.0740  0.2190 -3.7882
18587TIP3   OH277251   3.041   3.975  12.464  0.4326 -0.6588 -0.2047
18587TIP3    H177252   3.013   3.922  12.390  1.3993  0.0982 -1.1419
18587TIP3    H277253   3.027   4.065  12.436 -1.0994 -0.3784  1.3277
18588TIP3   OH277254   3.884   3.585  12.708 -0.0435 -0.6963  0.5136
18588TIP3    H177255   3.879   3.679  12.694  0.8902 -0.3925  1.9311
18588TIP3    H277256   3.799   3.552  12.680 -0.3667  0.5611 -0.0575
18589TIP3   OH277257   1.335   1.179  10.868 -0.7484 -0.1337 -0.3961
18589TIP3    H177258   1.259   1.219  10.826  0.8325  2.2487 -1.2099
18589TIP3    H277259   1.403   1.179  10.801  0.8619  0.6743  1.1387
18590TIP3   OH277260   1.231   5.212  17.293  0.0562  0.0724 -0.2494
18590TIP3    H177261   1.251   5.218  17.386  2.1626  0.0502 -0.6499
18590TIP3    H277262   1.257   5.123  17.269 -4.1879 -1.4333 -0.1453
18591TIP3   OH277263   5.962   1.612  15.698 -0.2308 -0.6033 -0.6540
18591TIP3    H177264   5.980   1.705  15.709  1.2375 -0.8864 -0.4994
18591TIP3    H277265   6.018   1.584  15.626 -0.5797 -1.3958 -0.6359
18592TIP3   OH277266   2.044   5.563  10.221  0.4272  0.0312 -0.0270
18592TIP3    H177267   2.134   5.589  10.238  0.0769  0.6235  0.9926
18592TIP3    H277268   2.001   5.567  10.307 -0.7500  0.4841 -0.6153
18593TIP3   OH277269   3.703   3.994  16.966  0.1491 -0.2628  0.0556
18593TIP3    H177270   3.782   3.998  16.911  0.0886  1.2302  0.0367
18593TIP3    H277271   3.642   3.940  16.916  0.4278  0.2963 -0.9367
18594TIP3   OH277272   4.690   2.893  11.269 -0.2102  0.0699  0.1475
18594TIP3    H177273   4.693   2.957  11.198 -0.9460  0.5895  0.5785
18594TIP3    H277274   4.597   2.881  11.287 -0.0321  1.1383  2.0713
18595TIP3   OH277275   1.141   2.061  16.722  0.4488 -0.0053 -0.1191
18595TIP3    H177276   1.138   2.104  16.807  0.8378  2.0131 -1.0497
18595TIP3    H277277   1.234   2.043  16.707  0.1806 -2.4517  0.8061
18596TIP3   OH277278   4.408   4.094   5.737  0.2945  0.6585  0.6144
18596TIP3    H177279   4.378   4.004   5.750 -0.2230  0.7623  0.2211
18596TIP3    H277280   4.330   4.140   5.705  0.6196  1.1876  0.5698
18597TIP3   OH277281   2.162   4.807  14.342 -0.0622 -0.2437 -0.2314
18597TIP3    H177282   2.103   4.817  14.267  1.1364  1.3456 -1.0255
18597TIP3    H277283   2.132   4.873  14.404  0.6969  0.3874 -0.5275
18598TIP3   OH277284   4.332   6.567  12.210 -0.3478  0.0230 -0.2025
18598TIP3    H177285   4.380   6.494  12.247 -2.8295 -1.2442  0.7725
18598TIP3    H277286   4.327   6.631  12.281 -0.4845 -0.0487 -0.1466
18599TIP3   OH277287   0.302   3.961  11.480 -0.1184 -0.0839 -0.2439
18599TIP3    H177288   0.236   4.028  11.499  0.0383  0.2867 -1.0161
18599TIP3    H277289   0.305   3.908  11.561 -1.4002 -0.1446 -0.2114
18600TIP3   OH277290   3.871   1.200   4.861 -0.2546 -0.1609  0.1533
18600TIP3    H177291   3.853   1.193   4.768  1.1508  0.2646 -0.1714
18600TIP3    H277292   3.951   1.150   4.874 -0.4417 -0.2334  1.1429
18601TIP3   OH277293   0.259   6.333   5.119 -0.0838 -0.5949  0.0425
18601TIP3    H177294   0.263   6.237   5.125  1.2670 -0.4472  2.3623
18601TIP3    H277295   0.187   6.349   5.058 -0.4903 -3.0752 -0.2596
18602TIP3   OH277296   4.588   2.736  13.134 -1.3097  0.4856  0.1928
18602TIP3    H177297   4.521   2.763  13.071 -0.8448 -0.4221 -0.7175
18602TIP3    H277298   4.635   2.666  13.090  0.5221  1.3760  0.6620
18603TIP3   OH277299   0.940   0.567  15.135  0.1965 -0.6228  0.1889
18603TIP3    H177300   0.873   0.503  15.111 -0.2299  0.0696 -0.4716
18603TIP3    H277301   0.968   0.605  15.052 -0.1233  0.6228  0.6325
18604TIP3   OH277302   1.998   5.824  12.037  0.2950  0.4995  0.5684
18604TIP3    H177303   2.002   5.786  12.125  2.3926 -0.3459  0.1730
18604TIP3    H277304   1.998   5.749  11.978  1.3055  1.0668 -0.1781
18605TIP3   OH277305   6.582   0.580   3.020 -0.6669 -0.1889  0.0086
18605TIP3    H177306   6.659   0.567   3.076 -0.3808  0.3445 -0.2512
18605TIP3    H277307   6.525   0.507   3.041  0.5542 -1.4382 -0.8868
18606TIP3   OH277308   4.032   6.289   5.502 -0.4985 -0.2020  0.0952
18606TIP3    H177309   4.120   6.323   5.483 -0.0786 -1.3368 -0.1081
18606TIP3    H277310   3.974   6.337   5.442  0.2730 -0.9075 -1.2743
18607TIP3   OH277311   5.145   6.139  13.856  0.4620 -0.3503 -0.3325
18607TIP3    H177312   5.221   6.090  13.827  0.9018  0.1797 -0.0797
18607TIP3    H277313   5.180   6.217  13.898 -0.2180 -0.0527 -0.2935
18608TIP3   OH277314   0.835   2.534   4.960  0.7180  0.2822 -0.1037
18608TIP3    H177315   0.745   2.502   4.948  0.3370  0.8170  1.1815
18608TIP3    H277316   0.871   2.539   4.871  0.9544 -4.0458 -0.4788
18609TIP3   OH277317   1.119   1.283  10.736 -0.6787  0.1537  0.0569
18609TIP3    H177318   1.082   1.275  10.824 -1.3879  0.4376 -0.2072
18609TIP3    H277319   1.140   1.376  10.726  1.3147 -0.1840  0.6622
18610TIP3   OH277320   2.308   6.756   5.765  0.8669  0.4466  0.2367
18610TIP3    H177321   2.358   6.812   5.706  0.1592  2.5273  1.5214
18610TIP3    H277322   2.359   6.754   5.846  1.3798 -1.6519 -0.0720
18611TIP3   OH277323   2.729   2.524   2.714 -0.0348  0.3077 -0.7897
18611TIP3    H177324   2.680   2.550   2.792  0.1711 -0.9439 -0.2081
18611TIP3    H277325   2.663   2.518   2.645 -0.1655  1.7719 -0.8202
18612TIP3   OH277326   1.446   4.208  10.855  0.3689 -0.2562 -0.3407
18612TIP3    H177327   1.495   4.130  10.880  1.7676 -0.1667 -2.5699
18612TIP3    H277328   1.507   4.280  10.868 -1.6722  1.0353  4.2322
18613TIP3   OH277329   3.793   3.846  11.581  0.1884 -0.3649 -0.5205
18613TIP3    H177330   3.713   3.897  11.571 -0.8945 -1.6273  1.1740
18613TIP3    H277331   3.838   3.886  11.655  0.5695 -0.3311 -0.7722
18614TIP3   OH277332   0.985   6.232   3.872 -0.6229 -0.0478  0.1829
18614TIP3    H177333   1.054   6.205   3.933  0.0024  0.5755 -0.2234
18614TIP3    H277334   0.985   6.164   3.804  0.1441  0.3344 -0.2233
18615TIP3   OH277335   6.050   3.204  11.669  0.0164  0.2541 -0.3104
18615TIP3    H177336   6.114   3.177  11.735  0.5602  1.3199 -0.3744
18615TIP3    H277337   5.970   3.158  11.693  0.2957  0.3644  0.9058
18616TIP3   OH277338   6.574   3.308  13.259 -0.3983 -0.2665 -0.1883
18616TIP3    H177339   6.663   3.286  13.288 -0.2594  0.3321 -0.1586
18616TIP3    H277340   6.576   3.402  13.244 -1.6052  0.1602  1.9346
18617TIP3   OH277341   2.614   1.279   0.759  0.2376  0.2861 -0.0366
18617TIP3    H177342   2.524   1.255   0.738 -0.2097  0.1181  1.8484
18617TIP3    H277343   2.659   1.196   0.770  0.4416  0.3653 -0.2715
18618TIP3   OH277344   1.313   4.826  12.510  0.7320  0.2842 -0.1350
18618TIP3    H177345   1.383   4.891  12.512  0.0925  0.9809  0.0807
18618TIP3    H277346   1.330   4.774  12.432  1.7623  0.1397  0.1736
18619TIP3   OH277347   5.898   3.871   1.305 -0.6541 -0.0843 -0.6039
18619TIP3    H177348   5.835   3.814   1.349 -1.1716  1.5014  0.8512
18619TIP3    H277349   5.844   3.929   1.252 -0.3041  0.3405 -0.4994
18620TIP3   OH277350   2.833   3.134   5.513  0.0607 -0.4857 -0.0137
18620TIP3    H177351   2.825   3.141   5.418 -0.4573  0.6103  0.0883
18620TIP3    H277352   2.901   3.068   5.527  1.4623  0.6231 -1.1814
18621TIP3   OH277353   2.721   0.915   2.660  0.1158  0.4316 -0.0554
18621TIP3    H177354   2.704   0.831   2.616  1.4545  0.4078 -0.5485
18621TIP3    H277355   2.814   0.914   2.679 -0.3880  0.4036  2.9136
18622TIP3   OH277356   1.747   1.321  11.495 -0.1968 -0.1922  0.3073
18622TIP3    H177357   1.704   1.240  11.466 -0.5704 -0.6003  1.9374
18622TIP3    H277358   1.678   1.370  11.540 -0.8024  2.4126 -3.0193
18623TIP3   OH277359   5.476   3.485   4.670  0.1249  0.6894 -0.4080
18623TIP3    H177360   5.519   3.469   4.586 -0.5646 -0.2211 -0.6037
18623TIP3    H277361   5.489   3.405   4.720  0.1178  1.0453  0.1739
18624TIP3   OH277362   2.411   4.862   6.376 -0.0016  0.4728  0.1531
18624TIP3    H177363   2.356   4.904   6.309  0.5271 -1.2863 -1.4724
18624TIP3    H277364   2.494   4.909   6.371 -0.8422  2.3228  1.7628
18625TIP3   OH277365   2.757   1.216   2.775  0.5343 -0.5329 -0.0234
18625TIP3    H177366   2.760   1.123   2.798 -1.3559 -0.1012  2.3354
18625TIP3    H277367   2.836   1.253   2.813  1.4598 -1.1683 -1.2451
18626TIP3   OH277368   5.004   2.223  12.395 -0.0614 -0.8122  0.1992
18626TIP3    H177369   4.916   2.228  12.432 -0.2928  2.0096 -0.4606
18626TIP3    H277370   4.995   2.167  12.318 -1.3342 -0.4425  0.0648
18627TIP3   OH277371   3.210   4.341  10.450  0.1376  0.1379  0.5653
18627TIP3    H177372   3.154   4.415  10.474  0.6175  0.0178  2.1595
18627TIP3    H277373   3.297   4.379  10.441  0.3249 -0.1657  1.0529
18628TIP3   OH277374   1.408   3.449   2.986  0.1923 -0.0426  0.0024
18628TIP3    H177375   1.453   3.369   3.013 -0.3923 -1.0089 -1.7031
18628TIP3    H277376   1.391   3.437   2.892  1.4960  2.7661 -0.7095
18629TIP3   OH277377   3.092   1.259   3.631  0.3611  0.1938  0.1138
18629TIP3    H177378   3.055   1.173   3.648  1.4059 -0.0343  1.3989
18629TIP3    H277379   3.066   1.280   3.542  0.1696 -1.4887 -0.2462
18630TIP3   OH277380   3.200   4.116  16.322  0.0148  0.1745 -0.3576
18630TIP3    H177381   3.121   4.071  16.353 -0.3197  0.5891 -0.5987
18630TIP3    H277382   3.168   4.177  16.256  0.2678  1.7996  0.9626
18631TIP3   OH277383   5.701   1.069  12.838  0.2038 -0.1171  0.8619
18631TIP3    H177384   5.790   1.033  12.845  0.7869  0.9306 -0.5416
18631TIP3    H277385   5.644   0.993  12.834  1.1008 -0.8254  1.1475
18632TIP3   OH277386   6.449   3.076   2.891  0.2188  0.7816 -0.0751
18632TIP3    H177387   6.526   3.045   2.938  0.0678  0.4081 -0.0628
18632TIP3    H277388   6.392   3.112   2.958  0.6345  1.5978 -0.1568
18633TIP3   OH277389   3.611   1.669   5.941  0.5436 -0.1010  0.0865
18633TIP3    H177390   3.655   1.695   5.860  2.0567  0.5686  1.0638
18633TIP3    H277391   3.681   1.632   5.995 -0.0461  1.1073  1.7680
18634TIP3   OH277392   1.134   1.903   1.652 -0.4577 -0.3396  1.0022
18634TIP3    H177393   1.055   1.957   1.650  0.2204  0.6755 -1.3273
18634TIP3    H277394   1.205   1.965   1.638  0.6721 -1.4140  1.8128
18635TIP3   OH277395   4.262   3.991  13.567  0.0157  0.2479  0.1870
18635TIP3    H177396   4.321   4.050  13.613 -0.5999  0.9469  0.0969
18635TIP3    H277397   4.271   3.907  13.613  1.6769  0.1183 -0.3423
18636TIP3   OH277398   6.193   1.825  13.204  0.2408 -0.0430 -0.0058
18636TIP3    H177399   6.111   1.874  13.213  0.3047 -0.2281  2.1333
18636TIP3    H277400   6.261   1.891  13.210  0.2774 -0.1418  0.8714
18637TIP3   OH277401   2.548   4.411  13.116  0.3091  0.3496  0.0184
18637TIP3    H177402   2.579   4.323  13.096  0.3354  0.3548  0.0349
18637TIP3    H277403   2.547   4.415  13.212 -1.6917 -0.3469  0.0655
18638TIP3   OH277404   6.757   3.361   4.068 -0.1755  0.1303 -0.7102
18638TIP3    H177405   6.699   3.379   3.994 -0.6749 -0.7868 -0.5572
18638TIP3    H277406   6.781   3.448   4.101 -0.1990  0.5451 -1.7438
18639TIP3   OH277407   1.021   0.629   6.012  0.0452 -0.2643  0.1858
18639TIP3    H177408   0.941   0.577   6.005 -0.1304 -0.3114  2.1069
18639TIP3    H277409   1.084   0.571   6.054  0.7299  0.1762 -0.2093
18640TIP3   OH277410   0.338   1.234   1.027  0.1606  0.0357  0.1103
18640TIP3    H177411   0.428   1.262   1.040 -0.6381  2.3298  1.0999
18640TIP3    H277412   0.295   1.307   0.982 -1.3024 -0.8757 -0.0642
18641TIP3   OH277413   4.323   1.557   1.210  0.0832 -0.1183  0.3244
18641TIP3    H177414   4.331   1.633   1.268  1.6492  0.3291 -0.4264
18641TIP3    H277415   4.408   1.514   1.216 -0.4640 -1.2672 -0.0204
18642TIP3   OH277416   3.682   3.271  12.875 -0.0214 -0.1084 -0.1669
18642TIP3    H177417   3.665   3.341  12.812  0.2276  0.4103  0.3312
18642TIP3    H277418   3.760   3.300  12.922  0.9273 -1.3832 -0.8968
18643TIP3   OH277419   0.938   2.927   4.283  0.3076  0.6333  0.1456
18643TIP3    H177420   0.970   3.003   4.234  1.8556 -0.4109 -0.5182
18643TIP3    H277421   1.010   2.864   4.280 -1.4054 -1.4093 -0.4347
18644TIP3   OH277422   1.157   5.123  12.612  0.2142 -0.3559  0.5254
18644TIP3    H177423   1.201   5.120  12.527 -0.7409  0.1636 -0.0018
18644TIP3    H277424   1.102   5.201  12.608  0.4050 -0.1350  1.7552
18645TIP3   OH277425   4.725   0.394   4.065 -0.3213 -0.2801  0.3146
18645TIP3    H177426   4.688   0.469   4.110 -0.6297 -0.2093 -0.0505
18645TIP3    H277427   4.761   0.430   3.984  1.4590 -0.1780  1.1006
18646TIP3   OH277428   6.683   0.792  12.083  0.0313 -0.0163  0.3187
18646TIP3    H177429   6.688   0.697  12.068 -0.6916 -0.0011 -0.0664
18646TIP3    H277430   6.719   0.830  12.002 -1.4835  0.0442 -0.3543
18647TIP3   OH277431   2.465   0.056   0.714 -0.1984 -0.2780  0.0520
18647TIP3    H177432   2.533  -0.010   0.728 -0.6022 -1.4818 -2.9912
18647TIP3    H277433   2.383   0.006   0.720 -0.8422  0.8776  2.1518
18648TIP3   OH277434   1.376   2.029   3.023  0.6152 -0.4103  0.2944
18648TIP3    H177435   1.427   2.053   2.946  0.8126 -0.2951  0.4574
18648TIP3    H277436   1.433   1.966   3.069  0.4921 -0.4905  0.3366
18649TIP3   OH277437   4.404   4.301   1.043  0.4969  0.0389 -0.3254
18649TIP3    H177438   4.381   4.372   1.102 -0.1521 -1.8326  1.8353
18649TIP3    H277439   4.490   4.325   1.008  1.4342  0.7844  2.2673
18650TIP3   OH277440   0.107   4.423   3.466 -0.1492  0.1341 -0.4430
18650TIP3    H177441   0.097   4.426   3.371  2.1467 -0.1467 -0.7547
18650TIP3    H277442   0.201   4.433   3.480 -0.3903 -0.2884  1.7877
18651TIP3   OH277443   3.456   3.806  13.569 -0.3688 -0.3227 -0.2053
18651TIP3    H177444   3.500   3.840  13.491  0.3106  0.1794  0.3828
18651TIP3    H277445   3.399   3.737  13.536  0.1897 -0.3762 -1.1008
18652TIP3   OH277446   4.167   1.963  14.943 -0.3357 -0.0965 -0.1147
18652TIP3    H177447   4.189   2.051  14.974 -3.3732  0.5280  0.5471
18652TIP3    H277448   4.214   1.905  15.003  0.9020  1.0428  0.0714
18653TIP3   OH277449   1.533   3.436   5.048 -0.3454 -0.2979  0.0146
18653TIP3    H177450   1.471   3.414   4.978 -0.3543  0.7608 -0.3281
18653TIP3    H277451   1.485   3.418   5.129 -1.6612  1.7939 -0.2113
18654TIP3   OH277452   1.097   3.966  16.503 -0.2337  1.3125  0.4009
18654TIP3    H177453   1.049   3.965  16.586 -0.5734 -0.0841  0.2193
18654TIP3    H277454   1.029   3.951  16.437  0.1973  1.2082 -0.0205
18655TIP3   OH277455   3.232   6.572  16.884 -0.5466  0.2490 -0.2672
18655TIP3    H177456   3.162   6.637  16.880 -0.1856  0.6010 -1.3384
18655TIP3    H277457   3.312   6.623  16.876 -0.2422 -0.2867 -0.7148
18656TIP3   OH277458   3.200   6.530   5.765  0.1227  0.1844  0.0510
18656TIP3    H177459   3.205   6.621   5.735 -1.3186 -0.0493 -1.0005
18656TIP3    H277460   3.272   6.486   5.720 -0.8767  0.2475 -1.6816
18657TIP3   OH277461   2.754   3.004   2.853 -0.8387 -0.1185  0.2715
18657TIP3    H177462   2.685   2.975   2.794 -0.0517 -0.5500 -0.4484
18657TIP3    H277463   2.719   2.988   2.941 -1.7521 -0.0828 -0.0788
18658TIP3   OH277464   2.251   5.763  15.574 -0.1192  0.2055 -0.4375
18658TIP3    H177465   2.159   5.776  15.549  0.0448  0.4882 -0.9109
18658TIP3    H277466   2.281   5.692  15.518  0.5621  1.5690 -1.8985
18659TIP3   OH277467   1.907   2.684  12.932  0.3384 -0.2314  0.2360
18659TIP3    H177468   1.861   2.657  13.011  2.9389 -0.6084  1.7349
18659TIP3    H277469   1.926   2.777  12.945 -0.4215  0.0621 -0.6195
18660TIP3   OH277470   5.593   2.614   5.498 -0.2126 -0.3761 -0.4929
18660TIP3    H177471   5.583   2.594   5.405 -0.8758  0.1102 -0.5309
18660TIP3    H277472   5.513   2.581   5.539 -0.5394  0.6017 -0.3036
18661TIP3   OH277473   4.260   0.036   4.108  0.6275  0.3311  0.1261
18661TIP3    H177474   4.207  -0.040   4.085 -0.0128  0.4482  1.1117
18661TIP3    H277475   4.284   0.021   4.199  0.3699  1.3608  0.3841
18662TIP3   OH277476   1.476   1.722   2.236 -0.1242  0.0020 -0.1044
18662TIP3    H177477   1.415   1.777   2.186  0.3049  1.0168  0.4516
18662TIP3    H277478   1.511   1.781   2.303  0.1395 -1.0399  0.6968
18663TIP3   OH277479   2.925   5.997   0.886 -0.2439 -0.3027  0.3049
18663TIP3    H177480   2.972   6.007   0.803 -0.8013 -2.2623 -0.3168
18663TIP3    H277481   2.937   6.080   0.931  0.6330  0.5810 -1.4556
18664TIP3   OH277482   2.608   2.028   3.920  0.1417  0.4391 -1.2617
18664TIP3    H177483   2.703   2.032   3.930  0.3369  0.3945 -2.9301
18664TIP3    H277484   2.586   1.936   3.932  0.2127  0.5339 -0.2904
18665TIP3   OH277485   6.383   3.349   5.022 -0.8503 -0.3616 -0.0864
18665TIP3    H177486   6.324   3.378   5.092 -1.7230 -0.1568 -0.8815
18665TIP3    H277487   6.393   3.255   5.036 -3.8048 -1.0129 -1.6396
18666TIP3   OH277488   0.928   5.462   5.027 -0.2636  0.2490 -0.9312
18666TIP3    H177489   0.907   5.373   4.998 -2.1627  0.8114 -1.4019
18666TIP3    H277490   0.999   5.489   4.969  0.9672 -1.2574 -0.1923
18667TIP3   OH277491   0.813   6.034   1.511  0.0906 -0.1600 -0.0277
18667TIP3    H177492   0.783   6.003   1.597  1.7002  0.7570  0.9086
18667TIP3    H277493   0.894   5.986   1.494  1.6100  2.0273  0.5878
18668TIP3   OH277494   3.499   3.402   4.082  0.0356 -0.8894  0.3227
18668TIP3    H177495   3.510   3.389   3.988 -0.6693  0.2813  0.0490
18668TIP3    H277496   3.465   3.319   4.115  1.6395 -1.7789 -0.1964
18669TIP3   OH277497   6.054   2.903  12.519  0.0420  0.3061 -0.3374
18669TIP3    H177498   6.035   2.965  12.448 -1.1206  0.7505  0.3276
18669TIP3    H277499   6.134   2.859  12.491 -0.1060  0.8248 -1.6858
18670TIP3   OH277500   1.712   4.838   0.272 -0.2090 -0.4050 -0.3359
18670TIP3    H177501   1.755   4.791   0.201 -0.2113  0.8139 -1.1608
18670TIP3    H277502   1.753   4.925   0.272 -1.4757  0.2090 -0.0348
18671TIP3   OH277503   6.030   3.822   5.046 -0.8099 -0.0039 -0.2081
18671TIP3    H177504   5.961   3.858   4.991 -2.0099  1.4424  2.0957
18671TIP3    H277505   5.986   3.794   5.126  0.8349 -2.2181  0.0384
18672TIP3   OH277506   4.551   3.287  14.274 -0.8735  0.7553 -0.0075
18672TIP3    H177507   4.600   3.291  14.191 -0.4057 -0.5797  0.1871
18672TIP3    H277508   4.462   3.264  14.247 -1.0062  1.5016 -0.2266
18673TIP3   OH277509   1.094   5.599  12.689  0.1349  0.2719 -0.0911
18673TIP3    H177510   1.066   5.656  12.761 -0.9955 -0.5803  0.1713
18673TIP3    H277511   1.057   5.640  12.611 -0.1808  0.2122  0.0265
18674TIP3   OH277512   6.139   3.036  14.779  0.4768  0.0250  0.2815
18674TIP3    H177513   6.146   3.091  14.701  2.2427 -1.1255 -0.4194
18674TIP3    H277514   6.129   3.098  14.851  1.8184  1.2536 -0.5465
18675TIP3   OH277515   6.199   5.232   1.394 -0.5986 -0.9031  0.3702
18675TIP3    H177516   6.204   5.140   1.421  0.0490 -0.8896  0.3148
18675TIP3    H277517   6.287   5.265   1.408 -0.6441 -0.4822 -0.3052
18676TIP3   OH277518   1.279   2.208  11.326 -0.6025  0.1101 -0.1752
18676TIP3    H177519   1.229   2.207  11.407 -1.7352 -2.3889 -0.8019
18676TIP3    H277520   1.220   2.246  11.261 -1.3253 -1.6441 -0.6290
18677TIP3   OH277521   3.820   4.336  12.863  0.5373  0.5949 -0.0031
18677TIP3    H177522   3.831   4.249  12.826  1.4696  0.9809 -0.6837
18677TIP3    H277523   3.727   4.341  12.887  0.1290 -0.0532 -1.3400
18678TIP3   OH277524   3.513   5.237  12.809  0.0178 -0.0894 -0.2770
18678TIP3    H177525   3.559   5.321  12.808 -0.7967  0.3643 -0.4860
18678TIP3    H277526   3.573   5.177  12.854  0.6093  0.6028 -0.1309
18679TIP3   OH277527   1.766   6.581  14.847 -0.0902 -0.4459  0.1125
18679TIP3    H177528   1.731   6.668  14.828  0.6640  0.2733  1.8356
18679TIP3    H277529   1.832   6.567  14.778 -1.4812 -0.4875 -1.2774
18680TIP3   OH277530   4.469   3.246  12.342  0.5006 -0.0753 -0.0443
18680TIP3    H177531   4.448   3.208  12.257 -0.9487 -1.8182  1.0162
18680TIP3    H277532   4.397   3.306  12.359 -0.5150 -1.5098  0.9402
18681TIP3   OH277533   4.470   2.485  13.471 -0.4760  0.0885 -0.2886
18681TIP3    H177534   4.502   2.574  13.456  1.7479 -0.4926  0.5926
18681TIP3    H277535   4.410   2.493  13.545  0.7531  0.7053  0.6792
18682TIP3   OH277536   5.247   0.511  12.081  0.2339 -0.5908  0.3020
18682TIP3    H177537   5.318   0.571  12.105  1.3644 -1.7594  0.0367
18682TIP3    H277538   5.206   0.552  12.004  0.1551  0.4425  0.8771
18683TIP3   OH277539   2.143   4.468   3.664 -0.1576  0.1729 -0.6985
18683TIP3    H177540   2.051   4.454   3.685 -0.1161 -0.4887 -0.9485
18683TIP3    H277541   2.191   4.427   3.735 -0.0537  0.8735 -0.3558
18684TIP3   OH277542   3.869   3.277  16.674  0.2722  0.0699 -0.3730
18684TIP3    H177543   3.958   3.267  16.707  0.3712 -0.4602 -0.7819
18684TIP3    H277544   3.855   3.200  16.618 -0.6544 -0.1646  0.1620
18685TIP3   OH277545   3.089   0.781  16.578 -0.1882 -0.1529  0.1436
18685TIP3    H177546   3.068   0.730  16.500 -2.4187 -0.0060  0.5840
18685TIP3    H277547   3.054   0.868  16.562 -0.1649  0.0476  1.0742
18686TIP3   OH277548   2.508   6.014   4.659 -0.3094  0.5674 -0.2244
18686TIP3    H177549   2.445   5.956   4.701  2.2310 -2.0180  0.3054
18686TIP3    H277550   2.535   5.967   4.580  2.6610  0.3555  0.8049
18687TIP3   OH277551   0.258   5.362  14.948 -0.1669  0.0100 -0.2806
18687TIP3    H177552   0.163   5.367  14.940 -0.2629 -0.5256  0.4299
18687TIP3    H277553   0.274   5.346  15.041  0.4546 -3.1189 -0.8168
18688TIP3   OH277554   5.746   1.244  13.313  0.4862 -0.0695  0.3065
18688TIP3    H177555   5.766   1.298  13.236  1.7468 -1.1608 -0.1846
18688TIP3    H277556   5.832   1.221  13.349 -0.0250 -1.2645  0.8234
18689TIP3   OH277557   0.705   0.590   0.283 -0.1292  0.3069  0.1722
18689TIP3    H177558   0.750   0.516   0.240  0.7474  0.2122  1.1970
18689TIP3    H277559   0.641   0.548   0.341  0.3235  0.3350  0.7049
18690TIP3   OH277560   2.179   5.611  11.402 -0.1667  0.7042 -0.8495
18690TIP3    H177561   2.090   5.603  11.369 -0.8396 -0.1709  1.0158
18690TIP3    H277562   2.219   5.526  11.383  0.1963  1.0106 -1.4688
18691TIP3   OH277563   3.455   2.217  16.304 -0.1348 -0.4372  0.4942
18691TIP3    H177564   3.417   2.176  16.226  1.2391  0.1628 -0.5206
18691TIP3    H277565   3.549   2.220  16.287 -0.1122  2.9365  0.5801
18692TIP3   OH277566   6.505   5.124  13.354 -0.3051 -0.6158  0.2753
18692TIP3    H177567   6.588   5.164  13.330 -0.5491 -0.7967 -0.9108
18692TIP3    H277568   6.529   5.040  13.394  0.0934 -0.5785  0.1155
18693TIP3   OH277569   5.651   0.154   3.854 -0.6943 -0.2399  0.5940
18693TIP3    H177570   5.727   0.184   3.905  0.1053 -1.2214  0.0190
18693TIP3    H277571   5.580   0.149   3.918  0.6793 -3.0780  2.1019
18694TIP3   OH277572   1.792   2.341  10.986 -0.2444  0.1322 -0.0620
18694TIP3    H177573   1.820   2.350  11.077  1.7287  1.5054 -0.7313
18694TIP3    H277574   1.865   2.297  10.943 -1.4166 -1.0656 -0.8915
18695TIP3   OH277575   5.763   5.870  11.513  0.0497  0.0313  0.0201
18695TIP3    H177576   5.789   5.851  11.603  1.2498 -0.5092 -0.4101
18695TIP3    H277577   5.676   5.908  11.520  0.2398  0.2499  1.4244
18696TIP3   OH277578   6.470   5.162  14.629 -0.0192 -0.2074 -0.7292
18696TIP3    H177579   6.564   5.183  14.632 -0.1114  0.1684 -0.3618
18696TIP3    H277580   6.427   5.247  14.639 -0.4098 -0.5595  0.9579
18697TIP3   OH277581   5.136   1.428  13.760 -0.0382  0.9400 -0.2798
18697TIP3    H177582   5.119   1.450  13.668 -1.0450  2.1719  0.1681
18697TIP3    H277583   5.061   1.464  13.807  0.3455  0.1138  1.0094
18698TIP3   OH277584   2.090   6.041  12.704 -0.3457 -0.1783  0.2077
18698TIP3    H177585   2.073   6.086  12.621 -2.5120  0.2087  0.8184
18698TIP3    H277586   2.053   5.953  12.691 -1.4815  0.1654  1.0392
18699TIP3   OH277587   5.937   2.390  13.590  0.8043  0.6403  0.3495
18699TIP3    H177588   5.964   2.369  13.680  2.4263  0.6818 -0.0865
18699TIP3    H277589   5.925   2.304  13.549 -1.9409  0.5789  1.0979
18700TIP3   OH277590   4.875   0.931   5.678 -0.0007  0.3215  0.0390
18700TIP3    H177591   4.815   0.959   5.609 -1.3481  1.1748  1.5117
18700TIP3    H277592   4.854   0.839   5.693  0.3665  0.1048 -0.7286
18701TIP3   OH277593   3.140   3.190   3.739  0.0130  0.2360 -0.4329
18701TIP3    H177594   3.166   3.271   3.696  0.7175 -0.4107 -1.2546
18701TIP3    H277595   3.046   3.183   3.721  0.0215  0.6749 -0.6590
18702TIP3   OH277596   3.550   3.029   3.073  0.9946  0.2094  0.2773
18702TIP3    H177597   3.627   2.973   3.081  0.6044 -0.4619 -0.4630
18702TIP3    H277598   3.477   2.968   3.063  0.6493  0.8298 -1.3626
18703TIP3   OH277599   3.779   1.506   3.774 -0.3253  0.2168  0.2898
18703TIP3    H177600   3.729   1.425   3.780  0.3973 -0.2295  0.3758
18703TIP3    H277601   3.869   1.478   3.757 -0.2734  1.0343 -0.9041
18704TIP3   OH277602   2.257   3.417   0.316  0.1117  0.4765 -0.0292
18704TIP3    H177603   2.282   3.368   0.394 -0.5891  1.3208  0.7550
18704TIP3    H277604   2.197   3.484   0.348 -3.2638 -1.4331 -1.7622
18705TIP3   OH277605   4.392   5.636   3.806  0.3724 -0.1352 -0.0451
18705TIP3    H177606   4.346   5.661   3.726  0.3831 -1.2692 -0.4182
18705TIP3    H277607   4.363   5.547   3.824  1.0504 -0.2165  0.7250
18706TIP3   OH277608   6.400   5.125   2.535 -0.0376 -0.6573  0.5162
18706TIP3    H177609   6.403   5.044   2.586 -0.9354 -0.7701  0.4133
18706TIP3    H277610   6.421   5.099   2.446  1.1668 -0.5219  0.7512
18707TIP3   OH277611   4.009   3.319   3.627 -0.2366 -0.4648 -0.4876
18707TIP3    H177612   3.999   3.300   3.720  0.8286 -0.7893 -0.4302
18707TIP3    H277613   3.940   3.383   3.608 -0.4824 -0.4187  0.5105
18708TIP3   OH277614   1.740   4.571  17.164 -0.2018 -0.1876 -0.7046
18708TIP3    H177615   1.709   4.485  17.138  0.6274 -1.5111  2.3318
18708TIP3    H277616   1.817   4.586  17.109  1.6592 -2.9626  0.9164
18709TIP3   OH277617   4.913   6.743  17.012 -0.3251 -0.0860  0.1472
18709TIP3    H177618   4.929   6.797  17.090  1.2614 -0.9722  0.4770
18709TIP3    H277619   4.925   6.653  17.042 -0.8072 -0.5161 -0.8825
18710TIP3   OH277620   1.032   5.418   4.146 -0.8674 -0.0069  0.0489
18710TIP3    H177621   1.033   5.323   4.154 -0.3364  0.1058  1.6362
18710TIP3    H277622   1.105   5.448   4.199 -1.1325  1.3097 -0.2802
18711TIP3   OH277623   1.347   1.569  10.431  0.6285 -0.1660 -0.5438
18711TIP3    H177624   1.316   1.504  10.367 -0.3602  0.6444 -0.9147
18711TIP3    H277625   1.365   1.647  10.379 -3.2855  1.6186  0.3982
18712TIP3   OH277626   6.778   1.137  14.160  0.1698  0.5373  0.2552
18712TIP3    H177627   6.815   1.151  14.247 -0.1485 -0.2278  0.5284
18712TIP3    H277628   6.683   1.147  14.173 -0.1839 -2.3311  0.6404
18713TIP3   OH277629   3.272   0.818   0.379  0.3199 -0.0848  0.3203
18713TIP3    H177630   3.278   0.799   0.286  0.5326  2.7415 -0.3302
18713TIP3    H277631   3.178   0.820   0.398  0.2703 -2.5028  0.6830
18714TIP3   OH277632   0.800   1.486  11.281  0.2486 -0.4482 -0.1539
18714TIP3    H177633   0.786   1.396  11.253 -1.4691  0.4093 -2.3501
18714TIP3    H277634   0.751   1.494  11.362 -0.9805 -1.0935 -0.8037
18715TIP3   OH277635   4.060   4.288  14.063  0.4917  0.2710 -0.3313
18715TIP3    H177636   4.045   4.196  14.083  1.1216 -0.2588 -2.1081
18715TIP3    H277637   4.139   4.288  14.008 -0.0223  1.7807 -1.1298
18716TIP3   OH277638   5.766   4.119   2.249 -0.1307 -0.2553  0.0781
18716TIP3    H177639   5.698   4.163   2.300 -0.3485 -0.8012  0.2650
18716TIP3    H277640   5.815   4.068   2.314 -0.1152 -0.5802 -0.1849
18717TIP3   OH277641   0.387   4.870  17.051 -0.5525  0.0014 -0.6466
18717TIP3    H177642   0.473   4.905  17.026 -0.5738  0.3151 -0.2980
18717TIP3    H277643   0.356   4.930  17.120  0.3538 -1.8666  1.5237
18718TIP3   OH277644   6.073   6.320   5.632 -0.1386  0.2402  0.5298
18718TIP3    H177645   6.034   6.340   5.547 -0.5868 -1.1456  0.3819
18718TIP3    H277646   6.066   6.402   5.682  2.2359  1.8044 -1.4785
18719TIP3   OH277647   2.890   6.752   6.026 -0.4232 -0.3744 -0.3103
18719TIP3    H177648   2.971   6.734   5.977 -0.0880 -1.6252  0.6413
18719TIP3    H277649   2.905   6.838   6.066  1.6791 -1.7225  2.1198
18720TIP3   OH277650   2.059   3.082   1.222 -0.0426  0.0220 -0.1756
18720TIP3    H177651   2.043   3.020   1.151  1.1714 -0.1183 -0.3371
18720TIP3    H277652   1.990   3.063   1.286 -0.3905 -0.6878 -0.7463
18721TIP3   OH277653   2.683   4.408   3.061 -0.1328 -0.7030 -0.5806
18721TIP3    H177654   2.696   4.324   3.017 -0.0100 -0.5502 -0.8411
18721TIP3    H277655   2.623   4.389   3.133  1.2871 -1.3846  0.4864
18722TIP3   OH277656   3.777   3.111   0.279 -0.6602 -0.0550 -0.1950
18722TIP3    H177657   3.804   3.164   0.204  0.3614  1.2172  1.0218
18722TIP3    H277658   3.743   3.173   0.343 -0.3731 -0.9519  0.8772
18723TIP3   OH277659   1.014   6.812   0.591 -0.2053  0.2673  1.0095
18723TIP3    H177660   1.098   6.851   0.614 -0.3325  0.8666  0.4948
18723TIP3    H277661   1.037   6.734   0.540  0.0809  1.8970 -1.5356
18724TIP3   OH277662   1.524   5.218   2.685 -0.4217 -0.2236 -0.0298
18724TIP3    H177663   1.597   5.193   2.627 -0.9032  0.9100 -1.1806
18724TIP3    H277664   1.542   5.310   2.706  0.8364 -1.0890  3.3561
18725TIP3   OH277665   4.118   4.731   2.509  0.6163 -0.1805 -0.1740
18725TIP3    H177666   4.052   4.667   2.484 -0.0901 -0.6864  2.6125
18725TIP3    H277667   4.187   4.679   2.550 -0.2820  0.7401  2.7836
18726TIP3   OH277668   1.100   4.151   4.213  0.0123 -0.6723 -0.4811
18726TIP3    H177669   1.089   4.127   4.305 -0.9216  1.5485  0.0661
18726TIP3    H277670   1.011   4.160   4.180  0.2980  1.0863 -0.8488
18727TIP3   OH277671   4.895   2.448   2.165 -0.0924  0.9019  0.3606
18727TIP3    H177672   4.888   2.466   2.259  0.2691  1.0437  0.3603
18727TIP3    H277673   4.989   2.434   2.150 -0.1723  0.6847  0.0557
18728TIP3   OH277674   6.292   2.368  11.344  0.1458  0.5619  0.1947
18728TIP3    H177675   6.270   2.389  11.434  0.7301  0.9365  0.2518
18728TIP3    H277676   6.208   2.373  11.297 -0.1419  0.4478  0.6962
18729TIP3   OH277677   2.992   3.310  14.387 -0.3896  0.3805  0.2075
18729TIP3    H177678   3.053   3.356  14.329  0.2430  0.0105  0.5697
18729TIP3    H277679   2.915   3.293  14.333  0.3197 -0.2541 -0.6357
18730TIP3   OH277680   3.163   1.089   4.770  0.0003 -0.3185 -0.5413
18730TIP3    H177681   3.220   1.026   4.726  0.4217 -0.7725  0.6068
18730TIP3    H277682   3.092   1.106   4.707  1.1626 -0.0572 -1.8336
18731TIP3   OH277683   2.752   0.537  11.483 -0.0696  0.0655 -0.3137
18731TIP3    H177684   2.762   0.450  11.444 -1.5339 -0.4071  0.2782
18731TIP3    H277685   2.809   0.536  11.560  1.1808  0.2406 -1.2049
18732TIP3   OH277686   1.928   2.990  12.285 -0.2284  0.4774  0.3331
18732TIP3    H177687   1.910   2.958  12.197  0.3873  2.0977 -0.4354
18732TIP3    H277688   1.846   3.031  12.313 -0.4856 -0.2117  0.6166
18733TIP3   OH277689   5.703   0.318   0.129  0.2710 -0.3753  0.2281
18733TIP3    H177690   5.622   0.352   0.090  1.0697 -0.1217 -1.2733
18733TIP3    H277691   5.692   0.223   0.126 -0.5012 -0.3356  1.2353
18734TIP3   OH277692   3.241   2.101   4.972 -0.0775  0.1259  0.0616
18734TIP3    H177693   3.172   2.046   4.936  0.3126  0.9018 -2.0269
18734TIP3    H277694   3.212   2.191   4.955  1.7697  0.4710 -1.7171
18735TIP3   OH277695   6.692   3.820  16.683  0.4127  0.0988  0.0583
18735TIP3    H177696   6.678   3.911  16.707  0.1924  0.2214 -0.5099
18735TIP3    H277697   6.619   3.799  16.625  2.1778  0.5682 -2.4896
18736TIP3   OH277698   3.818   1.887  16.529  0.1817 -0.3932 -0.1161
18736TIP3    H177699   3.869   1.969  16.528  0.3259 -0.4763 -0.9741
18736TIP3    H277700   3.861   1.833  16.462  1.6431 -2.1491  2.1008
18737TIP3   OH277701   3.016   4.066   0.127  0.0676  0.4770  0.5652
18737TIP3    H177702   3.091   4.114   0.161  0.8545 -1.1034  1.1754
18737TIP3    H277703   3.048   4.024   0.047 -0.6105  0.9622  0.0253
18738TIP3   OH277704   2.727   2.076  14.934  0.8852  0.0408  0.0652
18738TIP3    H177705   2.757   2.144  14.873 -0.7732 -0.1633 -1.0186
18738TIP3    H277706   2.723   1.997  14.882  1.7239 -0.6892  1.0617
18739TIP3   OH277707   5.920   5.015   3.983  0.0805 -0.1152 -0.5382
18739TIP3    H177708   5.858   5.031   4.054 -0.7263 -0.9106 -1.0385
18739TIP3    H277709   5.865   5.011   3.904  0.8559 -0.1266 -1.0938
18740TIP3   OH277710   5.567   0.303   0.395  0.0921 -0.1065  0.4165
18740TIP3    H177711   5.572   0.208   0.412 -0.3412 -0.1676  0.2131
18740TIP3    H277712   5.479   0.327   0.424  0.7975  0.5706  2.1226
18741TIP3   OH277713   0.497   2.135   0.695 -0.5882 -0.5762  0.3562
18741TIP3    H177714   0.487   2.229   0.711 -0.1197 -0.5296  0.3809
18741TIP3    H277715   0.427   2.095   0.747 -1.6700 -0.1636 -0.7351
18742TIP3   OH277716   3.290   6.174  13.600 -0.6127 -0.2308 -0.4463
18742TIP3    H177717   3.293   6.180  13.695  1.1245  0.0126 -0.4858
18742TIP3    H277718   3.303   6.081  13.581 -0.7431 -0.2472 -0.4551
18743TIP3   OH277719   2.993   6.676  12.973  1.0413  0.1715  0.4343
18743TIP3    H177720   2.935   6.748  12.950 -0.9213 -1.4498  0.0636
18743TIP3    H277721   3.027   6.644  12.890 -0.8342 -1.4742  0.2391
18744TIP3   OH277722   3.619   1.048  15.374 -0.4119  0.3124  0.0396
18744TIP3    H177723   3.611   1.130  15.325  0.2286 -0.3405 -1.2031
18744TIP3    H277724   3.634   0.981  15.307  0.5884 -0.6060  1.1352
18745TIP3   OH277725   0.703   3.725   2.823  0.2496  0.2320  0.8678
18745TIP3    H177726   0.783   3.723   2.770  0.8309 -0.9434  1.7517
18745TIP3    H277727   0.713   3.652   2.885 -0.4531  1.4847  2.5332
18746TIP3   OH277728   6.809   5.772  14.365  0.0011  0.1051  0.2968
18746TIP3    H177729   6.867   5.841  14.333  0.1331 -0.3469 -0.4686
18746TIP3    H277730   6.750   5.816  14.426  1.3948  0.4954  1.4063
18747TIP3   OH277731   1.635   6.374  13.103 -0.2203 -0.5029  0.5594
18747TIP3    H177732   1.588   6.403  13.182 -0.5591 -0.6250  0.4034
18747TIP3    H277733   1.684   6.297  13.131  1.8655  0.9998  1.3810
18748TIP3   OH277734   0.772   0.679   4.184 -0.1120 -0.3497 -0.6124
18748TIP3    H177735   0.724   0.651   4.107 -2.7468  2.5424 -0.2217
18748TIP3    H277736   0.826   0.752   4.154 -0.3582  0.1172  0.0564
18749TIP3   OH277737   5.877   5.591  13.587  0.1511 -0.5793 -0.6721
18749TIP3    H177738   5.949   5.616  13.529  0.3233  2.2659  0.5985
18749TIP3    H277739   5.798   5.603  13.535  0.3446  1.2567 -0.5978
18750TIP3   OH277740   4.961   3.517  16.126  0.1554 -0.2904 -0.0039
18750TIP3    H177741   4.945   3.605  16.159  1.0248 -0.4789  0.9750
18750TIP3    H277742   5.055   3.515  16.108 -0.0399 -0.6962 -1.0038
18751TIP3   OH277743   5.878   6.496  15.202 -0.1031 -0.0209  0.4325
18751TIP3    H177744   5.848   6.521  15.290 -1.7323  1.2441 -0.4135
18751TIP3    H277745   5.848   6.568  15.146  1.0931 -0.6969 -1.1341
18752TIP3   OH277746   5.741   5.870   2.196  0.6868 -0.4354 -0.8339
18752TIP3    H177747   5.689   5.884   2.275  2.6177 -0.7746  0.5533
18752TIP3    H277748   5.707   5.934   2.133 -1.3896 -0.6698 -0.0141
18753TIP3   OH277749   2.741   3.325   3.668  0.1226 -0.3743 -0.3741
18753TIP3    H177750   2.660   3.368   3.698 -0.8528 -1.5016 -1.3200
18753TIP3    H277751   2.805   3.396   3.663 -1.0161  0.6864 -0.3763
18754TIP3   OH277752   0.028   4.703   0.766  0.0853 -0.7082  0.5067
18754TIP3    H177753  -0.026   4.689   0.688 -0.0673 -0.6791  0.6073
18754TIP3    H277754   0.070   4.619   0.781  0.5422 -0.5665  0.0719
18755TIP3   OH277755   1.685   0.768  10.542  0.5442  0.1302 -0.5517
18755TIP3    H177756   1.706   0.763  10.635  0.4411 -0.3026 -0.5484
18755TIP3    H277757   1.681   0.861  10.523 -1.8221  0.2764  0.4004
18756TIP3   OH277758   6.006   5.217  14.415  0.4942 -0.4168  0.5224
18756TIP3    H177759   5.940   5.285  14.402 -0.3024 -1.5517 -2.0423
18756TIP3    H277760   5.980   5.173  14.495 -0.8023  0.3367  0.5439
18757TIP3   OH277761   4.826   5.815  12.118 -0.4971 -0.1872  0.0720
18757TIP3    H177762   4.875   5.824  12.199 -0.9524 -2.1321  0.6254
18757TIP3    H277763   4.883   5.852  12.051  0.6203 -0.0715  1.0514
18758TIP3   OH277764   1.551   0.626   3.635 -0.0470  0.3536 -0.3495
18758TIP3    H177765   1.499   0.569   3.578  0.6550 -0.8095  0.1371
18758TIP3    H277766   1.491   0.649   3.706 -0.5832  0.8973 -0.9675
18759TIP3   OH277767   1.207   2.054  16.448 -0.3182 -0.2191  0.7392
18759TIP3    H177768   1.128   2.081  16.400  0.9270  1.3073 -0.6276
18759TIP3    H277769   1.235   2.133  16.494  0.2592 -0.8080  1.4229
18760TIP3   OH277770   2.444   3.287  12.793  0.2639  0.0871  0.2800
18760TIP3    H177771   2.355   3.320  12.777  0.5778  1.1475  0.6369
18760TIP3    H277772   2.431   3.216  12.856 -0.3815 -0.1265 -0.0817
18761TIP3   OH277773   5.326   3.440  13.613  0.5953  0.1375 -0.6228
18761TIP3    H177774   5.266   3.382  13.660 -0.9951 -0.1067 -2.8288
18761TIP3    H277775   5.413   3.415  13.645 -0.0653 -2.9805 -0.9588
18762TIP3   OH277776   3.385   3.931  16.210 -0.0614 -0.5187  0.4595
18762TIP3    H177777   3.412   3.952  16.121 -0.5086 -1.3542  0.1091
18762TIP3    H277778   3.336   4.008  16.239  0.6854  0.0464  0.2483
18763TIP3   OH277779   5.952   4.331   4.651 -0.6033  0.0049 -0.1105
18763TIP3    H177780   5.930   4.284   4.570 -0.2191  1.1407 -0.8890
18763TIP3    H277781   5.960   4.262   4.716  0.9104 -1.1541 -1.4222
18764TIP3   OH277782   0.581   5.509   2.644 -0.5849  0.4025  0.2832
18764TIP3    H177783   0.490   5.541   2.646 -0.0827  1.9205  1.8846
18764TIP3    H277784   0.577   5.422   2.684 -1.3768  0.3101  0.0211
18765TIP3   OH277785   6.240   6.411  12.667 -0.1058  0.2657 -0.6853
18765TIP3    H177786   6.206   6.353  12.599  1.3858 -0.8329 -0.5200
18765TIP3    H277787   6.199   6.381  12.748  1.1311 -1.0029 -0.5003
18766TIP3   OH277788   4.136   5.020  16.159 -0.6650 -0.0253  0.5324
18766TIP3    H177789   4.231   5.027  16.156 -0.5260 -1.1616  1.2526
18766TIP3    H277790   4.118   4.987  16.247 -1.7423  0.3423  0.4659
18767TIP3   OH277791   4.620   6.676   1.944  0.1634 -0.1995  0.5065
18767TIP3    H177792   4.596   6.687   1.852  1.7619  0.1373  0.0862
18767TIP3    H277793   4.598   6.759   1.985  1.2249  0.3808 -0.0337
18768TIP3   OH277794   2.158   3.241  11.662  0.9047  0.6944 -0.2047
18768TIP3    H177795   2.118   3.250  11.575  1.7993  0.9048 -0.5998
18768TIP3    H277796   2.236   3.188  11.648  1.4958  1.4016  0.3382
18769TIP3   OH277797   0.531   5.792   0.595 -0.2051  0.2858 -0.3319
18769TIP3    H177798   0.498   5.882   0.598 -0.0461  0.3262  0.7946
18769TIP3    H277799   0.526   5.762   0.686 -0.0162 -0.7577 -0.6575
18770TIP3   OH277800   3.718   5.718  13.732  0.3335  0.0600  0.1277
18770TIP3    H177801   3.632   5.737  13.770  1.2033  1.9993  1.3080
18770TIP3    H277802   3.748   5.640  13.778  0.2916  0.9262  1.6879
18771TIP3   OH277803   2.731   0.862  13.232 -0.0855 -0.0568  0.0378
18771TIP3    H177804   2.735   0.784  13.177  0.5503 -0.0612  0.0846
18771TIP3    H277805   2.646   0.857  13.276  0.8741 -1.9279  1.8109
18772TIP3   OH277806   3.125   0.280   5.355  0.7288  0.0334 -0.6460
18772TIP3    H177807   3.181   0.278   5.278  0.7319 -0.0986 -0.6406
18772TIP3    H277808   3.087   0.368   5.355  1.9222  0.5747  0.0571
18773TIP3   OH277809   6.648   0.349   1.971  0.5678  0.3527 -0.1122
18773TIP3    H177810   6.670   0.442   1.966  0.4131  0.4135  0.2785
18773TIP3    H277811   6.571   0.346   2.028  1.0082 -0.0886  0.4648
18774TIP3   OH277812   1.424   0.631  12.957  0.1724  0.1461  0.0908
18774TIP3    H177813   1.425   0.538  12.980  0.2135  0.1566  0.1333
18774TIP3    H277814   1.374   0.636  12.876  1.5421 -0.1156 -0.8015
18775TIP3   OH277815   6.716   2.827  11.674  0.3077 -0.0065 -0.7210
18775TIP3    H177816   6.621   2.832  11.663  0.1098 -1.3958  0.1426
18775TIP3    H277817   6.731   2.850  11.765  0.8052  0.1712 -0.8436
18776TIP3   OH277818   5.300   1.740  15.900 -0.6480  0.2030 -0.0355
18776TIP3    H177819   5.355   1.686  15.957  0.2076  0.7332 -0.3555
18776TIP3    H277820   5.287   1.821  15.949  2.4253  1.8333 -1.6750
18777TIP3   OH277821   2.372   0.709  14.405  0.4955 -0.2762  0.0486
18777TIP3    H177822   2.349   0.682  14.494  0.1250  0.0092  0.0401
18777TIP3    H277823   2.420   0.634  14.369  0.8655 -0.2938  0.5722
18778TIP3   OH277824   0.350   5.876   3.910 -0.1426 -0.3583 -0.2383
18778TIP3    H177825   0.274   5.898   3.963  0.7531  2.9322 -0.1303
18778TIP3    H277826   0.319   5.882   3.819  0.0203  1.2997 -0.2031
18779TIP3   OH277827   4.952   1.794  17.106  0.2675 -0.3770  0.3348
18779TIP3    H177828   4.866   1.784  17.065 -0.3639 -1.6940  1.8549
18779TIP3    H277829   4.933   1.824  17.195  1.4051 -0.3092  0.5696
18780TIP3   OH277830   5.655   0.556  17.071  0.5037 -0.4425  0.0060
18780TIP3    H177831   5.637   0.468  17.103  1.4529 -1.2716 -1.6109
18780TIP3    H277832   5.751   0.561  17.065  0.4621  0.6708  0.0024
18781TIP3   OH277833   1.135   6.644  10.831  0.2522 -0.1931 -0.0260
18781TIP3    H177834   1.090   6.689  10.902 -2.0375 -2.0743 -0.1736
18781TIP3    H277835   1.129   6.704  10.757  0.5344  0.7657  0.6999
18782TIP3   OH277836   1.006   2.507   0.553  0.2530 -0.5151 -0.2286
18782TIP3    H177837   0.930   2.450   0.556  0.2697 -0.5557 -0.5167
18782TIP3    H277838   0.978   2.587   0.598  0.4896 -1.0381  0.8932
18783TIP3   OH277839   5.196   2.289  12.175 -0.3510  0.4742  0.4512
18783TIP3    H177840   5.259   2.338  12.228  0.3463  2.2725 -1.8554
18783TIP3    H277841   5.249   2.221  12.133 -0.2622  0.9544 -0.2266
18784TIP3   OH277842   6.533   4.913  16.236  0.1756  0.8511 -0.4152
18784TIP3    H177843   6.453   4.911  16.289 -0.0614 -0.5139 -0.7755
18784TIP3    H277844   6.599   4.949  16.295 -0.3825  0.6297  0.3702
18785TIP3   OH277845   3.158   1.205  12.152  0.1434  0.5527  0.2373
18785TIP3    H177846   3.163   1.169  12.063  0.3105  1.5525 -0.1630
18785TIP3    H277847   3.075   1.252  12.154 -1.1257 -1.5906  1.4440
18786TIP3   OH277848   5.421   1.972  10.801 -0.5806  0.5253  0.2087
18786TIP3    H177849   5.492   1.945  10.742 -1.7245 -0.1624 -0.9216
18786TIP3    H277850   5.396   2.059  10.770 -0.8252  0.3906  0.0288
18787TIP3   OH277851   2.943   6.740   3.490 -0.2881  0.1808 -0.0132
18787TIP3    H177852   2.935   6.647   3.470  1.0246  0.0959 -0.2299
18787TIP3    H277853   2.974   6.780   3.408 -0.0884  0.6793  0.2976
18788TIP3   OH277854   2.134   5.217   3.571  0.3217  0.5717 -0.2616
18788TIP3    H177855   2.145   5.166   3.491  1.6128 -1.4695  1.1226
18788TIP3    H277856   2.043   5.201   3.597  0.6435 -0.9127  0.0362
18789TIP3   OH277857   2.271   0.104  14.064 -0.2976 -0.1564  0.1549
18789TIP3    H177858   2.224   0.174  14.019 -3.3497 -1.2233  1.4066
18789TIP3    H277859   2.336   0.074  14.000 -0.0850  2.5579 -1.0587
18790TIP3   OH277860   3.923   3.369  13.998  0.3487  0.4976  0.7393
18790TIP3    H177861   3.884   3.303  14.056  0.0166  0.6004  0.6342
18790TIP3    H277862   3.960   3.318  13.926  2.7889  0.1557  2.1257
18791TIP3   OH277863   3.618   3.252   5.819 -0.2390 -0.1923 -0.3133
18791TIP3    H177864   3.576   3.334   5.844  0.2702  0.4722 -1.5277
18791TIP3    H277865   3.647   3.213   5.901 -1.6071  0.2115  0.3946
18792TIP3   OH277866   6.166   3.268  13.989 -0.1761 -0.5341 -0.2404
18792TIP3    H177867   6.243   3.241  13.938  0.5325  0.4876  0.2526
18792TIP3    H277868   6.188   3.356  14.020 -1.2304 -0.5398  0.5601
18793TIP3   OH277869   1.350   2.698   0.781 -0.0472  0.0175 -0.3739
18793TIP3    H177870   1.325   2.739   0.698  0.1357 -1.0498 -0.9834
18793TIP3    H277871   1.277   2.640   0.802  0.2256 -0.2549 -0.1695
18794TIP3   OH277872   6.605   5.461   4.939 -0.1146 -0.6132 -0.2379
18794TIP3    H177873   6.542   5.390   4.947 -1.1432  0.2797 -0.2883
18794TIP3    H277874   6.577   5.526   5.004  2.4837 -1.4263  1.8995
18795TIP3   OH277875   0.646   3.932   5.873  0.3096  0.1233  0.3045
18795TIP3    H177876   0.741   3.938   5.884  0.3280  1.1270 -0.2397
18795TIP3    H277877   0.612   3.926   5.963  0.9254 -1.2650  0.4656
18796TIP3   OH277878   0.653   0.681  11.838  0.2051  0.3338 -0.0846
18796TIP3    H177879   0.582   0.668  11.776 -0.3615 -3.3121  1.0907
18796TIP3    H277880   0.610   0.709  11.919  0.3136  0.0248  0.0839
18797TIP3   OH277881   3.534   0.271   1.217 -0.5124 -0.6202  0.3463
18797TIP3    H177882   3.542   0.221   1.299 -1.9480 -1.1253  0.2107
18797TIP3    H277883   3.460   0.230   1.172 -1.0415  0.9591 -0.2672
18798TIP3   OH277884   6.158   0.513  16.622 -0.4498  0.3435 -0.7323
18798TIP3    H177885   6.191   0.435  16.577 -0.0788  0.9059 -1.4630
18798TIP3    H277886   6.200   0.586  16.577  0.2473  0.9298  0.8072
18799TIP3   OH277887   6.390   6.359  16.212  0.0753  0.0207  0.6764
18799TIP3    H177888   6.434   6.417  16.274  0.9128  0.0603  0.0620
18799TIP3    H277889   6.355   6.288  16.266  1.8862 -0.6200  1.0683
18800TIP3   OH277890   6.182   1.283  13.556  0.6333 -0.4985 -0.2170
18800TIP3    H177891   6.094   1.268  13.591  0.8092 -1.0304  0.0012
18800TIP3    H277892   6.199   1.208  13.500 -0.2382  1.0570 -2.7180
18801TIP3   OH277893   0.477   5.607   5.719  0.0196 -0.4778 -0.0709
18801TIP3    H177894   0.400   5.552   5.728 -0.4734  0.4323  1.6432
18801TIP3    H277895   0.447   5.683   5.670 -0.4073  0.2363  1.2524
18802TIP3   OH277896   1.115   4.964   0.937  0.5034  0.1759 -0.1223
18802TIP3    H177897   1.086   5.043   0.890 -0.7052  0.3087  0.7947
18802TIP3    H277898   1.127   4.899   0.868 -1.8874  0.1611 -0.6412
18803TIP3   OH277899   0.836   5.069  15.836 -0.3059  0.1936 -0.1109
18803TIP3    H177900   0.891   4.992  15.825  1.3173  1.1338  0.9732
18803TIP3    H277901   0.791   5.056  15.919  2.7908  1.9301  2.0332
18804TIP3   OH277902   6.699   4.630  12.130  0.2619  0.6794 -0.3364
18804TIP3    H177903   6.728   4.558  12.074 -1.9114 -1.1800  0.7482
18804TIP3    H277904   6.769   4.638  12.196  0.4465 -0.6312 -0.3430
18805TIP3   OH277905   5.336   5.156  13.708  0.4241 -0.5713  0.2770
18805TIP3    H177906   5.430   5.160  13.727 -0.1173 -0.0508  3.5015
18805TIP3    H277907   5.302   5.240  13.738 -1.0652 -0.5574 -1.2706
18806TIP3   OH277908   2.305   2.348  14.894 -0.1545 -0.0357  0.4675
18806TIP3    H177909   2.369   2.331  14.963  1.0446 -0.4284 -0.7072
18806TIP3    H277910   2.283   2.262  14.860 -0.7845  0.1541  0.3728
18807TIP3   OH277911   1.711   4.304  13.011 -0.1399  0.8138  0.9780
18807TIP3    H177912   1.781   4.357  12.973  1.4257 -2.0913 -0.5024
18807TIP3    H277913   1.756   4.236  13.061 -1.8286 -1.3280 -0.2308
18808TIP3   OH277914   4.555   0.642   3.865  0.0659  0.4813 -0.8651
18808TIP3    H177915   4.482   0.679   3.816  0.0273  0.0160 -1.1575
18808TIP3    H277916   4.605   0.592   3.801  1.0373  1.3490 -0.8342
18809TIP3   OH277917   6.338   3.983  13.940  0.0547  0.1700  0.1461
18809TIP3    H177918   6.377   4.069  13.957  0.2801 -0.2405  1.9006
18809TIP3    H277919   6.368   3.960  13.852 -1.4608  2.6219 -1.1334
18810TIP3   OH277920   4.608   6.700  11.658 -0.0964  0.4450 -0.0113
18810TIP3    H177921   4.573   6.748  11.583  0.4837  0.8255 -0.0473
18810TIP3    H277922   4.696   6.736  11.670 -0.4158  0.8755  1.2585
18811TIP3   OH277923   0.286   0.675  12.349 -0.3091  0.5422  0.7763
18811TIP3    H177924   0.364   0.699  12.299  0.8796 -2.5657  0.9459
18811TIP3    H277925   0.305   0.703  12.439 -0.3192  1.6469  0.4482
18812TIP3   OH277926   2.497   1.036  15.154  0.0216  0.6021  0.0686
18812TIP3    H177927   2.460   0.972  15.214 -3.6065  3.1788  0.9045
18812TIP3    H277928   2.568   1.077  15.204 -0.4267  0.1180  1.1271
18813TIP3   OH277929   1.531   2.472  16.988 -0.1557  0.9792 -0.0957
18813TIP3    H177930   1.505   2.557  17.022  1.9868  1.7804 -0.2794
18813TIP3    H277931   1.594   2.439  17.052 -0.5430 -0.2276 -0.3069
18814TIP3   OH277932   2.480   6.595  15.917 -0.0691 -0.1155 -0.3319
18814TIP3    H177933   2.395   6.623  15.881 -0.7310 -1.1269  0.4056
18814TIP3    H277934   2.533   6.576  15.840 -0.2800  1.1525 -0.8171
18815TIP3   OH277935   1.163   0.994   1.485  0.0704 -0.3307 -0.7873
18815TIP3    H177936   1.196   0.929   1.547 -0.1736  1.2338  1.1021
18815TIP3    H277937   1.235   1.056   1.475 -0.6566  0.6355 -0.2578
18816TIP3   OH277938   2.437   5.507   0.484 -0.2535  0.0747  0.4073
18816TIP3    H177939   2.391   5.424   0.493 -0.4989  0.2964  1.2412
18816TIP3    H277940   2.529   5.484   0.497 -0.2342 -0.1917 -0.1683
18817TIP3   OH277941   0.708   1.054  15.664 -0.0362 -0.2751  0.1030
18817TIP3    H177942   0.785   1.097  15.700 -1.4052  2.8704 -0.3691
18817TIP3    H277943   0.654   1.033  15.740 -0.2711  0.8082  0.2432
18818TIP3   OH277944   1.970   0.388  13.205  0.3387 -0.1429 -0.1039
18818TIP3    H177945   2.028   0.447  13.157  0.3760 -1.7925 -2.2780
18818TIP3    H277946   1.977   0.305  13.158 -0.1992 -1.7333  2.4004
18819TIP3   OH277947   0.339   4.356   5.158 -0.5061 -0.6263 -0.4064
18819TIP3    H177948   0.246   4.355   5.136 -0.1286 -2.0610 -2.1802
18819TIP3    H277949   0.352   4.440   5.203 -2.2196  0.6560 -2.1345
18820TIP3   OH277950   1.581   3.372   0.737 -0.7687 -0.5368 -0.8449
18820TIP3    H177951   1.564   3.422   0.657  3.1017  1.2213 -0.7664
18820TIP3    H277952   1.612   3.287   0.705 -0.5722 -0.3365 -1.1952
18821TIP3   OH277953   2.312   1.346  14.059  0.0854  0.0850 -0.7027
18821TIP3    H177954   2.355   1.287  13.996 -0.6491  0.0004 -1.1380
18821TIP3    H277955   2.285   1.289  14.131  0.1046  0.0237 -0.7434
18822TIP3   OH277956   1.462   4.252   4.868  0.2858 -0.2303 -0.0381
18822TIP3    H177957   1.516   4.173   4.863  0.1394 -0.2650 -1.6054
18822TIP3    H277958   1.525   4.323   4.855  0.1535 -0.2011 -0.5365
18823TIP3   OH277959   3.090   2.468  16.707  0.4864  0.2264  0.6132
18823TIP3    H177960   3.011   2.427  16.672 -0.2287  0.5811  1.7457
18823TIP3    H277961   3.058   2.549  16.749  1.5202  0.6454  0.6102
18824TIP3   OH277962   6.009   1.901  12.896  0.2530  0.1934 -0.1244
18824TIP3    H177963   5.937   1.850  12.935  1.4927  0.0308  2.1423
18824TIP3    H277964   6.074   1.835  12.872  0.4386  0.4750 -0.4030
18825TIP3   OH277965   5.903   5.387  11.972 -0.4973 -0.2414 -0.3984
18825TIP3    H177966   5.934   5.471  11.939  1.4774 -0.5732  0.4149
18825TIP3    H277967   5.845   5.409  12.045 -1.9012  0.4164 -1.6664
18826TIP3   OH277968   4.524   6.716  10.751 -0.8243 -0.5339 -0.4996
18826TIP3    H177969   4.430   6.723  10.735 -1.2199 -1.4173  1.1577
18826TIP3    H277970   4.538   6.623  10.771  0.0371 -0.0954  1.1329
18827TIP3   OH277971   2.487   6.824   1.998  0.5676 -0.2338  0.1229
18827TIP3    H177972   2.395   6.839   2.019  0.3737 -1.0430 -0.1368
18827TIP3    H277973   2.486   6.774   1.917  1.2776  1.8388 -1.2790
18828TIP3   OH277974   4.925   2.836  13.442  0.7636 -0.3415  0.4097
18828TIP3    H177975   4.946   2.746  13.418  2.1026 -0.0323  0.3361
18828TIP3    H277976   4.963   2.847  13.530  1.5859  0.4605 -0.0252
18829TIP3   OH277977   3.992   2.602  13.478  0.4099 -0.1323  0.5279
18829TIP3    H177978   4.043   2.657  13.538  0.9266  0.2385 -0.2401
18829TIP3    H277979   4.045   2.597  13.399 -0.9287  0.6498 -0.4768
18830TIP3   OH277980   6.391   0.190  11.460  0.2312 -0.3463  0.6446
18830TIP3    H177981   6.302   0.211  11.488 -0.3193  2.3617 -2.5106
18830TIP3    H277982   6.446   0.218  11.533 -1.3404  1.5407  1.2123
18831TIP3   OH277983   1.408   0.881  16.892  0.0550 -0.3339 -0.2350
18831TIP3    H177984   1.328   0.929  16.915  0.5551  0.1099  0.6022
18831TIP3    H277985   1.397   0.796  16.935 -0.3475 -0.6005 -0.8420
18832TIP3   OH277986   2.597   2.969  15.412 -0.0268  0.2089  0.4242
18832TIP3    H177987   2.519   2.915  15.403  0.6392 -0.7023 -0.0040
18832TIP3    H277988   2.566   3.059  15.400 -1.0232 -0.1368  0.3850
18833TIP3   OH277989   6.153   3.927   0.515  0.2460 -0.3563 -0.4828
18833TIP3    H177990   6.158   3.938   0.610 -1.2100 -1.0262 -0.3088
18833TIP3    H277991   6.108   4.006   0.484 -0.3812 -0.7129 -0.4781
18834TIP3   OH277992   5.922   6.704  11.986  0.2416 -0.3443 -0.0502
18834TIP3    H177993   5.978   6.702  12.063 -1.1518  1.2800  1.0827
18834TIP3    H277994   5.855   6.638  12.003  0.3104 -0.4482 -0.1811
18835TIP3   OH277995   4.425   5.783  14.936 -0.5370 -0.4064 -0.2557
18835TIP3    H177996   4.503   5.735  14.965  0.0764 -1.4205 -3.2252
18835TIP3    H277997   4.365   5.779  15.011  1.0981 -2.2181  1.0712
18836TIP3   OH277998   5.033   2.091  14.101 -0.8745 -0.1739 -0.0131
18836TIP3    H177999   5.096   2.029  14.136 -0.5910  0.2434  0.2313
18836TIP3    H278000   5.030   2.073  14.007  0.7562  0.7907 -0.2857
18837TIP3   OH278001   0.646   3.403   3.937 -0.1416  0.1184  0.4414
18837TIP3    H178002   0.559   3.419   3.974 -0.5123 -1.1040  0.1432
18837TIP3    H278003   0.630   3.364   3.852  0.6900 -0.5336  0.5655
18838TIP3   OH278004   3.871   3.350  13.088 -0.3067  0.0534  0.4424
18838TIP3    H178005   3.961   3.321  13.073  0.2897  2.3111 -0.7255
18838TIP3    H278006   3.854   3.328  13.179  1.6438  0.1457  0.8690
18839TIP3   OH278007   1.142   6.447  15.631 -0.6139  0.5262 -0.0888
18839TIP3    H178008   1.060   6.427  15.676 -0.5445 -1.0538 -0.6227
18839TIP3    H278009   1.203   6.379  15.660  0.6569  1.8678  0.5816
18840TIP3   OH278010   0.987   4.984  13.306 -0.4789 -0.0643 -0.5355
18840TIP3    H178011   0.990   5.076  13.332 -0.8402  0.5816 -2.5447
18840TIP3    H278012   1.077   4.963  13.283 -0.7362  0.5136 -2.2115
18841TIP3   OH278013   5.906   3.571  14.617 -0.1920 -0.2999 -0.4516
18841TIP3    H178014   5.897   3.666  14.617  0.5137 -0.2206  0.4802
18841TIP3    H278015   5.970   3.553  14.548 -0.3581 -0.1062 -0.6567
18842TIP3   OH278016   2.264   5.747  12.479 -0.2559 -0.9451  0.0145
18842TIP3    H178017   2.205   5.821  12.462 -1.4763 -1.5800  1.3733
18842TIP3    H278018   2.213   5.669  12.457  0.4206 -1.4625  0.2439
18843TIP3   OH278019   2.740   4.714  13.280 -0.2936  0.6664 -0.4611
18843TIP3    H178020   2.774   4.760  13.204 -2.0723  2.2668 -0.3861
18843TIP3    H278021   2.706   4.784  13.337 -0.1040 -0.5561  1.2335
18844TIP3   OH278022   4.698   3.166   4.446  0.0100  0.1550  0.0903
18844TIP3    H178023   4.721   3.255   4.472  1.4705  0.1747 -1.0933
18844TIP3    H278024   4.735   3.110   4.514 -2.7899  0.4617  2.0288
18845TIP3   OH278025   1.122   4.947   0.147 -0.4743  0.2148 -0.3772
18845TIP3    H178026   1.216   4.948   0.127 -0.3938  0.3559  0.0092
18845TIP3    H278027   1.112   5.009   0.219 -0.7641 -0.2955  0.0228
18846TIP3   OH278028   5.692   3.172  16.248 -0.4657 -0.0610 -0.1371
18846TIP3    H178029   5.710   3.250  16.195  0.7606 -0.2860 -0.0792
18846TIP3    H278030   5.629   3.202  16.314  0.8500  1.1982  0.6027
18847TIP3   OH278031   0.347   1.024   5.022 -0.2291 -0.0624  0.2489
18847TIP3    H178032   0.379   1.059   4.939 -0.9819  2.1302  0.8247
18847TIP3    H278033   0.289   0.952   4.996  2.3944 -1.9270 -0.9199
18848TIP3   OH278034   1.433   0.044   1.929 -0.1137  0.1267  1.1812
18848TIP3    H178035   1.401   0.054   1.840 -1.1101 -1.9435  1.2492
18848TIP3    H278036   1.406   0.124   1.973  0.7899  1.3807 -0.4465
18849TIP3   OH278037   2.927   2.459   2.229 -0.0052  0.2372 -1.0569
18849TIP3    H178038   2.931   2.513   2.307 -1.2915  0.1546 -0.9041
18849TIP3    H278039   2.961   2.514   2.159  0.5186  0.5511 -0.5578
18850TIP3   OH278040   6.398   1.891  11.659 -0.3536  0.5566 -0.0775
18850TIP3    H178041   6.321   1.946  11.672 -1.9378 -1.7619  1.2146
18850TIP3    H278042   6.433   1.877  11.747 -0.1281 -0.6275 -0.3308
18851TIP3   OH278043   5.663   0.823   1.463 -0.5331 -0.0613  0.1299
18851TIP3    H178044   5.752   0.835   1.428 -0.5005 -0.4515  0.0719
18851TIP3    H278045   5.607   0.873   1.404 -0.4199 -0.3070 -0.1851
18852TIP3   OH278046   1.150   4.690   5.465  0.3884  0.0797 -0.0802
18852TIP3    H178047   1.194   4.630   5.405  1.7153 -0.3741  1.2847
18852TIP3    H278048   1.056   4.675   5.449  0.6921 -1.6396 -0.4569
18853TIP3   OH278049   1.500   0.075  11.199 -0.6059  0.2962 -0.0041
18853TIP3    H178050   1.539   0.148  11.152 -0.3093  0.4040  0.4059
18853TIP3    H278051   1.424   0.050  11.146  0.2424 -0.1776 -1.0309
18854TIP3   OH278052   5.738   5.549   2.326  0.7688  0.2305  0.6025
18854TIP3    H178053   5.745   5.644   2.339  1.0735  0.0466  2.0403
18854TIP3    H278054   5.773   5.534   2.239 -1.8420  1.7209 -0.8101
18855TIP3   OH278055   3.616   2.478  13.844 -0.0899  0.6104 -0.3713
18855TIP3    H178056   3.619   2.545  13.777  1.4603  0.6590 -0.2958
18855TIP3    H278057   3.569   2.405  13.803  1.9102  0.1538 -2.0029
18856TIP3   OH278058   5.924   1.071   2.701  0.5096 -0.0255  0.3453
18856TIP3    H178059   5.966   1.152   2.730  1.0088  0.1736 -0.8437
18856TIP3    H278060   5.830   1.091   2.698  0.7892  1.2736 -2.0548
18857TIP3   OH278061   4.371   1.748  12.068  0.0645  0.3778 -0.0706
18857TIP3    H178062   4.445   1.726  12.010  0.2864  2.6933 -0.7943
18857TIP3    H278063   4.408   1.808  12.132 -0.7598 -0.1084  0.8862
18858TIP3   OH278064   5.364   2.604  16.157  0.0410 -0.3245 -0.5126
18858TIP3    H178065   5.342   2.546  16.229  0.1872 -2.5174 -2.1177
18858TIP3    H278066   5.295   2.671  16.158  0.1164 -0.2177  1.6771
18859TIP3   OH278067   1.253   5.285   1.364  0.1157  0.0185 -0.0569
18859TIP3    H178068   1.223   5.257   1.278 -0.5431  0.2340  0.0913
18859TIP3    H278069   1.280   5.376   1.352 -2.8164  1.0879  0.5384
18860TIP3   OH278070   3.866   0.038   5.462  0.5811  0.2773  0.0156
18860TIP3    H178071   3.856  -0.007   5.379 -0.5911 -1.6621  1.1358
18860TIP3    H278072   3.777   0.051   5.494  1.0319 -0.8730  1.8899
18861TIP3   OH278073   5.795   1.004   3.862 -1.1147  0.0079 -0.8082
18861TIP3    H178074   5.796   0.927   3.805  0.9368 -0.6220 -0.0195
18861TIP3    H278075   5.805   1.078   3.803  0.2047 -0.5860 -1.3557
18862TIP3   OH278076   2.599   4.800   5.824 -0.3242  0.2536  0.2969
18862TIP3    H178077   2.538   4.783   5.896 -0.9136 -0.1869 -0.2945
18862TIP3    H278078   2.670   4.851   5.864 -1.0794  0.7807  0.9929
18863TIP3   OH278079   0.022   3.727   5.905 -0.3302 -0.3134 -0.2128
18863TIP3    H178080   0.037   3.680   5.823  0.8546  1.8253 -1.3350
18863TIP3    H278081  -0.002   3.660   5.968 -2.2770 -1.9404 -2.5215
18864TIP3   OH278082   5.871   6.101   4.498 -0.0723 -0.9172 -0.8598
18864TIP3    H178083   5.882   6.103   4.403  0.1156 -0.3048 -0.8303
18864TIP3    H278084   5.780   6.127   4.512  0.1979  0.0900 -0.8364
18865TIP3   OH278085   6.196   4.967   3.250 -0.6280  0.4117 -0.1756
18865TIP3    H178086   6.144   4.919   3.185  0.9237 -2.1602  0.3415
18865TIP3    H278087   6.263   5.012   3.198  0.7878 -1.8668 -0.4611
18866TIP3   OH278088   1.704   2.386  11.786 -0.2526  0.2184  0.4115
18866TIP3    H178089   1.707   2.470  11.741 -0.4754  0.4826  0.8739
18866TIP3    H278090   1.742   2.403  11.873 -0.0116 -0.2310  0.3997
18867TIP3   OH278091   6.563   4.645  13.520  0.2468  0.3491 -0.3992
18867TIP3    H178092   6.541   4.605  13.604  5.0526 -0.4059  0.7483
18867TIP3    H278093   6.541   4.578  13.455 -1.4857  0.0965  0.3810
18868TIP3   OH278094   5.233   4.315  13.092  0.2918 -0.3620 -0.1065
18868TIP3    H178095   5.286   4.361  13.027 -0.3516 -1.1283 -1.2176
18868TIP3    H278096   5.265   4.225  13.089 -0.6146 -0.6898 -0.3295
18869TIP3   OH278097   5.147   5.210  15.823  0.6274 -0.6903  0.9652
18869TIP3    H178098   5.228   5.166  15.851  0.8221  0.0518  1.6113
18869TIP3    H278099   5.161   5.227  15.730  1.3526 -0.3022  1.1321
18870TIP3   OH278100   2.397   6.161  14.308  0.1399 -0.4298 -0.4239
18870TIP3    H178101   2.436   6.187  14.225 -0.0804 -1.4116 -0.8515
18870TIP3    H278102   2.439   6.217  14.374  2.2166 -1.4150 -0.8638
18871TIP3   OH278103   1.265   5.881   4.806  0.1425 -0.1483  0.0100
18871TIP3    H178104   1.286   5.959   4.857 -0.8101 -0.3107  0.6751
18871TIP3    H278105   1.349   5.853   4.769  0.2013  2.5753 -2.2844
18872TIP3   OH278106   6.645   4.955   2.493 -0.2112  0.2075 -0.0512
18872TIP3    H178107   6.662   4.997   2.578  0.6483  0.0891 -0.1648
18872TIP3    H278108   6.721   4.976   2.440 -1.0494  0.8730 -1.0402
18873TIP3   OH278109   1.669   2.875   5.841  0.3596 -0.6714 -0.1617
18873TIP3    H178110   1.608   2.815   5.882  1.2796 -0.9120  0.9069
18873TIP3    H278111   1.623   2.908   5.764 -0.6428 -1.7466 -0.0421
18874TIP3   OH278112   1.930   6.502  11.122 -0.2820 -0.0465 -0.8542
18874TIP3    H178113   1.927   6.573  11.058 -1.3348  1.7579  1.0589
18874TIP3    H278114   2.004   6.524  11.179 -1.1125 -0.0031  0.2399
18875TIP3   OH278115   2.948   5.697   0.516  0.6691 -0.2391  0.1801
18875TIP3    H178116   2.911   5.631   0.458  0.6590 -1.2618  1.3323
18875TIP3    H278117   3.004   5.750   0.459  0.0001 -0.6856 -0.9231
18876TIP3   OH278118   0.216   2.102  15.379 -0.0640  0.2545 -0.8356
18876TIP3    H178119   0.154   2.161  15.422  0.4177  0.5246 -0.4967
18876TIP3    H278120   0.236   2.036  15.446 -0.2213 -0.0071 -1.0460
18877TIP3   OH278121   5.684   3.573  13.001  0.0083 -0.5121 -0.2865
18877TIP3    H178122   5.617   3.537  12.943 -1.4817  0.6661  0.6475
18877TIP3    H278123   5.683   3.668  12.983 -0.9416 -0.0252  2.0563
18878TIP3   OH278124   1.616   1.958   1.208 -0.3211  0.7725 -0.0488
18878TIP3    H178125   1.602   1.875   1.162 -0.0757 -2.0674  4.3646
18878TIP3    H278126   1.533   1.975   1.252  0.2143  1.7839  0.6065
18879TIP3   OH278127   4.986   5.407   4.767  0.1360 -0.1117 -0.5248
18879TIP3    H178128   5.052   5.339   4.755 -0.9289 -1.2524 -0.2226
18879TIP3    H278129   4.998   5.437   4.858 -1.4482 -2.2915  0.5105
18880TIP3   OH278130   0.931   3.729  13.837  0.1258  0.1983 -0.6167
18880TIP3    H178131   0.881   3.650  13.856 -1.3543  1.2935  0.2986
18880TIP3    H278132   0.922   3.783  13.916 -0.7356  2.1706 -1.9682
18881TIP3   OH278133   6.074   6.802   1.972  0.3523  0.2465  0.1755
18881TIP3    H178134   6.134   6.777   1.902  1.7320 -2.5389  2.1364
18881TIP3    H278135   6.130   6.838   2.040 -0.7697  1.4786  0.4986
18882TIP3   OH278136   1.073   0.570  16.248  0.6670  0.3735  0.0022
18882TIP3    H178137   1.074   0.483  16.207  3.0468  0.1956  0.2865
18882TIP3    H278138   0.982   0.598  16.242 -0.0802 -1.9223 -0.5531
18883TIP3   OH278139   0.365   3.523   5.311  0.3840  0.1693  0.2479
18883TIP3    H178140   0.399   3.435   5.293  2.6232  1.1032 -0.4493
18883TIP3    H278141   0.430   3.562   5.369 -0.1335  1.6505 -0.1243
18884TIP3   OH278142   6.538   2.304  16.274 -0.6062  0.4613  0.1379
18884TIP3    H178143   6.489   2.268  16.200  1.9254 -1.0414 -0.9662
18884TIP3    H278144   6.540   2.398  16.258  0.3884  0.1465 -2.1728
18885TIP3   OH278145   4.919   5.157   5.566 -0.3082  0.1486 -0.1581
18885TIP3    H178146   4.831   5.121   5.569 -0.5257  0.4769 -1.7720
18885TIP3    H278147   4.975   5.089   5.604 -0.8476 -1.4200 -2.0694
18886TIP3   OH278148   3.634   4.869  13.799  0.1012  0.2566  0.1279
18886TIP3    H178149   3.596   4.943  13.847 -0.7760 -1.0787  1.5776
18886TIP3    H278150   3.602   4.880  13.710 -1.8245  0.4746  0.7881
18887TIP3   OH278151   4.696   4.262  12.216 -0.1258 -0.6757 -0.5269
18887TIP3    H178152   4.612   4.249  12.258  0.0051 -6.0864 -1.2812
18887TIP3    H278153   4.751   4.302  12.284 -2.0534 -1.4587  1.6053
18888TIP3   OH278154   3.330   3.657   0.124  0.2230 -0.5332  0.3210
18888TIP3    H178155   3.413   3.702   0.141 -0.9552  1.4046  1.2412
18888TIP3    H278156   3.285   3.656   0.208 -0.6680 -1.6253 -0.1420
18889TIP3   OH278157   0.336   4.854   1.929 -0.0371  0.5476 -0.1525
18889TIP3    H178158   0.397   4.928   1.927 -1.6638  1.9468 -0.0595
18889TIP3    H278159   0.350   4.811   1.845  0.8166  1.0440 -0.2901
18890TIP3   OH278160   3.494   3.494   4.623 -0.1540 -0.0335 -0.4069
18890TIP3    H178161   3.517   3.416   4.572  1.7519 -0.8482  1.5141
18890TIP3    H278162   3.578   3.535   4.643 -0.8252  0.4577  1.6860
18891TIP3   OH278163   1.175   0.857   2.823  0.4150 -0.4520 -0.1893
18891TIP3    H178164   1.087   0.837   2.790  0.3149 -1.1807  0.4994
18891TIP3    H278165   1.166   0.856   2.918  0.7744  1.3050 -0.1061
18892TIP3   OH278166   2.952   3.799  12.270  0.5252 -0.5408  0.1632
18892TIP3    H178167   2.919   3.792  12.181  2.6475 -2.5193 -0.5568
18892TIP3    H278168   2.888   3.751  12.323  1.0065 -2.4583 -0.8868
18893TIP3   OH278169   6.245   2.271   1.577 -0.6329  0.1876 -0.2178
18893TIP3    H178170   6.174   2.322   1.538 -0.9375 -1.2004 -1.5539
18893TIP3    H278171   6.266   2.205   1.512 -0.2844 -1.4399  1.4696
18894TIP3   OH278172   0.387   1.978   1.574 -0.1958  0.7497  0.6165
18894TIP3    H178173   0.374   1.962   1.668  0.5757  4.9277  1.6587
18894TIP3    H278174   0.480   2.000   1.567  0.2480 -1.3938 -1.6015
18895TIP3   OH278175   5.404   0.277   0.042  0.4969  0.7929 -0.1570
18895TIP3    H178176   5.370   0.231  -0.035  1.1364  0.3758 -0.1961
18895TIP3    H278177   5.359   0.236   0.116  1.9472 -0.7832 -0.0821
18896TIP3   OH278178   4.666   3.144   5.452 -0.1993 -0.4497 -0.3904
18896TIP3    H178179   4.676   3.056   5.415  1.2114 -0.2338 -0.5949
18896TIP3    H278180   4.674   3.203   5.377 -0.5122 -0.1288 -0.1729
18897TIP3   OH278181   3.680   1.128  10.523 -0.8045 -0.1419 -0.4618
18897TIP3    H178182   3.739   1.161  10.455  0.1316 -0.9227 -0.0511
18897TIP3    H278183   3.734   1.121  10.601 -1.7260  0.1702  0.2154
18898TIP3   OH278184   5.874   6.289  12.757 -0.5064 -0.2310  0.3721
18898TIP3    H178185   5.869   6.304  12.662  0.6289  0.5530  0.4222
18898TIP3    H278186   5.783   6.277  12.784 -1.2058  2.6941 -0.3257
18899TIP3   OH278187   1.443   1.168  12.689 -0.0537  0.1244  0.1703
18899TIP3    H178188   1.443   1.139  12.780  1.6675 -1.5878 -0.3183
18899TIP3    H278189   1.525   1.217  12.680  0.3623 -0.7011 -0.7156
18900TIP3   OH278190   2.225   0.647  13.355 -0.1562  0.2628 -0.1516
18900TIP3    H178191   2.201   0.686  13.439 -0.3100 -1.8432  0.8524
18900TIP3    H278192   2.262   0.720  13.305 -1.7794  1.9956  1.0068
18901TIP3   OH278193   3.756   1.353  11.644  0.4989  0.2289  0.4635
18901TIP3    H178194   3.691   1.369  11.576  1.0286 -1.1935 -0.4191
18901TIP3    H278195   3.720   1.394  11.723 -1.3780 -0.3666 -0.0454
18902TIP3   OH278196   2.305   6.444   2.176  0.1423  0.5145  0.1099
18902TIP3    H178197   2.349   6.529   2.176 -0.4748  0.8408  0.3169
18902TIP3    H278198   2.320   6.410   2.088  3.5853 -0.8728  1.0667
18903TIP3   OH278199   5.707   2.093   1.128  0.1876  0.1720  0.5888
18903TIP3    H178200   5.720   2.014   1.075  1.2929  0.7027  0.0270
18903TIP3    H278201   5.630   2.135   1.091  0.1744 -0.1451  0.2534
18904TIP3   OH278202   3.011   3.507  17.096  0.5101  0.0199 -0.0377
18904TIP3    H178203   2.926   3.549  17.085  0.1498 -0.9221 -0.9762
18904TIP3    H278204   3.035   3.525  17.187 -1.3530 -0.8645  0.6852
18905TIP3   OH278205   1.394   2.836  14.123 -0.1143 -0.2188  0.4849
18905TIP3    H178206   1.464   2.874  14.176  1.2313 -3.6452  1.4466
18905TIP3    H278207   1.436   2.766  14.074 -1.9583  0.8103 -2.8727
18906TIP3   OH278208   3.512   4.668   3.140  0.2291 -0.7654 -0.4990
18906TIP3    H178209   3.495   4.593   3.083  2.5461 -0.1931 -2.0668
18906TIP3    H278210   3.601   4.654   3.173 -0.2513  0.0285  1.2721
18907TIP3   OH278211   6.310   4.986   4.514  0.1979  0.1929 -0.5678
18907TIP3    H178212   6.222   4.997   4.552  0.8930 -0.7496  1.4467
18907TIP3    H278213   6.297   4.927   4.440 -0.9303  0.5073 -0.6484
18908TIP3   OH278214   2.400   3.663  14.515 -0.0075  0.6571 -0.3876
18908TIP3    H178215   2.335   3.612  14.564 -0.1925  0.1445 -1.1508
18908TIP3    H278216   2.464   3.598  14.486  0.6486  1.1054  0.0331
18909TIP3   OH278217   2.720   2.383  15.407 -0.1663  0.1569 -0.8499
18909TIP3    H178218   2.729   2.478  15.400 -1.5412  0.3547 -0.2125
18909TIP3    H278219   2.720   2.365  15.501 -0.7564 -0.3782 -0.9447
18910TIP3   OH278220   3.847   5.333   6.063  0.6729 -0.2636  0.3572
18910TIP3    H178221   3.868   5.416   6.106 -0.0257  1.0081 -1.6067
18910TIP3    H278222   3.752   5.334   6.053  0.6816 -1.1763  0.0676
18911TIP3   OH278223   2.490   0.045   5.269  0.5398 -0.1835 -0.4368
18911TIP3    H178224   2.504   0.043   5.174 -0.9004  0.0894 -0.6785
18911TIP3    H278225   2.395   0.057   5.279  0.7710  0.6740  1.0335
18912TIP3   OH278226   6.419   6.242  16.815  0.2969 -0.1238  0.1403
18912TIP3    H178227   6.437   6.335  16.808  0.2425 -0.1404 -0.2453
18912TIP3    H278228   6.327   6.237  16.840 -0.1387 -0.0902 -1.3723
18913TIP3   OH278229   3.340   2.101  14.346 -0.2339 -0.3107 -0.0520
18913TIP3    H178230   3.390   2.082  14.425 -0.7204  1.2178  0.6419
18913TIP3    H278231   3.403   2.143  14.287  0.1794 -1.6250 -0.6003
18914TIP3   OH278232   2.574   0.089   1.680  0.1903  0.6887  0.2652
18914TIP3    H178233   2.664   0.065   1.703 -0.2677 -0.1802  1.2529
18914TIP3    H278234   2.562   0.176   1.717  0.1082  0.1136  1.6605
18915TIP3   OH278235   5.573   0.011   0.941  0.4709  0.0166  0.7145
18915TIP3    H178236   5.612   0.002   1.028  1.1230  0.4647  0.4765
18915TIP3    H278237   5.590  -0.074   0.899 -1.5674 -0.9383  1.6754
18916TIP3   OH278238   1.840   5.284  17.018 -0.2864  0.7136 -0.1588
18916TIP3    H178239   1.852   5.252  17.108 -1.2827  0.8852  0.0530
18916TIP3    H278240   1.920   5.259  16.973 -0.0876 -0.0659  0.5806
18917TIP3   OH278241   5.809   1.409  13.092 -0.1135  0.4486 -0.4950
18917TIP3    H178242   5.753   1.459  13.032 -0.3387  1.6752  0.6705
18917TIP3    H278243   5.888   1.391  13.042 -0.8293  0.2562 -1.5909
18918TIP3   OH278244   3.536   1.596   3.863 -0.3746 -0.0336  1.2578
18918TIP3    H178245   3.499   1.524   3.913 -0.3574  0.3371  1.8115
18918TIP3    H278246   3.627   1.569   3.846 -1.0321 -1.2255 -0.6494
18919TIP3   OH278247   0.204   2.034   3.082  0.5238  0.0000 -0.3126
18919TIP3    H178248   0.217   1.973   3.009  0.1783  0.9866 -1.2421
18919TIP3    H278249   0.212   2.121   3.041 -3.1668  0.6816  0.0747
18920TIP3   OH278250   4.634   0.565  11.624 -0.3510 -0.0644  0.6715
18920TIP3    H178251   4.693   0.616  11.679  0.7433  0.6272 -1.0294
18920TIP3    H278252   4.616   0.485  11.674 -1.4742  1.5964  3.0646
18921TIP3   OH278253   6.058   4.804   0.842  0.4081  0.4140  0.5952
18921TIP3    H178254   6.029   4.725   0.796  0.3005 -0.1412  1.5965
18921TIP3    H278255   6.048   4.874   0.777 -1.4910 -0.0437  0.3251
18922TIP3   OH278256   3.363   5.521  13.727  0.0754  0.2196  0.4843
18922TIP3    H178257   3.348   5.546  13.818 -1.7879 -0.3210  0.3519
18922TIP3    H278258   3.405   5.435  13.733  0.6586  0.5180  0.8284
18923TIP3   OH278259   2.705   0.365   6.088 -0.1376  0.3167  0.1594
18923TIP3    H178260   2.628   0.360   6.032  0.6081 -0.5486 -0.8413
18923TIP3    H278261   2.727   0.458   6.092 -0.0355  0.3782 -1.2606
18924TIP3   OH278262   3.891   6.172  12.239  0.5570 -0.1269 -0.1134
18924TIP3    H178263   3.848   6.258  12.248 -0.0098 -0.3712 -0.4214
18924TIP3    H278264   3.971   6.190  12.190 -0.4877 -0.0323 -1.8704
18925TIP3   OH278265   6.501   4.730   3.221 -0.0563 -0.3816  0.7045
18925TIP3    H178266   6.574   4.787   3.243 -0.6077  1.5083 -1.8538
18925TIP3    H278267   6.435   4.789   3.182 -1.4548 -2.4800 -0.3323
18926TIP3   OH278268   2.620   5.190   5.096  0.3149  0.0917 -0.1077
18926TIP3    H178269   2.647   5.221   5.183  0.4286  2.4819 -0.9270
18926TIP3    H278270   2.526   5.207   5.093  0.3040 -0.0279 -0.4367
18927TIP3   OH278271   4.655   5.778   1.962 -0.4372 -0.8305 -0.4342
18927TIP3    H178272   4.687   5.714   1.897  0.9640 -1.3088  0.6822
18927TIP3    H278273   4.628   5.725   2.036  1.2555 -0.1407  0.7300
18928TIP3   OH278274   5.931   6.552   2.473  0.1011 -0.1095 -0.3782
18928TIP3    H178275   5.942   6.647   2.479 -1.2625  0.1470 -1.5109
18928TIP3    H278276   6.002   6.516   2.526  0.2265  1.5515  0.6315
18929TIP3   OH278277   2.474   1.285   4.776 -0.2036 -0.3421 -0.0164
18929TIP3    H178278   2.493   1.280   4.683 -0.0854  1.0692 -0.0862
18929TIP3    H278279   2.552   1.249   4.819  0.4077  0.4658 -0.4328
18930TIP3   OH278280   5.256   6.203   2.886 -0.2259  0.4536 -0.3300
18930TIP3    H178281   5.242   6.222   2.979  1.4586 -1.5131  0.3815
18930TIP3    H278282   5.220   6.116   2.873 -0.8527  0.8803 -1.6736
18931TIP3   OH278283   2.782   3.584  11.641 -0.2552 -0.0622 -0.1558
18931TIP3    H178284   2.841   3.517  11.607  0.7287 -0.2791  1.8486
18931TIP3    H278285   2.696   3.541  11.642 -0.3089 -0.1005 -2.0785
18932TIP3   OH278286   3.213   1.863  11.264  0.4219 -0.3363  0.0145
18932TIP3    H178287   3.218   1.814  11.182  2.6686  0.4772 -0.4157
18932TIP3    H278288   3.177   1.948  11.240  0.4560 -0.3276 -0.0049
18933TIP3   OH278289   4.459   6.613  15.793  0.2487 -0.0787  0.9820
18933TIP3    H178290   4.381   6.663  15.766  1.1954  0.4479 -1.0063
18933TIP3    H278291   4.428   6.558  15.865 -1.2079  2.2652  2.2724
18934TIP3   OH278292   5.602   3.145   1.145 -0.2273  0.1115 -0.2184
18934TIP3    H178293   5.608   3.064   1.196 -1.6241  0.5131  0.6442
18934TIP3    H278294   5.508   3.159   1.134  0.0106  1.2636 -0.9390
18935TIP3   OH278295   3.978   4.177   0.511 -0.4846 -0.3715 -0.9387
18935TIP3    H178296   3.891   4.144   0.534 -0.7804  0.1411 -1.2802
18935TIP3    H278297   3.997   4.138   0.425 -0.5910 -0.1123 -1.0834
18936TIP3   OH278298   4.370   0.458  16.897 -0.2484  0.5936  0.2253
18936TIP3    H178299   4.412   0.544  16.891 -1.3810  1.1042 -0.8130
18936TIP3    H278300   4.416   0.414  16.969  1.5276  1.3934 -0.3515
18937TIP3   OH278301   3.057   0.732   4.474 -0.1604 -0.2553 -0.0861
18937TIP3    H178302   3.095   0.684   4.401  0.8828  1.0571 -0.4307
18937TIP3    H278303   3.125   0.792   4.502 -1.5633  1.3771  0.0088
18938TIP3   OH278304   1.070   2.726  16.201 -0.1503 -0.0411  0.0366
18938TIP3    H178305   1.011   2.718  16.126 -0.3955 -0.3936  0.2676
18938TIP3    H278306   1.090   2.820  16.205  0.6211 -0.1402 -1.0497
18939TIP3   OH278307   3.757   1.152   0.400 -0.1865 -0.4149 -0.3446
18939TIP3    H178308   3.774   1.240   0.368  0.0357 -0.9350 -1.7367
18939TIP3    H278309   3.682   1.122   0.350  0.3380 -1.3651 -0.5938
18940TIP3   OH278310   0.662   2.272   0.864 -0.4081  0.5115  0.1864
18940TIP3    H178311   0.717   2.204   0.902 -0.6360  0.1866 -0.0562
18940TIP3    H278312   0.620   2.230   0.789 -0.5628  0.9159  0.0417
18941TIP3   OH278313   0.018   5.521   0.864  0.1399  0.4418 -0.1855
18941TIP3    H178314   0.059   5.435   0.856 -1.7188 -0.7040  1.7721
18941TIP3    H278315  -0.073   5.506   0.839 -0.1412  1.9390 -0.1161
18942TIP3   OH278316   0.588   3.552  11.066 -0.4112  0.5039 -0.3222
18942TIP3    H178317   0.564   3.459  11.074  0.1462  0.5106  3.4975
18942TIP3    H278318   0.520   3.590  11.010 -0.5018 -2.1902 -2.2349
18943TIP3   OH278319   2.022   1.850  10.910 -0.3648 -0.5853 -0.0839
18943TIP3    H178320   1.964   1.909  10.958  1.0607 -0.0461  1.0466
18943TIP3    H278321   2.057   1.903  10.838 -0.2757 -0.5077  0.0162
18944TIP3   OH278322   2.639   1.135   1.823  0.0431 -0.5386  0.3048
18944TIP3    H178323   2.647   1.094   1.737 -1.9877  1.6781 -1.0810
18944TIP3    H278324   2.559   1.098   1.861 -0.4150  0.2407  0.1311
18945TIP3   OH278325   1.245   5.243   5.955 -0.7084 -0.1762 -1.1129
18945TIP3    H178326   1.183   5.294   6.008 -0.0948 -0.5861  0.0280
18945TIP3    H278327   1.227   5.152   5.979  0.9313 -0.2580 -0.0625
18946TIP3   OH278328   0.515   2.947  12.087 -0.4420  0.1404  0.5113
18946TIP3    H178329   0.527   2.948  12.182  1.0126  0.8906  0.3384
18946TIP3    H278330   0.493   2.856  12.067  1.5889 -0.5864  1.3124
18947TIP3   OH278331   4.438   4.618   2.342  0.2218 -0.0871 -0.1927
18947TIP3    H178332   4.483   4.557   2.284  1.8994 -0.9401  1.8573
18947TIP3    H278333   4.364   4.567   2.377  0.2056 -0.1402 -0.3050
18948TIP3   OH278334   6.300   1.654  10.877  0.2924  0.2242  0.0761
18948TIP3    H178335   6.308   1.561  10.896  0.7941  0.4220  0.8632
18948TIP3    H278336   6.378   1.675  10.826  0.3411  0.2803  0.1732
18949TIP3   OH278337   1.581   3.366  13.636  0.0537  0.3538 -0.0781
18949TIP3    H178338   1.635   3.293  13.604 -0.4688 -0.1628  0.1935
18949TIP3    H278339   1.549   3.336  13.721 -1.2657  0.3436 -0.5646
18950TIP3   OH278340   3.952   6.663   1.996 -0.3076 -0.4224 -0.4936
18950TIP3    H178341   3.898   6.733   2.033 -0.3231 -0.9741  0.5925
18950TIP3    H278342   3.895   6.620   1.932 -0.5951  0.0110 -0.5315
18951TIP3   OH278343   2.143   0.302   0.942 -0.1542  0.1893 -0.3814
18951TIP3    H178344   2.144   0.393   0.969 -1.6700 -0.4199  2.0186
18951TIP3    H278345   2.236   0.279   0.932  0.2912  1.6636  0.1301
18952TIP3   OH278346   5.126   3.636  16.880  0.7241 -0.4846 -0.0573
18952TIP3    H178347   5.083   3.683  16.809  0.3890 -1.1546 -0.2980
18952TIP3    H278348   5.061   3.635  16.951  0.8823 -0.2303  0.0908
18953TIP3   OH278349   1.917   4.655  12.713  0.6921 -0.0873  0.6069
18953TIP3    H178350   1.934   4.652  12.619 -1.1029  1.6359  0.1614
18953TIP3    H278351   1.903   4.748  12.732 -1.0816 -0.6183  2.1589
18954TIP3   OH278352   4.028   5.906  16.310 -0.0037  0.7245 -0.1040
18954TIP3    H178353   4.019   5.816  16.277 -1.3894  1.2425 -1.2073
18954TIP3    H278354   4.117   5.931  16.283 -0.0576  0.1164 -0.9183
18955TIP3   OH278355   6.075   1.553   4.718  0.3774  0.6409 -0.1258
18955TIP3    H178356   6.070   1.563   4.813  0.1990  2.3658 -0.2881
18955TIP3    H278357   6.168   1.559   4.699  0.3730  0.7647 -0.1080
18956TIP3   OH278358   6.187   1.884  15.297  0.3678  0.0108  0.4956
18956TIP3    H178359   6.251   1.902  15.366  0.9380 -0.3157  0.0617
18956TIP3    H278360   6.239   1.846  15.226 -0.4217 -1.0371  0.4497
18957TIP3   OH278361   0.424   0.567   2.045 -0.2189 -0.7666 -0.0992
18957TIP3    H178362   0.444   0.617   1.966  1.5298 -2.0314 -0.4952
18957TIP3    H278363   0.503   0.573   2.098 -1.5130  0.4695  1.8511
18958TIP3   OH278364   5.200   1.818   4.300 -1.1746 -0.0430  0.0042
18958TIP3    H178365   5.289   1.801   4.332 -0.8264  1.6365  0.0133
18958TIP3    H278366   5.213   1.844   4.209 -1.7439 -0.5536 -0.2262
18959TIP3   OH278367   1.809   3.672  15.146 -0.2152 -0.0420 -0.3555
18959TIP3    H178368   1.725   3.701  15.181 -0.1790  0.8319 -0.9638
18959TIP3    H278369   1.869   3.677  15.220 -0.5080  0.1537 -0.1295
18960TIP3   OH278370   0.352   6.538  12.799  0.4228 -0.1228  0.3775
18960TIP3    H178371   0.394   6.506  12.879 -0.2814  0.2395  0.8989
18960TIP3    H278372   0.421   6.533  12.733  1.1857  0.1089  1.1314
18961TIP3   OH278373   2.205   2.209  15.458 -0.2248  0.4701 -0.0527
18961TIP3    H178374   2.275   2.199  15.392 -0.6850 -1.8517 -0.2759
18961TIP3    H278375   2.145   2.272  15.419 -0.4394 -0.7811 -1.8909
18962TIP3   OH278376   5.642   3.568  14.730  0.2323  0.4137 -0.3578
18962TIP3    H178377   5.569   3.577  14.669  0.9563  1.0476 -1.1546
18962TIP3    H278378   5.719   3.552  14.675  0.8733  0.8037  0.3859
18963TIP3   OH278379   3.707   0.209   2.352 -0.1770  0.0750 -0.2528
18963TIP3    H178380   3.737   0.295   2.323  4.2855 -0.2767  2.4098
18963TIP3    H278381   3.661   0.225   2.434  1.3166 -0.0593  0.6362
18964TIP3   OH278382   6.305   3.632  15.088 -0.1936  0.0506  0.0580
18964TIP3    H178383   6.355   3.552  15.076 -0.7073 -0.4096  0.9054
18964TIP3    H278384   6.214   3.604  15.088 -0.3630  0.5453  0.9020
18965TIP3   OH278385   1.620   0.254   4.980 -0.3759 -0.1738  0.0239
18965TIP3    H178386   1.555   0.190   5.009 -1.1288  0.9523  0.8993
18965TIP3    H278387   1.704   0.217   5.008 -0.9086 -0.1452  1.7671
18966TIP3   OH278388   5.707   0.135  16.026  0.1397 -0.0022 -0.2243
18966TIP3    H178389   5.740   0.192  16.095 -0.5332 -0.3351  0.3861
18966TIP3    H278390   5.725   0.046  16.057  0.7873 -0.1428 -0.9707
18967TIP3   OH278391   3.129   5.598   0.690 -0.0594  0.0586  0.1736
18967TIP3    H178392   3.120   5.663   0.759  1.6532 -0.4036  0.9023
18967TIP3    H278393   3.057   5.615   0.630  0.5624  2.9301  0.1017
18968TIP3   OH278394   3.409   3.905  12.852 -0.1057 -0.1314 -0.2106
18968TIP3    H178395   3.415   3.966  12.925  0.2089  1.2067 -1.3117
18968TIP3    H278396   3.464   3.831  12.879 -0.4288  0.0757  1.1133
18969TIP3   OH278397   4.990   4.079  13.816  0.2255  0.2001  0.4348
18969TIP3    H178398   5.071   4.130  13.824  1.4893 -1.6292 -0.0395
18969TIP3    H278399   4.987   4.055  13.724 -0.0222 -1.0566  0.7638
18970TIP3   OH278400   4.666   4.306  14.746 -0.6875 -0.1354  0.3494
18970TIP3    H178401   4.632   4.380  14.696 -0.4530  0.1091  0.5468
18970TIP3    H278402   4.589   4.254  14.768 -0.7547 -0.4067 -0.5282
18971TIP3   OH278403   6.054   5.605   0.728 -0.0239 -0.3178  0.0237
18971TIP3    H178404   6.007   5.550   0.791 -2.8812  1.4746 -0.3866
18971TIP3    H278405   6.113   5.658   0.782 -2.7463  1.5253  1.4070
18972TIP3   OH278406   3.760   3.222   2.670  0.0675  0.4601  0.2183
18972TIP3    H178407   3.845   3.201   2.709  0.0357  1.0289  0.5950
18972TIP3    H278408   3.696   3.180   2.727  0.1229 -0.5941 -0.4776
18973TIP3   OH278409   2.396   4.082   4.754 -0.2591  0.1539  0.3686
18973TIP3    H178410   2.471   4.036   4.792 -0.2971 -0.3356 -0.1313
18973TIP3    H278411   2.320   4.049   4.802 -0.3734 -0.8952 -0.4749
18974TIP3   OH278412   4.698   0.909   3.264  0.2175  0.2060  0.2328
18974TIP3    H178413   4.652   0.942   3.342 -0.2585  0.4920 -0.1671
18974TIP3    H278414   4.648   0.831   3.239 -0.4754  0.9007 -0.6046
18975TIP3   OH278415   5.669   0.485   0.718  0.3173 -0.1143  0.6869
18975TIP3    H178416   5.680   0.483   0.623 -0.7534 -0.4253  0.5495
18975TIP3    H278417   5.579   0.516   0.730 -0.1007 -1.6053  1.5609
18976TIP3   OH278418   6.509   4.108   5.429 -0.3771 -0.5092  0.0484
18976TIP3    H178419   6.482   4.118   5.520 -1.0541  1.5278 -0.3453
18976TIP3    H278420   6.438   4.146   5.378  0.6043 -0.3734 -1.2725
18977TIP3   OH278421   2.170   3.038   2.683  0.6334  0.0941 -0.2365
18977TIP3    H178422   2.074   3.039   2.678  0.5209  1.2673  1.3081
18977TIP3    H278423   2.188   3.046   2.777  2.2464  0.5586 -0.5708
18978TIP3   OH278424   1.472   2.435  12.577 -0.1952 -0.7529 -0.4341
18978TIP3    H178425   1.389   2.409  12.617 -0.7628 -0.9072 -1.6520
18978TIP3    H278426   1.514   2.353  12.552  1.4236 -0.8311  2.1414
18979TIP3   OH278427   3.328   6.108   4.217 -0.1587  0.5543 -0.3476
18979TIP3    H178428   3.348   6.148   4.302  1.2284 -0.5150 -0.1331
18979TIP3    H278429   3.241   6.141   4.195 -0.5600  0.8311  1.4882
18980TIP3   OH278430   1.635   6.437  16.335  0.2343 -0.2098 -0.3403
18980TIP3    H178431   1.688   6.516  16.335  0.1358 -0.1412  0.3990
18980TIP3    H278432   1.615   6.421  16.427  0.7844 -1.4516 -0.4150
18981TIP3   OH278433   5.399   5.561   4.120  0.1914  0.4028 -0.0113
18981TIP3    H178434   5.495   5.557   4.115  0.1772 -1.3975  0.4565
18981TIP3    H278435   5.375   5.637   4.067  1.7037 -0.8540 -2.7073
18982TIP3   OH278436   0.102   5.232  12.955 -0.1072 -0.2293  0.2025
18982TIP3    H178437   0.194   5.228  12.978  0.0576 -0.2871 -0.4464
18982TIP3    H278438   0.083   5.326  12.945 -0.2091 -0.1983  0.6893
18983TIP3   OH278439   3.480   2.602   6.117 -0.4522 -0.0861  0.1383
18983TIP3    H178440   3.430   2.652   6.053 -1.7223  0.7822  1.7253
18983TIP3    H278441   3.441   2.515   6.115 -0.0116 -0.2711 -0.7466
18984TIP3   OH278442   6.206   6.090   4.100  0.1722 -0.4777 -0.1797
18984TIP3    H178443   6.276   6.025   4.106  0.4285 -0.1778  0.1405
18984TIP3    H278444   6.225   6.140   4.021  0.5968 -0.0840  0.1661
18985TIP3   OH278445   6.327   3.015   6.665 -0.2172 -0.0288 -0.1038
18985TIP3    H178446   6.273   3.048   6.593  2.1073  1.0555 -1.4757
18985TIP3    H278447   6.283   2.936   6.694 -1.3609 -0.4166 -2.6233
18986TIP3   OH278448   0.465   5.450   4.611 -0.6185  0.3590  0.3116
18986TIP3    H178449   0.537   5.477   4.554 -0.0049  0.6267  1.1891
18986TIP3    H278450   0.435   5.531   4.653  0.1520 -0.0583  1.7330
18987TIP3   OH278451   5.670   3.115  14.780 -0.1573  0.0268 -0.2752
18987TIP3    H178452   5.718   3.141  14.702 -1.7120 -0.6336 -1.4946
18987TIP3    H278453   5.578   3.123  14.756 -0.6895  0.2473  1.6427
18988TIP3   OH278454   2.717   6.139   1.042  0.5347  0.3047  0.0229
18988TIP3    H178455   2.769   6.140   1.122  0.2780 -0.8432  0.2281
18988TIP3    H278456   2.633   6.179   1.067  0.4257 -0.1242  0.3593
18989TIP3   OH278457   4.471   1.974   5.638 -0.6734  0.0365 -0.2856
18989TIP3    H178458   4.461   1.881   5.616 -1.4551  0.4865 -2.0132
18989TIP3    H278459   4.486   1.975   5.732 -0.3041 -1.8668 -0.2847
18990TIP3   OH278460   3.353   2.311  13.354 -0.3478  0.1915 -0.3834
18990TIP3    H178461   3.319   2.372  13.289 -0.1756  0.5545 -0.1392
18990TIP3    H278462   3.279   2.292  13.411 -0.3158  0.4549 -0.2507
18991TIP3   OH278463   0.872   2.850   2.786  0.4934  0.0465 -0.1497
18991TIP3    H178464   0.809   2.790   2.744 -0.6511  0.7655  0.4742
18991TIP3    H278465   0.957   2.813   2.766 -0.1872 -2.4112  1.0909
18992TIP3   OH278466   5.272   5.394   2.378  0.0450 -0.4330  0.2727
18992TIP3    H178467   5.238   5.306   2.397 -1.7103  0.2135  0.2975
18992TIP3    H278468   5.328   5.381   2.301 -1.9942 -1.2712 -1.1907
18993TIP3   OH278469   6.671   5.529   2.916 -0.0995  0.0214 -0.3025
18993TIP3    H178470   6.696   5.621   2.917 -0.5524  0.1419  0.1835
18993TIP3    H278471   6.625   5.517   2.833  0.0912  0.1950 -0.4340
18994TIP3   OH278472   0.613   6.535  14.037 -0.3266  0.0775 -0.7999
18994TIP3    H178473   0.653   6.619  14.016 -0.8430  0.2971 -0.9173
18994TIP3    H278474   0.519   6.547  14.019 -1.3909  1.2005  4.0533
18995TIP3   OH278475   1.849   4.663   0.079  0.1894  0.3851 -0.2686
18995TIP3    H178476   1.933   4.693   0.044  0.2092 -0.9371 -1.4123
18995TIP3    H278477   1.804   4.622   0.005 -0.4909 -1.0026  0.8533
18996TIP3   OH278478   4.108   4.429  14.813  0.1531 -0.4948  0.4213
18996TIP3    H178479   4.139   4.436  14.903 -1.7590 -0.0735  1.0961
18996TIP3    H278480   4.154   4.499  14.766  2.5184 -1.8500  0.6100
18997TIP3   OH278481   4.110   0.039   3.556  0.2035  0.6485  0.6854
18997TIP3    H178482   4.079  -0.012   3.630  0.2984  0.5635  0.6676
18997TIP3    H278483   4.202   0.014   3.547 -0.2751 -0.8603 -0.6850
18998TIP3   OH278484   2.957   2.318  13.369 -0.1560 -0.1478  0.5799
18998TIP3    H178485   3.028   2.269  13.410 -0.5392  0.5324  2.0933
18998TIP3    H278486   2.892   2.330  13.438 -1.6078 -0.4517 -0.6842
18999TIP3   OH278487   2.010   1.396  17.221  0.0702  0.5229 -0.8534
18999TIP3    H178488   2.033   1.470  17.277 -0.1650  0.0235 -0.0753
18999TIP3    H278489   1.937   1.428  17.168 -0.5886  0.5938  0.0704
19000TIP3   OH278490   1.678   0.907  13.197 -0.0431 -1.1667 -0.0922
19000TIP3    H178491   1.599   0.961  13.198  2.3892  2.8169  0.0682
19000TIP3    H278492   1.738   0.955  13.140  2.9705 -2.7894  1.5042
19001TIP3   OH278493   3.981   6.245   3.617  0.0907 -0.2911  0.1602
19001TIP3    H178494   4.053   6.306   3.607 -0.2437  0.0699 -0.0988
19001TIP3    H278495   3.975   6.228   3.711 -0.6120  1.0658  0.3903
19002TIP3   OH278496   5.314   1.189  12.780 -0.2735 -0.0959  0.3292
19002TIP3    H178497   5.271   1.205  12.696  1.0126 -0.7427 -0.4872
19002TIP3    H278498   5.260   1.123  12.823 -0.3184 -0.6087 -0.5033
19003TIP3   OH278499   0.890   3.505   1.738  0.8895 -0.3024 -0.5419
19003TIP3    H178500   0.861   3.454   1.662 -0.0768  0.8221 -0.9584
19003TIP3    H278501   0.830   3.580   1.741  0.1335 -0.9217  2.0391
19004TIP3   OH278502   2.381   3.445   6.626 -0.5065  0.3046  0.7344
19004TIP3    H178503   2.362   3.381   6.557 -0.6261  1.0064  0.1118
19004TIP3    H278504   2.296   3.465   6.665 -0.5525  0.6025  0.4757
19005TIP3   OH278505   6.310   0.112   5.496 -0.1489 -0.1886 -0.4347
19005TIP3    H178506   6.297   0.053   5.571 -0.4208 -0.2010 -0.4923
19005TIP3    H278507   6.377   0.068   5.443 -1.0044 -0.8970 -0.9482
19006TIP3   OH278508   5.315   0.563   2.515  0.1292  0.2264 -0.7696
19006TIP3    H178509   5.258   0.625   2.471 -0.5369 -0.1863 -0.5018
19006TIP3    H278510   5.256   0.498   2.553  0.6449  0.6771  0.9054
19007TIP3   OH278511   5.640   0.310  11.510 -0.2193 -0.2592  0.6447
19007TIP3    H178512   5.688   0.315  11.427 -1.3102 -1.3861 -0.0922
19007TIP3    H278513   5.605   0.398  11.523 -1.4123 -0.4466 -0.9741
19008TIP3   OH278514   0.619   1.440  11.034  0.2490 -0.5349  0.0091
19008TIP3    H178515   0.652   1.509  11.091 -0.2483  0.2707 -0.6517
19008TIP3    H278516   0.551   1.483  10.982 -2.3885 -2.2437  1.7904
19009TIP3   OH278517   6.585   3.935  14.286  0.4249 -0.9342 -0.1943
19009TIP3    H178518   6.601   4.026  14.261 -0.8377 -1.1192 -1.9026
19009TIP3    H278519   6.512   3.939  14.348  1.7854 -0.6697  1.4589
19010TIP3   OH278520   6.517   4.189  12.825  0.3696 -0.0131 -0.5972
19010TIP3    H178521   6.423   4.183  12.810  0.0622  1.9964  0.2088
19010TIP3    H278522   6.536   4.283  12.822  1.8899 -0.1558  1.8273
19011TIP3   OH278523   1.412   5.015   4.706  0.3617  0.2884 -0.4861
19011TIP3    H178524   1.332   5.009   4.759  0.4629 -0.1372 -0.3778
19011TIP3    H278525   1.381   5.041   4.619  0.2307  1.3623 -0.1337
19012TIP3   OH278526   1.758   6.026  15.207 -0.5186 -0.0150  0.4356
19012TIP3    H178527   1.823   5.956  15.206  0.4222  0.8277  0.1370
19012TIP3    H278528   1.674   5.982  15.208  0.0524 -1.1795  2.4648
19013TIP3   OH278529   6.246   5.221   1.141 -0.2696 -0.2640  0.1496
19013TIP3    H178530   6.199   5.289   1.092  1.5642 -0.1161 -1.5433
19013TIP3    H278531   6.216   5.231   1.231 -3.3168 -0.1032 -0.7932
19014TIP3   OH278532   6.580   3.587   4.344 -0.0295 -0.0712  0.2777
19014TIP3    H178533   6.601   3.521   4.411 -1.3760  0.9480  1.7911
19014TIP3    H278534   6.638   3.660   4.364 -0.1637  0.0906  0.0729
19015TIP3   OH278535   1.740   4.746   1.899  0.1015  0.0697 -0.0736
19015TIP3    H178536   1.662   4.784   1.859 -0.4555 -0.2197  0.7043
19015TIP3    H278537   1.743   4.786   1.986  0.1374 -0.8274  0.3427
19016TIP3   OH278538   1.090   1.885   4.671 -0.1796 -0.2652 -0.5079
19016TIP3    H178539   1.133   1.813   4.623 -0.7369 -1.9808  1.4302
19016TIP3    H278540   1.152   1.908   4.740 -0.3752  0.5709 -0.5961
19017TIP3   OH278541   1.338   3.408  12.451  0.0780 -0.3720  0.6284
19017TIP3    H178542   1.411   3.468  12.469  2.3005 -1.9699 -2.1958
19017TIP3    H278543   1.379   3.322  12.442 -2.3284 -1.5367 -0.0571
19018TIP3   OH278544   4.442   2.948   2.159 -0.5378 -0.1033  0.0350
19018TIP3    H178545   4.473   3.004   2.088  0.6591  1.5450  1.7629
19018TIP3    H278546   4.454   2.859   2.126 -0.3917  0.5911 -1.9481
19019TIP3   OH278547   0.674   2.818   4.283 -0.3556  0.4181  0.6306
19019TIP3    H178548   0.756   2.862   4.303  0.1425 -1.5289  3.4917
19019TIP3    H278549   0.698   2.748   4.223 -0.3012  0.9722 -0.0104
19020TIP3   OH278550   5.144   1.295  17.157  0.2358  0.1097 -0.3877
19020TIP3    H178551   5.216   1.330  17.209  0.4428  1.4547 -1.5375
19020TIP3    H278552   5.186   1.252  17.083 -0.1025 -0.7636 -0.0865
19021TIP3   OH278553   2.442   5.775   3.558  0.9135  0.3553  0.0563
19021TIP3    H178554   2.356   5.780   3.599 -0.1359 -1.2464 -1.7476
19021TIP3    H278555   2.460   5.681   3.550  2.4739  0.6510 -0.2981
19022TIP3   OH278556   0.595   5.729   3.880 -0.3057 -0.1805  0.2904
19022TIP3    H178557   0.512   5.767   3.906 -0.8577 -1.0359 -0.1888
19022TIP3    H278558   0.612   5.660   3.945  1.4616  1.7940  2.1037
19023TIP3   OH278559   2.135   2.428  11.259  0.0365 -0.9422  0.0093
19023TIP3    H178560   2.129   2.524  11.259  2.8476 -0.5921  3.1801
19023TIP3    H278561   2.190   2.408  11.183  2.1638  0.3700  1.0890
19024TIP3   OH278562   3.528   3.155   3.587  0.7641  0.0016  0.6735
19024TIP3    H178563   3.598   3.176   3.525 -0.7917  1.5251 -0.6576
19024TIP3    H278564   3.449   3.191   3.547 -0.8147 -1.7102  2.0987
19025TIP3   OH278565   2.136   4.181   1.017  0.0401 -0.2640  0.6763
19025TIP3    H178566   2.199   4.116   1.047 -0.4086 -1.5667 -0.9988
19025TIP3    H278567   2.051   4.140   1.033 -0.4787  1.6300  3.2761
19026TIP3   OH278568   5.656   5.772  13.700  0.4475  0.1435 -0.2175
19026TIP3    H178569   5.599   5.705  13.737  0.2379  0.0810 -0.6372
19026TIP3    H278570   5.728   5.780  13.761  1.0385 -1.2314 -0.6931
19027TIP3   OH278571   3.848   1.918  15.380 -0.2812 -0.0076 -0.2057
19027TIP3    H178572   3.925   1.884  15.425 -0.2457  0.2296 -0.0888
19027TIP3    H278573   3.815   1.988  15.436 -1.0583 -0.6474  0.1475
19028TIP3   OH278574   1.177   3.641  13.977  0.0314  0.0246 -0.0543
19028TIP3    H178575   1.085   3.629  14.003  0.2937 -1.1098  0.3790
19028TIP3    H278576   1.172   3.673  13.887 -0.7893 -0.3937 -0.1685
19029TIP3   OH278577   6.163   6.762   2.259 -0.0475  0.0310  0.1068
19029TIP3    H178578   6.200   6.677   2.284  0.0916 -0.3218 -1.1985
19029TIP3    H278579   6.069   6.751   2.271 -0.1571 -0.7550 -1.1642
19030TIP3   OH278580   2.364   0.732  16.995  0.2440  0.6311  0.2518
19030TIP3    H178581   2.305   0.727  17.070 -1.3625  0.5090 -0.9649
19030TIP3    H278582   2.380   0.640  16.972 -0.8001  0.6599 -0.6726
19031TIP3   OH278583   4.522   4.185  11.646 -0.5536 -0.6014 -0.4784
19031TIP3    H178584   4.541   4.229  11.564 -2.2879 -0.4694 -0.8542
19031TIP3    H278585   4.591   4.213  11.706 -0.3451  0.8142 -1.3546
19032TIP3   OH278586   1.567   6.684   0.012 -0.5369  0.1271  0.5490
19032TIP3    H178587   1.591   6.659   0.101  0.0549  1.8190  0.8927
19032TIP3    H278588   1.636   6.744  -0.016 -1.4479  0.7074 -0.5367
19033TIP3   OH278589   4.592   6.541  17.065 -0.2093 -0.2141 -0.5412
19033TIP3    H178590   4.607   6.613  17.004 -1.0032 -0.3809 -0.9393
19033TIP3    H278591   4.553   6.583  17.142  1.8036  0.1642  0.3399
19034TIP3   OH278592   1.360   6.677   4.724 -0.4787 -0.2132 -0.5077
19034TIP3    H178593   1.310   6.611   4.676  1.1313 -0.7675 -1.4923
19034TIP3    H278594   1.307   6.696   4.802 -1.1005 -2.4762 -0.3225
19035TIP3   OH278595   2.453   3.872   0.945 -0.2828  0.4484 -0.1377
19035TIP3    H178596   2.382   3.898   0.888 -0.4455 -0.3496 -0.3193
19035TIP3    H278597   2.425   3.787   0.981 -0.7975  1.5110  2.1644
19036TIP3   OH278598   6.389   3.848  11.037  0.5668  0.1152  0.6900
19036TIP3    H178599   6.361   3.928  10.994  2.0958  0.8351  0.9791
19036TIP3    H278600   6.470   3.823  10.993  0.9071 -0.4384  1.5860
19037TIP3   OH278601   0.046   4.873   5.075 -0.0519  0.1221  0.4434
19037TIP3    H178602   0.105   4.880   5.150  0.7595  0.3305 -0.2036
19037TIP3    H278603   0.083   4.933   5.010 -0.7093 -0.1033 -0.1470
19038TIP3   OH278604   5.566   1.687  12.454  0.3693 -0.4657  0.0341
19038TIP3    H178605   5.576   1.739  12.534  0.3051  0.7376 -0.7181
19038TIP3    H278606   5.618   1.733  12.389 -1.5598  0.0129 -1.2674
19039TIP3   OH278607   1.658   0.264   2.437 -0.0959  0.0116  0.4311
19039TIP3    H178608   1.704   0.295   2.359  1.1167 -1.0041  0.7132
19039TIP3    H278609   1.602   0.194   2.405 -0.7112  0.5848  0.2440
19040TIP3   OH278610   1.507   4.336   5.578 -0.1536  0.0704 -0.6585
19040TIP3    H178611   1.572   4.270   5.556  0.7949  0.3034  1.2334
19040TIP3    H278612   1.497   4.330   5.673 -1.1598  1.6326 -0.6146
19041TIP3   OH278613   3.783   3.412   4.713  0.3377  1.0460  0.6167
19041TIP3    H178614   3.786   3.401   4.618 -0.2246 -2.2240  0.8681
19041TIP3    H278615   3.862   3.370   4.745 -1.4530 -1.7506  1.7365
19042TIP3   OH278616   1.284   0.795  16.615 -0.1662  0.5496  0.6798
19042TIP3    H178617   1.362   0.836  16.578 -1.3300  1.3167 -1.0906
19042TIP3    H278618   1.294   0.805  16.709 -0.1312  4.7249  0.4501
19043TIP3   OH278619   2.798   2.763   5.731  0.5797 -0.0032 -0.4203
19043TIP3    H178620   2.733   2.831   5.711  1.4627  0.9580 -0.1004
19043TIP3    H278621   2.746   2.684   5.742 -0.5522  0.7506 -0.0974
19044TIP3   OH278622   4.654   5.736  11.347 -0.0116 -0.4337 -0.2705
19044TIP3    H178623   4.717   5.806  11.360 -1.7542  0.9402  1.5860
19044TIP3    H278624   4.623   5.715  11.436 -0.8341 -2.3119 -0.9470
19045TIP3   OH278625   4.465   5.823   4.217  0.2115 -0.2537 -0.3079
19045TIP3    H178626   4.547   5.805   4.263 -0.4412 -2.3252  0.1680
19045TIP3    H278627   4.489   5.884   4.148  2.1193 -0.6638 -0.0661
19046TIP3   OH278628   0.360   4.907  16.672  0.1240  0.3890  0.2544
19046TIP3    H178629   0.348   4.906  16.577 -3.1059  0.2190  0.5336
19046TIP3    H278630   0.407   4.989  16.689 -1.2639  1.6245 -1.3856
19047TIP3   OH278631   3.323   4.096  11.586  0.3920  0.6837  0.5196
19047TIP3    H178632   3.301   4.167  11.526  0.3523 -0.0399 -0.3436
19047TIP3    H278633   3.417   4.107  11.604  0.7075  0.1959 -0.6848
19048TIP3   OH278634   5.772   4.849   4.761  0.3469 -0.2636 -0.6037
19048TIP3    H178635   5.836   4.917   4.741 -0.7065  0.5069 -1.5050
19048TIP3    H278636   5.771   4.844   4.856  0.6634  0.7828 -0.5312
19049TIP3   OH278637   6.278   0.115  10.721  0.0138  0.3952  0.3585
19049TIP3    H178638   6.191   0.131  10.758  0.2605  0.3065  0.9941
19049TIP3    H278639   6.266   0.124  10.627 -0.5266  1.1597  0.4857
19050TIP3   OH278640   2.234   0.388  12.137 -0.7908 -0.3490 -0.2577
19050TIP3    H178641   2.322   0.351  12.128  0.3552  2.2032 -0.5593
19050TIP3    H278642   2.212   0.377  12.230  0.3162 -0.1029  0.0482
19051TIP3   OH278643   5.145   5.546  16.672 -0.1145 -0.0616  0.2403
19051TIP3    H178644   5.114   5.460  16.644  0.3575 -0.5974  1.2991
19051TIP3    H278645   5.076   5.579  16.730 -0.8362  0.8083 -1.0466
19052TIP3   OH278646   5.627   6.352  14.993 -0.0929 -0.3699 -0.2501
19052TIP3    H178647   5.577   6.410  15.050 -0.2051 -1.3994  0.7415
19052TIP3    H278648   5.583   6.358  14.908 -0.6105  0.3336  0.0536
19053TIP3   OH278649   2.672   2.391   2.130 -0.1504 -0.0767  0.5700
19053TIP3    H178650   2.751   2.399   2.183 -2.1840  1.5673  3.6410
19053TIP3    H278651   2.619   2.326   2.176 -0.3774 -1.7683 -1.8752
19054TIP3   OH278652   5.285   2.630   0.416  0.7579 -0.3488  0.0499
19054TIP3    H178653   5.277   2.536   0.397  0.2322 -0.3540  0.2712
19054TIP3    H278654   5.321   2.667   0.336 -1.7502 -0.3219 -1.1636
19055TIP3   OH278655   1.004   1.658  14.299  0.4949 -0.6853  0.2124
19055TIP3    H178656   0.934   1.602  14.265  1.1372 -0.8527 -0.9104
19055TIP3    H278657   1.071   1.597  14.329 -0.3664 -0.5575  2.5865
19056TIP3   OH278658   6.078   4.235   5.613 -0.4112  0.2450  0.4930
19056TIP3    H178659   6.043   4.309   5.664  0.8659 -0.4654  2.5204
19056TIP3    H278660   6.076   4.266   5.522 -0.7758  2.4318  1.1745
19057TIP3   OH278661   3.240   6.464  10.867  0.0022 -0.0230 -0.0757
19057TIP3    H178662   3.315   6.508  10.907 -0.1832  0.7672 -0.5792
19057TIP3    H278663   3.277   6.415  10.794  0.4277 -1.9145  1.3194
19058TIP3   OH278664   4.493   0.158   4.628 -0.5828  0.3736  0.2723
19058TIP3    H178665   4.499   0.063   4.629 -1.2422  0.2956 -1.0543
19058TIP3    H278666   4.538   0.186   4.708  0.3353 -1.0003  0.2672
19059TIP3   OH278667   0.877   5.756  10.905 -0.6439  0.0310 -0.4673
19059TIP3    H178668   0.905   5.804  10.983  2.9008 -0.5933 -1.1975
19059TIP3    H278669   0.902   5.666  10.922  2.0903  0.1677 -2.9500
19060TIP3   OH278670   0.996   0.122   1.980  0.0894  0.3853 -0.6211
19060TIP3    H178671   0.975   0.201   1.932 -0.1555  0.5805 -0.1965
19060TIP3    H278672   1.007   0.055   1.912 -1.4615  0.3733 -0.8802
19061TIP3   OH278673   4.359   1.455   0.790 -0.0410 -0.5392  0.0335
19061TIP3    H178674   4.278   1.474   0.743  1.1309 -0.0971 -1.8935
19061TIP3    H278675   4.378   1.364   0.770  1.2820  0.0745 -1.7501
19062TIP3   OH278676   1.151   5.166   1.656 -0.0640  0.3959 -0.0836
19062TIP3    H178677   1.100   5.245   1.638 -0.4824  0.4782  1.3420
19062TIP3    H278678   1.205   5.154   1.579  0.9698  2.8320  0.1884
19063TIP3   OH278679   2.207   1.859   3.943  0.2730  0.0655  0.1096
19063TIP3    H178680   2.258   1.861   3.863  0.3210  0.0690  0.1402
19063TIP3    H278681   2.241   1.933   3.995  1.5782 -1.0808  0.9567
19064TIP3   OH278682   3.240   0.645  15.100 -0.0210  0.1351 -0.4003
19064TIP3    H178683   3.233   0.571  15.160 -0.9988  1.1084  0.7184
19064TIP3    H278684   3.299   0.614  15.031 -1.1468 -2.0196 -0.4762
19065TIP3   OH278685   3.609   5.527  12.541 -0.4905 -0.9386 -0.1368
19065TIP3    H178686   3.628   5.620  12.535 -0.9946 -0.8656 -0.6227
19065TIP3    H278687   3.609   5.509  12.635 -3.7629  0.2798  0.2449
19066TIP3   OH278688   4.569   4.249  11.381  0.1746  1.0357 -0.2870
19066TIP3    H178689   4.633   4.237  11.310 -1.0288  0.1693 -1.2840
19066TIP3    H278690   4.499   4.300  11.340 -1.3326 -0.9028 -0.2963
19067TIP3   OH278691   1.705   4.215   4.139 -0.9826 -0.6155 -0.3286
19067TIP3    H178692   1.648   4.249   4.071 -0.0756  0.0119 -0.7947
19067TIP3    H278693   1.656   4.231   4.221 -2.0635 -1.3625 -0.8082
19068TIP3   OH278694   4.611   1.501   1.905 -0.5752 -0.0564  0.5433
19068TIP3    H178695   4.622   1.427   1.845  2.8943  0.9870 -0.3071
19068TIP3    H278696   4.597   1.460   1.991  0.1447 -1.6848 -0.0746
19069TIP3   OH278697   0.376   2.287   6.702 -0.0969  0.7129  0.4681
19069TIP3    H178698   0.393   2.380   6.687  2.3139  0.0472 -1.7246
19069TIP3    H278699   0.439   2.242   6.646 -0.9721 -2.2751  1.6773
19070TIP3   OH278700   0.313   4.312  16.382  0.0968  0.9437  0.0966
19070TIP3    H178701   0.269   4.384  16.428  0.0597  0.3313  1.0476
19070TIP3    H278702   0.387   4.353  16.338 -0.1023  1.6129  0.3757
19071TIP3   OH278703   2.912   1.936   2.490  0.4044 -0.2260 -0.1639
19071TIP3    H178704   3.003   1.941   2.461  0.1313 -1.1888 -1.2142
19071TIP3    H278705   2.880   1.852   2.458 -0.4699 -0.5246  1.3753
19072TIP3   OH278706   4.359   3.498   3.356  0.1228  0.2198  0.1516
19072TIP3    H178707   4.394   3.516   3.269  2.1526  2.2021  1.2631
19072TIP3    H278708   4.427   3.448   3.400  0.3957  1.6445  1.4498
19073TIP3   OH278709   6.402   5.412   2.066  0.4550  0.2567 -0.1449
19073TIP3    H178710   6.370   5.393   2.154  1.1317  0.6591  0.1939
19073TIP3    H278711   6.361   5.345   2.011 -0.6871  0.5450  0.3184
19074TIP3   OH278712   3.806   2.870  15.356  0.3596 -0.1959 -0.4264
19074TIP3    H178713   3.729   2.914  15.392  0.6928 -0.0531  0.1277
19074TIP3    H278714   3.823   2.916  15.273  0.2600  0.2218 -0.2195
19075TIP3   OH278715   0.578   4.825   2.671 -0.1158 -0.2092 -0.2014
19075TIP3    H178716   0.556   4.889   2.604  0.9082  0.6180  0.2334
19075TIP3    H278717   0.595   4.876   2.750  0.6501 -1.0125  0.1740
19076TIP3   OH278718   6.391   0.627  16.461  0.0871  0.0653  0.6609
19076TIP3    H178719   6.467   0.579  16.494  0.5400 -0.1796 -0.6948
19076TIP3    H278720   6.399   0.714  16.499  0.4846 -0.2554  1.3287
19077TIP3   OH278721   5.542   3.968  16.756 -0.0524 -0.2611 -0.1142
19077TIP3    H178722   5.587   3.998  16.835  0.3222 -1.9601  0.3573
19077TIP3    H278723   5.544   3.873  16.762  0.4111 -0.4647 -2.4112
19078TIP3   OH278724   1.323   6.108   4.948 -0.1135 -0.1748 -0.2232
19078TIP3    H178725   1.283   6.156   4.876  0.7270  0.3949 -0.3286
19078TIP3    H278726   1.353   6.176   5.009  0.3629 -0.5900  0.0223
19079TIP3   OH278727   2.069   1.733  12.926 -0.1114  0.0561 -0.7625
19079TIP3    H178728   2.102   1.818  12.897  1.5720 -0.3486 -0.1440
19079TIP3    H278729   2.058   1.743  13.021 -0.7298 -0.1685 -0.8065
19080TIP3   OH278730   5.874   5.105  15.841  0.9396  0.6261  0.0755
19080TIP3    H178731   5.946   5.149  15.887  1.9362  0.3687 -1.1723
19080TIP3    H278732   5.834   5.174  15.788  0.2026  0.7876  0.8387
19081TIP3   OH278733   1.701   3.946   4.273  0.2071 -0.3261  0.0949
19081TIP3    H178734   1.715   3.889   4.197  0.8009  0.4630 -0.4083
19081TIP3    H278735   1.737   4.031   4.246  0.4827 -0.0463  1.2789
19082TIP3   OH278736   0.954   6.382  14.496  0.3951  0.1861 -0.5221
19082TIP3    H178737   0.972   6.439  14.571  0.4940  0.5825 -0.8435
19082TIP3    H278738   1.020   6.407  14.431  0.1245  0.0459 -0.8526
19083TIP3   OH278739   5.996   1.336   4.586  0.1959 -0.1148 -0.0529
19083TIP3    H178740   6.043   1.339   4.503 -0.0435  0.3461 -0.1741
19083TIP3    H278741   6.037   1.405   4.639  0.0105 -0.0663  0.0286
19084TIP3   OH278742   0.291   0.955  15.313  0.0625  0.0842 -0.2908
19084TIP3    H178743   0.320   0.920  15.398  0.1362  0.3867 -0.1881
19084TIP3    H278744   0.257   0.879  15.266  1.4290 -0.3651 -0.5853
19085TIP3   OH278745   2.190   0.029   5.313 -0.4143 -0.2560 -0.5045
19085TIP3    H178746   2.174   0.068   5.399  3.3067  0.7552 -0.0736
19085TIP3    H278747   2.179   0.101   5.251  1.3198  0.2648 -0.2779
19086TIP3   OH278748   6.571   0.262  11.702  0.0777 -0.0812  0.0957
19086TIP3    H178749   6.652   0.235  11.658  0.4282  1.1966 -0.0798
19086TIP3    H278750   6.591   0.348  11.739 -0.1365 -1.1900  2.9849
19087TIP3   OH278751   0.856   0.008   1.158  0.2887  0.5513  0.1363
19087TIP3    H178752   0.929   0.023   1.099  1.6862 -1.9652  1.0555
19087TIP3    H278753   0.778   0.018   1.104  1.5013 -1.4317 -2.1508
19088TIP3   OH278754   2.377   0.234  11.703 -0.0696 -0.6740 -0.1365
19088TIP3    H178755   2.455   0.205  11.749  0.6460  0.0485 -0.8666
19088TIP3    H278756   2.353   0.317  11.744 -0.3921 -0.8410  0.0158
19089TIP3   OH278757   6.229   4.587  13.590 -0.2507 -0.7921  0.2544
19089TIP3    H178758   6.293   4.521  13.614 -1.3217 -1.6193  0.9162
19089TIP3    H278759   6.205   4.566  13.500  0.2545 -0.5993  0.0730
19090TIP3   OH278760   4.980   5.781   2.158  0.0546 -0.0811  0.0398
19090TIP3    H178761   4.953   5.716   2.093 -0.9812 -1.3830  1.6858
19090TIP3    H278762   5.044   5.735   2.213  0.8729  0.9736 -0.0041
19091TIP3   OH278763   1.080   5.504   3.469  0.2661 -0.3568 -0.2822
19091TIP3    H178764   1.002   5.532   3.421 -0.0576 -2.1655 -0.8697
19091TIP3    H278765   1.056   5.420   3.508  0.7056  0.7577  2.6459
19092TIP3   OH278766   5.045   5.943   0.333  0.0362  0.1854 -0.5523
19092TIP3    H178767   4.994   6.006   0.384  0.5704  0.4334 -0.3248
19092TIP3    H278768   5.115   5.915   0.391 -0.2732 -0.7466 -0.5919
19093TIP3   OH278769   5.832   2.958   2.769 -0.4275  0.6436 -0.0353
19093TIP3    H178770   5.854   2.932   2.859 -0.7385 -0.5429 -0.2816
19093TIP3    H278771   5.914   2.952   2.722 -0.0730  2.1430  0.3417
19094TIP3   OH278772   6.468   4.559   5.535 -0.4941  0.1639 -0.1225
19094TIP3    H178773   6.453   4.605   5.452 -0.7367  1.6054  0.6933
19094TIP3    H278774   6.443   4.468   5.516 -0.7013  0.4924 -1.5819
19095TIP3   OH278775   2.103   5.103   4.257  0.5408 -0.0558 -0.0651
19095TIP3    H178776   2.123   5.049   4.180  0.9870 -0.2387  0.1755
19095TIP3    H278777   2.185   5.105   4.306  0.5530  0.9335 -0.1183
19096TIP3   OH278778   1.399   4.701  12.247 -0.1907  0.5756  0.6461
19096TIP3    H178779   1.314   4.710  12.204 -0.0204 -1.7971 -0.3307
19096TIP3    H278780   1.444   4.782  12.226 -0.9529  0.4501 -1.8424
19097TIP3   OH278781   5.336   3.758   3.297  0.6011  0.3041 -0.0905
19097TIP3    H178782   5.303   3.735   3.210  1.6261  0.4158 -0.5191
19097TIP3    H278783   5.300   3.844   3.315 -1.1028 -0.4585  0.3927
19098TIP3   OH278784   1.834   3.861  13.251 -0.1507 -0.2325 -0.1725
19098TIP3    H178785   1.783   3.808  13.312  0.6366 -0.5840  0.1905
19098TIP3    H278786   1.920   3.869  13.291 -0.7251  2.8966  0.7264
19099TIP3   OH278787   3.401   4.750   3.389  0.4883  0.2364  0.2709
19099TIP3    H178788   3.325   4.805   3.371 -0.5867 -0.6478  1.8541
19099TIP3    H278789   3.430   4.720   3.303 -0.2781  1.4593 -0.4456
19100TIP3   OH278790   6.227   3.190  13.332 -0.1343 -0.3953  0.5115
19100TIP3    H178791   6.265   3.135  13.264 -0.1752  0.9066 -0.5879
19100TIP3    H278792   6.272   3.273  13.324 -0.3430 -0.1258  1.9038
19101TIP3   OH278793   3.644   1.988  13.621 -0.0139 -0.3521  0.1734
19101TIP3    H178794   3.717   2.045  13.646 -0.3815 -0.0341  0.5298
19101TIP3    H278795   3.581   1.997  13.692 -1.5984  1.4510 -1.3613
19102TIP3   OH278796   2.579   3.509   3.108  0.1233 -0.0460  0.2701
19102TIP3    H178797   2.558   3.416   3.101 -1.3328  0.2180  0.8036
19102TIP3    H278798   2.546   3.535   3.194  1.0827  0.8324  0.3967
19103TIP3   OH278799   5.900   2.644   1.521 -0.0501 -0.0891 -0.0550
19103TIP3    H178800   5.988   2.625   1.553  0.4437  2.1649  0.0808
19103TIP3    H278801   5.860   2.696   1.590 -1.8368 -1.7627  0.2481
19104TIP3   OH278802   1.137   6.723   2.079  0.7591  0.1798  0.1849
19104TIP3    H178803   1.048   6.712   2.111  0.1344  0.8749 -1.2551
19104TIP3    H278804   1.149   6.654   2.015  1.8107 -0.8432  1.4207
19105TIP3   OH278805   4.608   5.839  16.173 -0.0254 -0.1332  0.1913
19105TIP3    H178806   4.585   5.931  16.165  0.3044  0.0509  1.3197
19105TIP3    H278807   4.658   5.832  16.254 -0.4806 -1.3861  0.4033
19106TIP3   OH278808   2.564   4.351  15.391 -0.3657 -0.1772 -0.7335
19106TIP3    H178809   2.602   4.281  15.338  0.1974  0.0517 -0.6438
19106TIP3    H278810   2.543   4.309  15.475  1.1162  0.0166 -0.2360
19107TIP3   OH278811   4.708   3.600   4.290 -0.0681 -0.0741  0.1235
19107TIP3    H178812   4.729   3.662   4.361  0.3597  0.1377 -0.1785
19107TIP3    H278813   4.769   3.527   4.304 -0.5899 -0.4469  0.4939
19108TIP3   OH278814   6.332   3.765  15.409 -0.0816 -0.0236  0.4469
19108TIP3    H178815   6.320   3.751  15.316  0.1639 -0.6859  0.5110
19108TIP3    H278816   6.427   3.773  15.420 -0.1137  0.1152  0.6280
19109TIP3   OH278817   0.262   5.644  15.947  0.1798  0.2455  1.0922
19109TIP3    H178818   0.357   5.652  15.951  0.3300 -0.7377 -0.0216
19109TIP3    H278819   0.246   5.559  15.905 -1.1899  0.3798  1.2740
19110TIP3   OH278820   3.536   3.370  16.163  0.0698 -0.0043 -0.3431
19110TIP3    H178821   3.452   3.400  16.197  1.1931  0.6085  2.1016
19110TIP3    H278822   3.537   3.399  16.072 -1.3029  2.2424  0.2934
19111TIP3   OH278823   0.668   0.506   4.624  0.0717  0.0272 -0.7165
19111TIP3    H178824   0.657   0.594   4.588 -0.6821 -0.2484 -1.1807
19111TIP3    H278825   0.755   0.508   4.666  0.0083  1.0226 -0.6026
19112TIP3   OH278826   2.170   2.588   1.174 -0.3320  0.0447  0.2638
19112TIP3    H178827   2.223   2.621   1.101 -1.3219  0.1367 -0.4283
19112TIP3    H278828   2.221   2.612   1.252  1.6690 -1.6915 -0.4160
19113TIP3   OH278829   1.011   2.983  11.485  0.6327 -0.0155 -0.0892
19113TIP3    H178830   0.945   3.013  11.548 -1.6250 -0.4433 -2.0740
19113TIP3    H278831   1.043   2.900  11.522 -1.9896 -1.2165 -0.2841
19114TIP3   OH278832   3.544   3.582   0.604 -0.1293 -0.2472  0.1227
19114TIP3    H178833   3.517   3.564   0.514  1.1032  0.4071 -0.3963
19114TIP3    H278834   3.550   3.678   0.608  3.1888 -0.3465 -0.1600
19115TIP3   OH278835   1.158   3.435   1.568  0.4180  0.2410  0.5267
19115TIP3    H178836   1.065   3.425   1.590  0.5745 -1.2593  0.5815
19115TIP3    H278837   1.172   3.375   1.495  1.4401  0.1409  0.7902
19116TIP3   OH278838   5.472   6.554   1.899 -0.0102 -0.2530 -0.2785
19116TIP3    H178839   5.492   6.491   1.969  0.6906 -1.2200 -1.3172
19116TIP3    H278840   5.490   6.506   1.818 -1.5709  0.5728 -1.1617
19117TIP3   OH278841   5.318   5.855  12.005 -0.0071  0.0972 -0.2078
19117TIP3    H178842   5.407   5.890  12.003  0.6452 -1.5340 -0.4710
19117TIP3    H278843   5.276   5.893  11.927  0.1467  1.5534  0.3722
19118TIP3   OH278844   6.057   0.808   1.156  0.6142  0.1301  0.4925
19118TIP3    H178845   6.131   0.866   1.142  0.0533  0.7649  0.0818
19118TIP3    H278846   6.085   0.723   1.121  0.9108  0.5354 -0.2745
19119TIP3   OH278847   6.099   0.209   5.253 -0.6174  0.4865 -0.2683
19119TIP3    H178848   6.121   0.156   5.329 -0.7350 -0.3911 -0.8266
19119TIP3    H278849   6.161   0.181   5.186 -1.3342  0.3105 -0.8770
19120TIP3   OH278850   6.192   1.927   5.067  0.1994 -0.0066 -0.1249
19120TIP3    H178851   6.270   1.873   5.062 -1.0107 -1.7766 -1.6340
19120TIP3    H278852   6.136   1.893   4.996 -1.4687  1.9063  0.1976
19121TIP3   OH278853   2.878   0.309   2.239 -0.4754  0.3137  0.1488
19121TIP3    H178854   2.913   0.396   2.222 -1.8943  1.1038  1.1006
19121TIP3    H278855   2.865   0.271   2.152  0.6910  0.7960 -0.2625
19122TIP3   OH278856   6.818   3.283  16.536  0.1759 -0.2125  0.5037
19122TIP3    H178857   6.885   3.238  16.485  0.3835 -0.2248  0.7876
19122TIP3    H278858   6.866   3.344  16.591 -0.1916  1.6790 -1.1455
19123TIP3   OH278859   1.765   6.626  17.115  0.1584  0.2316 -0.0923
19123TIP3    H178860   1.815   6.673  17.182  1.1301 -0.0784 -0.5879
19123TIP3    H278861   1.818   6.549  17.095 -0.3260  0.1062 -0.9228
19124TIP3   OH278862   0.621   6.259   3.990  0.0587  0.6721 -0.0508
19124TIP3    H178863   0.596   6.328   4.052 -2.5444  0.1697 -0.4342
19124TIP3    H278864   0.574   6.182   4.020 -1.0202  0.3418 -2.4571
19125TIP3   OH278865   6.795   0.523  12.200 -0.4416  0.3550 -0.2085
19125TIP3    H178866   6.720   0.467  12.221  0.7758 -1.7631 -1.2389
19125TIP3    H278867   6.868   0.484  12.249  0.3401  1.3968 -0.5115
19126TIP3   OH278868   5.718   4.424  14.537  0.5453 -0.2618  0.1590
19126TIP3    H178869   5.633   4.388  14.512 -0.6827  0.9583  2.2914
19126TIP3    H278870   5.770   4.420  14.457 -1.7177 -0.4897 -1.3912
19127TIP3   OH278871   4.883   6.377   6.485  0.5044 -0.3174 -0.2985
19127TIP3    H178872   4.875   6.449   6.423 -1.6138 -0.2426 -0.0158
19127TIP3    H278873   4.861   6.299   6.434  0.4196 -0.4551 -0.0567
19128TIP3   OH278874   3.879   1.678  11.612  0.3042  0.0478  0.0870
19128TIP3    H178875   3.885   1.679  11.516 -0.5033  2.6998 -0.0156
19128TIP3    H278876   3.787   1.697  11.630  0.6987  0.7963  1.3740
19129TIP3   OH278877   4.773   0.440  11.166 -0.0216  0.2990 -0.7188
19129TIP3    H178878   4.757   0.363  11.220  1.0734  0.4441 -0.1398
19129TIP3    H278879   4.783   0.406  11.077  0.8638 -0.2996 -0.4090
19130TIP3   OH278880   5.830   1.145   1.898 -0.1525 -0.0237 -0.1060
19130TIP3    H178881   5.917   1.165   1.934  0.2761 -0.1779 -1.0063
19130TIP3    H278882   5.784   1.102   1.969  1.2358 -1.8208 -0.2125
19131TIP3   OH278883   3.947   0.464   3.907 -0.2723  0.0554  0.2571
19131TIP3    H178884   3.995   0.524   3.964 -0.2963  0.4100 -0.0900
19131TIP3    H278885   3.857   0.498   3.907 -0.3689 -0.1957  0.3468
19132TIP3   OH278886   5.053   0.194  14.155  0.1645 -0.1838  0.0566
19132TIP3    H178887   5.001   0.262  14.113  0.3075 -0.4621 -0.5829
19132TIP3    H278888   5.130   0.185  14.098 -0.3902 -1.6673 -0.5035
19133TIP3   OH278889   1.749   4.742  15.376  0.4088  0.1946 -0.5398
19133TIP3    H178890   1.659   4.767  15.357 -0.0363  0.5242  1.6408
19133TIP3    H278891   1.746   4.714  15.468  2.5336  0.2127 -0.4318
19134TIP3   OH278892   6.242   5.507  16.368 -0.2527  0.2634  0.3400
19134TIP3    H178893   6.322   5.456  16.365 -1.6577 -2.1935  1.3218
19134TIP3    H278894   6.266   5.587  16.415  1.4414 -0.7762  1.3530
19135TIP3   OH278895   1.404   5.596   2.432 -0.1552 -0.0831  0.5233
19135TIP3    H178896   1.458   5.635   2.501 -1.6906  0.0779  1.7096
19135TIP3    H278897   1.454   5.521   2.401  2.2039  1.8766 -0.7622
19136TIP3   OH278898   3.375   4.343   4.706  0.4552  0.1250 -0.1421
19136TIP3    H178899   3.363   4.437   4.695  0.9513  0.2652  0.5049
19136TIP3    H278900   3.292   4.305   4.676 -1.0277  0.9773  2.5755
19137TIP3   OH278901   6.476   3.723   1.325  0.2175  0.7610  0.0983
19137TIP3    H178902   6.520   3.778   1.259  0.4748 -0.3241 -0.6631
19137TIP3    H278903   6.536   3.722   1.399  0.6921  0.6788 -0.2800
19138TIP3   OH278904   2.277   6.409   4.153  0.5100  0.3911  0.3425
19138TIP3    H178905   2.231   6.453   4.225  0.3278 -0.0760  0.5205
19138TIP3    H278906   2.369   6.430   4.167  0.4211  0.7347  0.4099
19139TIP3   OH278907   3.017   3.793   5.155 -0.1180  0.4338  0.2786
19139TIP3    H178908   3.032   3.702   5.130  1.5016  0.7559 -0.0156
19139TIP3    H278909   2.930   3.813   5.120  0.1069 -0.5759 -0.9247
19140TIP3   OH278910   1.981   1.457  12.965 -0.6739  0.4457 -0.6946
19140TIP3    H178911   2.056   1.422  13.013 -1.6537  0.4941  0.9702
19140TIP3    H278912   2.014   1.537  12.925  0.0696  0.7147  0.3848
19141TIP3   OH278913   2.321   6.233  15.287 -0.1640 -0.8322  0.2682
19141TIP3    H178914   2.324   6.156  15.344 -0.9882 -1.8523 -1.0278
19141TIP3    H278915   2.240   6.278  15.311 -0.2261 -0.9562  0.2928
19142TIP3   OH278916   1.203   6.689   1.542 -0.0054 -0.2010 -0.4152
19142TIP3    H178917   1.262   6.642   1.482 -1.0440  1.1369 -2.6202
19142TIP3    H278918   1.188   6.628   1.614  2.4386 -1.3481 -0.7656
19143TIP3   OH278919   6.406   3.622   2.979 -1.4029  0.2751 -0.0056
19143TIP3    H178920   6.450   3.564   3.041 -1.2171  1.1197  0.6657
19143TIP3    H278921   6.386   3.701   3.029 -0.4652  1.3343 -1.2244
19144TIP3   OH278922   3.363   5.767  16.442 -0.6926 -0.1829 -0.1321
19144TIP3    H178923   3.358   5.750  16.348 -0.3300  0.7913 -0.3340
19144TIP3    H278924   3.412   5.849  16.449 -1.4721  0.2134  0.8644
19145TIP3   OH278925   0.113   6.328  11.073  0.0572 -0.2447 -0.3054
19145TIP3    H178926   0.052   6.277  11.126 -1.0763 -0.4832 -1.7541
19145TIP3    H278927   0.148   6.264  11.010  1.0589  0.1089 -0.1137
19146TIP3   OH278928   5.295   4.094  16.548  0.1157  0.5059 -0.8373
19146TIP3    H178929   5.259   4.030  16.487 -1.5637 -0.3364  0.9135
19146TIP3    H278930   5.318   4.043  16.626 -0.2197  1.8551  0.1931
19147TIP3   OH278931   3.693   1.947   5.486  0.7039  0.5273  0.1323
19147TIP3    H178932   3.772   2.001   5.484  1.2003 -0.0071  2.5306
19147TIP3    H278933   3.718   1.868   5.533 -1.1302  0.1244  0.5260
19148TIP3   OH278934   4.355   3.402  12.055  0.0416 -0.3755  0.4205
19148TIP3    H178935   4.359   3.307  12.053  0.5267 -0.3547 -0.8689
19148TIP3    H278936   4.318   3.426  11.970  1.1900  0.6133  0.1643
19149TIP3   OH278937   2.679   4.073   1.933  0.7311  0.3575  0.0525
19149TIP3    H178938   2.718   4.158   1.956  0.6170  0.4220  0.0120
19149TIP3    H278939   2.719   4.051   1.849  0.5606  0.5009 -0.0668
19150TIP3   OH278940   1.951   5.922  13.634 -0.2403  0.1158  0.4933
19150TIP3    H178941   1.870   5.876  13.655  0.4793 -0.5922  1.7863
19150TIP3    H278942   1.969   5.975  13.712 -0.6072  1.9988 -0.6312
19151TIP3   OH278943   2.618   3.696   4.588 -0.0630 -0.1346  0.3218
19151TIP3    H178944   2.547   3.745   4.546  0.5697  0.6274  0.1236
19151TIP3    H278945   2.651   3.638   4.519  0.5265  0.6305 -0.0601
19152TIP3   OH278946   5.150   6.121   1.124 -0.2377  0.7230  0.6044
19152TIP3    H178947   5.186   6.197   1.170  0.4397  0.0936  1.1424
19152TIP3    H278948   5.220   6.055   1.130 -0.7696  0.1024  0.0446
19153TIP3   OH278949   1.282   5.926   1.584 -0.6368  0.3423 -0.1636
19153TIP3    H178950   1.260   5.839   1.619 -1.9735  0.3318 -0.9466
19153TIP3    H278951   1.374   5.920   1.560 -0.2687 -0.3362  1.2967
19154TIP3   OH278952   2.946   0.927  17.174 -0.0284 -0.5356 -0.4976
19154TIP3    H178953   2.941   0.860  17.242  0.8438  0.5120  0.6371
19154TIP3    H278954   3.034   0.964  17.182 -0.3835  0.5409 -1.2885
19155TIP3   OH278955   4.328   3.868   4.248 -0.3836  0.3425  0.3025
19155TIP3    H178956   4.330   3.943   4.306 -1.0586  0.1188  0.6133
19155TIP3    H278957   4.277   3.897   4.172 -1.0346  0.0555  0.6258
19156TIP3   OH278958   0.386   0.515   3.118 -0.5219  0.5269 -0.1663
19156TIP3    H178959   0.376   0.539   3.026  1.0198  0.1070 -0.4744
19156TIP3    H278960   0.394   0.420   3.117 -0.5307  0.5173  0.4158
19157TIP3   OH278961   1.420   3.514   3.784 -0.0459  0.4038 -0.1419
19157TIP3    H178962   1.450   3.423   3.790  0.0334  0.3849 -0.7322
19157TIP3    H278963   1.327   3.509   3.803  0.1402  0.3316  0.7709
19158TIP3   OH278964   4.420   3.857   1.958  0.3040 -1.0149 -0.7229
19158TIP3    H178965   4.415   3.935   1.903  0.5378 -0.2369  0.3196
19158TIP3    H278966   4.342   3.807   1.936 -1.1261  0.6657  0.2415
19159TIP3   OH278967   1.549   2.056  15.998 -0.3275 -0.2779  0.1447
19159TIP3    H178968   1.472   2.001  15.991 -0.2885 -0.6898  2.2623
19159TIP3    H278969   1.523   2.126  16.058  1.0599 -0.7508  1.3762
19160TIP3   OH278970   0.629   3.032   0.261  0.1859 -0.1654  0.1440
19160TIP3    H178971   0.555   2.975   0.242 -1.7926  2.8210 -2.1040
19160TIP3    H278972   0.693   3.012   0.193  0.9223 -1.8039  1.2690
19161TIP3   OH278973   5.116   0.570   1.425 -0.2309  0.1349  0.1284
19161TIP3    H178974   5.027   0.561   1.393 -0.8315  0.5410  1.6153
19161TIP3    H278975   5.118   0.656   1.468  1.0798  0.4492 -0.4789
19162TIP3   OH278976   4.275   5.809   4.001 -0.1072 -0.5974 -0.0949
19162TIP3    H178977   4.328   5.809   4.081  1.1182 -4.0513 -0.7022
19162TIP3    H278978   4.321   5.748   3.943 -0.3634  2.5127 -3.9314
19163TIP3   OH278979   3.704   0.408  15.183  0.2605  0.5987  0.0908
19163TIP3    H178980   3.645   0.333  15.184 -1.5386  1.9416  0.3854
19163TIP3    H278981   3.772   0.385  15.120 -1.1097 -0.6257 -1.0035
19164TIP3   OH278982   4.791   0.919   5.272  0.1529 -0.2102 -0.0130
19164TIP3    H178983   4.729   0.848   5.258  0.2967 -0.3211 -0.1005
19164TIP3    H278984   4.772   0.952   5.360 -0.7329  0.4651 -0.4402
19165TIP3   OH278985   2.949   2.270  15.748 -0.3317  0.1655 -0.7092
19165TIP3    H178986   2.862   2.298  15.778 -1.1339 -0.1576 -2.5964
19165TIP3    H278987   2.933   2.231  15.663  1.7365  0.3891 -1.2421
19166TIP3   OH278988   3.811   1.829  15.123  0.1773 -0.2762  0.4546
19166TIP3    H178989   3.857   1.745  15.115 -1.6554 -1.3753  0.8594
19166TIP3    H278990   3.847   1.870  15.201  0.6404 -0.9973  0.6181
19167TIP3   OH278991   2.752   5.234   2.037  0.1804  0.3976 -0.1920
19167TIP3    H178992   2.690   5.240   1.965 -1.5845 -0.1983  1.1944
19167TIP3    H278993   2.831   5.197   1.998 -0.4997  0.6897 -1.9291
19168TIP3   OH278994   2.783   4.267  10.598  0.3993 -0.5275 -0.1421
19168TIP3    H178995   2.815   4.217  10.523  0.7821  0.5567 -0.7163
19168TIP3    H278996   2.693   4.236  10.611  0.4287 -0.9353 -0.8608
19169TIP3   OH278997   3.190   0.290   1.381 -0.3880 -0.3074  0.4119
19169TIP3    H178998   3.240   0.275   1.462 -0.4503 -0.5494  0.4057
19169TIP3    H278999   3.133   0.213   1.373  2.3622 -2.2807 -1.9502
19170TIP3   OH279000   0.870   5.323  15.193  0.0321 -0.0365 -0.1054
19170TIP3    H179001   0.896   5.248  15.140  1.4934  0.0946  0.3884
19170TIP3    H279002   0.869   5.397  15.132  0.1623 -0.1672 -0.2649
19171TIP3   OH279003   3.242   0.460   0.436 -0.4010  0.0214 -0.1823
19171TIP3    H179004   3.301   0.419   0.373  1.1452  3.3735 -1.1433
19171TIP3    H279005   3.170   0.495   0.383 -1.3936 -0.8397  0.5390
19172TIP3   OH279006   5.708   2.187  16.729  0.1402 -0.4680  0.8251
19172TIP3    H179007   5.695   2.100  16.767  2.3567 -1.8699 -1.3027
19172TIP3    H279008   5.779   2.225  16.779 -0.1500 -0.2973  1.1105
19173TIP3   OH279009   5.414   1.532  13.718 -0.0974 -0.3532 -0.8039
19173TIP3    H179010   5.467   1.462  13.756  1.9634 -0.1859 -3.1549
19173TIP3    H279011   5.324   1.499  13.723  0.5742 -2.1656  0.1739
19174TIP3   OH279012   1.882   4.797   3.967 -0.0386  0.2194 -0.7268
19174TIP3    H179013   1.910   4.844   4.046 -0.3473  0.4998 -0.7782
19174TIP3    H279014   1.916   4.849   3.894  1.3315 -0.7123 -0.7910
19175TIP3   OH279015   3.409   5.305  13.979 -0.2366  0.1432 -0.3288
19175TIP3    H179016   3.488   5.251  13.970  0.0994  0.8001 -1.5466
19175TIP3    H279017   3.442   5.394  13.992 -0.7852  0.3401 -0.2610
19176TIP3   OH279018   4.326   6.042  12.413  0.2551 -0.4412 -0.4208
19176TIP3    H179019   4.387   5.993  12.357  0.2373 -0.0792 -0.7602
19176TIP3    H279020   4.382   6.095  12.469  0.3040 -1.3871  0.4716
19177TIP3   OH279021   3.400   6.184   1.284 -0.4160  0.2480 -0.1901
19177TIP3    H179022   3.444   6.102   1.307 -2.4924 -0.4475  1.7202
19177TIP3    H279023   3.433   6.248   1.347 -0.1704  0.4161 -0.4870
19178TIP3   OH279024   3.659   2.990  11.073 -0.0846  0.2147 -0.3107
19178TIP3    H179025   3.690   3.074  11.040  0.7675 -0.8837 -2.4778
19178TIP3    H279026   3.729   2.928  11.051 -0.8236 -1.1301  0.9420
19179TIP3   OH279027   2.448   2.112   3.446 -0.0071 -0.0483  0.2456
19179TIP3    H179028   2.531   2.116   3.494  0.0135  0.2289  0.1880
19179TIP3    H279029   2.384   2.082   3.511  0.1860 -0.5185  0.2253
19180TIP3   OH279030   6.186   3.215  12.972 -0.9744 -0.1350 -0.3364
19180TIP3    H179031   6.142   3.131  12.964  0.6505 -0.9669 -1.1874
19180TIP3    H279032   6.274   3.199  12.938 -0.2083  1.5890  0.6780
19181TIP3   OH279033   2.387   6.295  13.293 -0.2482  0.2334 -0.1886
19181TIP3    H179034   2.480   6.312  13.308 -0.2610  1.3033 -1.2023
19181TIP3    H279035   2.373   6.316  13.201 -1.4424 -0.1912 -0.1222
19182TIP3   OH279036   3.495   1.066   3.208 -0.1198 -0.2281  0.0927
19182TIP3    H179037   3.493   0.972   3.222 -1.5228 -0.1436  0.6438
19182TIP3    H279038   3.549   1.100   3.280 -0.9565 -0.4770  0.8512
19183TIP3   OH279039   5.784   3.021  12.860  0.4392  0.5025 -0.3536
19183TIP3    H179040   5.716   3.077  12.823 -0.7946  0.0576  1.1216
19183TIP3    H279041   5.759   3.009  12.951  0.2262 -2.9777 -0.7071
19184TIP3   OH279042   6.747   2.266   4.109 -0.6900  0.6171 -0.2833
19184TIP3    H179043   6.811   2.334   4.088 -1.6344  1.8687  0.6487
19184TIP3    H279044   6.692   2.260   4.031 -1.2914  1.7908  0.0221
19185TIP3   OH279045   4.412   5.382  12.243  0.1130  0.4775  0.1628
19185TIP3    H179046   4.369   5.373  12.328 -1.8774 -0.6565 -0.8922
19185TIP3    H279047   4.466   5.461  12.251 -0.3925  0.6646  2.2955
19186TIP3   OH279048   4.085   1.052  12.267  0.6981 -0.0136 -0.1712
19186TIP3    H179049   4.171   1.020  12.240  1.2076  2.0464 -1.1897
19186TIP3    H279050   4.103   1.139  12.304 -0.9273  0.4096 -0.3174
19187TIP3   OH279051   6.180   5.847   0.815  0.4250 -0.5620 -0.3211
19187TIP3    H179052   6.153   5.939   0.816  0.2755 -0.5954  1.4275
19187TIP3    H279053   6.244   5.842   0.744 -0.0614  0.7297 -0.8898
19188TIP3   OH279054   5.113   0.387   2.587  0.2745  0.0224 -0.0935
19188TIP3    H179055   5.136   0.300   2.621 -0.5721 -0.3167 -0.3702
19188TIP3    H279056   5.017   0.388   2.585  0.2838  0.7378 -0.6646
19189TIP3   OH279057   3.121   1.769  16.132  0.4057 -1.0666  1.0310
19189TIP3    H179058   3.096   1.861  16.143 -1.4544 -1.2671 -0.9239
19189TIP3    H279059   3.200   1.772  16.077  0.1293 -0.6462  0.6520
19190TIP3   OH279060   5.751   0.158   2.230 -0.8176  0.1015  0.0247
19190TIP3    H179061   5.689   0.202   2.171  0.0469  0.6836 -0.4694
19190TIP3    H279062   5.815   0.226   2.253 -0.6013 -0.3754  0.8810
19191TIP3   OH279063   3.657   5.060  16.047 -0.3320  0.0466  0.3530
19191TIP3    H179064   3.715   5.006  16.102 -2.8402 -2.4011  0.8468
19191TIP3    H279065   3.607   4.996  15.996 -3.5095  1.9175  0.9165
19192TIP3   OH279066   3.265   3.607   4.296  0.6093 -0.0417  0.0118
19192TIP3    H179067   3.247   3.558   4.215 -0.7943 -0.7141  0.7023
19192TIP3    H279068   3.315   3.683   4.267 -0.0921 -0.1302 -1.5343
19193TIP3   OH279069   2.344   3.872  12.561  0.1212  0.3292  0.0020
19193TIP3    H179070   2.391   3.939  12.513 -0.7842 -0.2376 -1.7580
19193TIP3    H279071   2.402   3.849  12.634  2.7794 -0.6162 -2.2558
19194TIP3   OH279072   6.690   0.932  15.416 -0.0458 -0.3150 -0.0328
19194TIP3    H179073   6.755   0.866  15.390 -2.4686 -2.4875 -0.9806
19194TIP3    H279074   6.690   0.929  15.512 -0.0632 -1.6629 -0.0607
19195TIP3   OH279075   6.256   3.300  14.832 -0.0660 -0.2695  0.2513
19195TIP3    H179076   6.332   3.261  14.788 -0.3946 -1.4255  0.6929
19195TIP3    H279077   6.198   3.326  14.760  0.4269 -0.0132 -0.0625
19196TIP3   OH279078   5.413   1.823   0.707  0.7738  0.0101  0.2720
19196TIP3    H179079   5.480   1.759   0.682  0.6937 -0.0062  0.0951
19196TIP3    H279080   5.405   1.813   0.802 -0.4809 -1.4744  0.0570
19197TIP3   OH279081   1.115   4.770  13.614 -0.0454  0.4387 -0.0595
19197TIP3    H179082   1.076   4.741  13.697  1.2775  0.3173  0.5656
19197TIP3    H279083   1.087   4.705  13.550  1.6328 -1.4619  1.0099
19198TIP3   OH279084   5.721   0.003  10.352 -0.2442 -0.3974  0.1617
19198TIP3    H179085   5.638  -0.041  10.370  0.1070 -0.9197  0.5413
19198TIP3    H279086   5.717   0.085  10.402 -0.3734 -0.6005  0.4848
19199TIP3   OH279087   0.824   1.764  11.010  0.3925 -0.2498  0.3026
19199TIP3    H179088   0.836   1.859  11.017  1.2535 -0.2224 -1.1333
19199TIP3    H279089   0.734   1.754  10.978  1.3619  0.3135 -2.9320
19200TIP3   OH279090   3.536   5.814   0.417  0.3931 -0.5522 -0.4011
19200TIP3    H179091   3.562   5.899   0.380 -0.2846 -0.3639 -0.4508
19200TIP3    H279092   3.501   5.765   0.343  1.3741 -1.1274 -0.5015
19201TIP3   OH279093   4.920   6.127   3.400  0.4610 -0.0250 -0.1459
19201TIP3    H179094   4.958   6.047   3.366  1.7566  1.4601 -2.4420
19201TIP3    H279095   4.839   6.138   3.351 -0.2531 -0.4239  0.9100
19202TIP3   OH279096   6.707   3.811   4.427  0.5234 -0.4092 -0.0191
19202TIP3    H179097   6.751   3.887   4.388  0.3463 -0.2374  0.1172
19202TIP3    H279098   6.775   3.768   4.478  0.1059  0.8867  1.7176
19203TIP3   OH279099   4.706   4.022  15.811 -0.0230  0.5287  0.3936
19203TIP3    H179100   4.648   4.063  15.876 -0.5554 -0.3498  0.4883
19203TIP3    H279101   4.669   3.935  15.798  0.9355  0.1695  0.0002
19204TIP3   OH279102   3.765   2.046   0.691 -0.4203  0.1263  0.2849
19204TIP3    H179103   3.782   1.958   0.724 -0.6372  0.1874  0.5623
19204TIP3    H279104   3.844   2.096   0.714 -0.9505  0.4130  1.5860
19205TIP3   OH279105   5.117   5.029  11.839 -0.3676 -0.6931  0.0528
19205TIP3    H179106   5.064   5.087  11.785 -0.5767  0.8708  1.8300
19205TIP3    H279107   5.203   5.072  11.842  0.7454 -2.5684 -1.7913
19206TIP3   OH279108   0.358   3.356  11.935 -0.1492  0.3521  0.1525
19206TIP3    H179109   0.447   3.386  11.913 -0.9196  0.8322 -2.6476
19206TIP3    H279110   0.300   3.421  11.896 -1.7969 -0.1535  1.6061
19207TIP3   OH279111   3.603   2.462   3.099 -0.0520  0.2150 -0.1272
19207TIP3    H179112   3.649   2.545   3.111  1.7741 -0.6419 -0.8851
19207TIP3    H279113   3.627   2.433   3.011 -1.6162 -0.5554 -0.3400
19208TIP3   OH279114   2.615   3.791   5.282 -0.3746  0.1718 -0.3318
19208TIP3    H179115   2.678   3.742   5.334 -0.8346 -0.4482 -0.3551
19208TIP3    H279116   2.669   3.835   5.216  0.4957  2.5510  1.7669
19209TIP3   OH279117   0.914   2.141   0.639 -0.1308  0.2151  0.0832
19209TIP3    H179118   0.955   2.092   0.710  1.7175  2.1258  0.4299
19209TIP3    H279119   0.973   2.130   0.565  2.3429  4.4505  1.0688
19210TIP3   OH279120   4.193   2.884  12.074 -0.5462 -0.1199  0.2861
19210TIP3    H179121   4.175   2.854  12.163  1.7773 -0.3944  0.7340
19210TIP3    H279122   4.199   2.803  12.023  1.1217 -0.2032  0.5488
19211TIP3   OH279123   3.290   3.333   0.090  0.8518 -0.0369 -0.0968
19211TIP3    H179124   3.217   3.374   0.044  0.6150 -0.8614 -0.4888
19211TIP3    H279125   3.289   3.373   0.177  0.7204  0.8626 -0.4999
19212TIP3   OH279126   2.982   4.196  13.158  0.1971  0.0298 -0.0021
19212TIP3    H179127   2.953   4.230  13.243 -0.3576 -0.3684 -0.0265
19212TIP3    H279128   2.943   4.257  13.094 -0.5453 -0.4600 -0.0308
19213TIP3   OH279129   5.371   2.821  17.049  0.0505 -0.1499 -0.2457
19213TIP3    H179130   5.408   2.760  17.112 -0.4678  0.0219  0.2288
19213TIP3    H279131   5.447   2.863  17.009  0.3780  0.1413  0.6596
19214TIP3   OH279132   3.220   4.295   5.187  0.7056 -0.5261  0.0779
19214TIP3    H179133   3.152   4.353   5.153  1.9461  0.2718 -1.1219
19214TIP3    H279134   3.212   4.216   5.133 -0.7508 -1.3908  1.4782
19215TIP3   OH279135   5.995   3.857  12.254  1.3185 -0.2781 -0.2628
19215TIP3    H179136   6.053   3.910  12.308  2.1778 -1.1737 -0.2770
19215TIP3    H279137   5.967   3.786  12.311 -1.8460  1.4204  0.5830
19216TIP3   OH279138   6.556   2.781   5.945 -0.0204 -0.3512  0.0680
19216TIP3    H179139   6.588   2.764   5.856  1.2702  2.3920 -0.0673
19216TIP3    H279140   6.634   2.793   5.998 -0.7907 -0.9503  1.4106
19217TIP3   OH279141   2.632   4.097  13.849  0.3103  0.2531  0.0479
19217TIP3    H179142   2.684   4.043  13.909 -1.4244 -0.4001  1.0531
19217TIP3    H279143   2.647   4.187  13.878  1.6209  0.1630 -0.3151
19218TIP3   OH279144   1.382   2.818  12.937  0.2365  0.0252  0.3150
19218TIP3    H179145   1.471   2.850  12.947 -0.1772  0.9311  1.2475
19218TIP3    H279146   1.347   2.869  12.864  0.5442 -0.4897 -0.1985
19219TIP3   OH279147   4.574   0.116   0.696  0.4572  0.8057 -0.1237
19219TIP3    H179148   4.540   0.186   0.752  0.0095  0.1011  0.5015
19219TIP3    H279149   4.504   0.100   0.633 -0.1032 -0.1477  0.7140
19220TIP3   OH279150   2.941   1.118  11.239  0.0993  0.4894  0.2845
19220TIP3    H179151   3.020   1.076  11.205 -1.8987 -1.5940 -2.2362
19220TIP3    H279152   2.940   1.204  11.196  0.7208  0.3155 -0.0993
19221TIP3   OH279153   4.901   2.881  14.279  0.1396  0.7076 -0.5095
19221TIP3    H179154   4.864   2.817  14.340 -0.4744 -0.2714 -1.8615
19221TIP3    H279155   4.853   2.962  14.298  1.0158  0.8509  1.3005
19222TIP3   OH279156   6.032   4.391   0.923 -0.2086  0.1761  0.0945
19222TIP3    H179157   6.064   4.437   1.000 -0.5382  0.0618  0.3048
19222TIP3    H279158   6.101   4.329   0.901 -0.5413 -0.5097  0.9260
19223TIP3   OH279159   6.151   1.459  14.776 -0.0914 -0.3752  0.4104
19223TIP3    H179160   6.225   1.399  14.788  0.3064  0.0609  0.1997
19223TIP3    H279161   6.096   1.418  14.710 -1.0685 -1.6571  1.9290
19224TIP3   OH279162   3.530   6.788   2.851  0.3304 -0.1885  0.8752
19224TIP3    H179163   3.440   6.792   2.820  1.3117  2.2001 -2.2040
19224TIP3    H279164   3.549   6.695   2.860 -2.0175 -0.7867  0.2139
19225TIP3   OH279165   4.328   0.834   3.119 -0.0211 -0.2388 -0.7713
19225TIP3    H179166   4.237   0.834   3.090 -0.0577  0.0771 -0.6650
19225TIP3    H279167   4.327   0.886   3.200  0.0404 -1.2856 -0.0786
19226TIP3   OH279168   6.413   4.746  10.409  0.4929 -0.0741  0.1466
19226TIP3    H179169   6.359   4.674  10.377 -0.7153  0.4345  0.9803
19226TIP3    H279170   6.367   4.825  10.380  2.5076  0.4504 -1.9719
19227TIP3   OH279171   5.458   3.853   1.104  0.0197  0.0991 -0.2070
19227TIP3    H179172   5.515   3.803   1.046 -0.5242  0.2452 -0.8797
19227TIP3    H279173   5.384   3.880   1.049 -0.1564  0.8513  0.3662
19228TIP3   OH279174   0.538   0.128  15.307 -0.0673  0.1341  0.6238
19228TIP3    H179175   0.568   0.056  15.362 -0.8549  0.9701  2.2271
19228TIP3    H279176   0.554   0.099  15.218 -1.8112 -2.7346  1.1090
19229TIP3   OH279177   4.627   3.104  11.086 -0.0306  0.0822 -0.1781
19229TIP3    H179178   4.571   3.101  11.009  0.3780 -2.8576 -0.4743
19229TIP3    H279179   4.677   3.186  11.076 -1.4439  0.8048 -1.9204
19230TIP3   OH279180   1.294   3.180   2.601 -0.5703  1.0977  0.0510
19230TIP3    H179181   1.313   3.216   2.515  2.4211  2.0941  0.9775
19230TIP3    H279182   1.331   3.092   2.599 -4.9185 -0.9474 -1.1329
19231TIP3   OH279183   1.875   4.459  15.275  0.7347 -0.0819  0.3072
19231TIP3    H179184   1.880   4.525  15.345  1.9655 -1.4145  1.5579
19231TIP3    H279185   1.782   4.448  15.258  0.4400  0.6965  1.3376
19232TIP3   OH279186   5.679   0.514   5.663  0.2723  0.2131  0.8942
19232TIP3    H179187   5.682   0.490   5.571  0.4683  0.3998  0.8516
19232TIP3    H279188   5.658   0.607   5.663 -1.1038 -0.0797  1.0716
19233TIP3   OH279189   1.125   2.954   3.928  0.0358  1.2680 -0.1134
19233TIP3    H179190   1.047   3.009   3.918 -1.1209 -0.2368  0.3389
19233TIP3    H279191   1.154   2.972   4.018  0.1261  1.7086 -0.2265
19234TIP3   OH279192   0.129   2.421   5.486 -0.6324 -0.2431 -0.2145
19234TIP3    H179193   0.093   2.367   5.556  0.3783  1.5665  1.7987
19234TIP3    H279194   0.163   2.499   5.530 -1.2236  1.6611 -2.8670
19235TIP3   OH279195   5.627   3.954  15.030  0.3801  0.1977 -0.5856
19235TIP3    H179196   5.669   3.966  15.115 -2.2420 -2.2428  1.2602
19235TIP3    H279197   5.615   4.043  14.997  3.5210  1.1214  0.4332
19236TIP3   OH279198   3.176   5.915  11.550  0.4837  0.0351 -0.0849
19236TIP3    H179199   3.224   5.985  11.593 -0.6313  0.9514 -0.2771
19236TIP3    H279200   3.157   5.949  11.462  1.3729 -1.1834 -0.7812
19237TIP3   OH279201   0.074   5.903  13.666  0.5125  0.0135  0.4708
19237TIP3    H179202   0.154   5.885  13.617  0.2079 -0.7749  0.2534
19237TIP3    H279203   0.099   5.972  13.728  0.2922  3.1465 -2.5721
19238TIP3   OH279204   6.513   4.835  12.046  0.2881  0.3910  0.0345
19238TIP3    H179205   6.531   4.908  12.106 -1.1864  0.4028  0.5175
19238TIP3    H279206   6.571   4.764  12.076 -0.1410  0.5276  1.2415
19239TIP3   OH279207   3.945   3.702  15.464  0.1124  0.1876  0.1729
19239TIP3    H179208   3.988   3.618  15.451  1.0556  0.5831  0.6507
19239TIP3    H279209   3.862   3.694  15.416  0.7316 -0.5735 -0.8159
19240TIP3   OH279210   5.868   1.004   0.547 -0.2579 -0.3656  0.3986
19240TIP3    H179211   5.786   0.968   0.514 -0.0210 -0.9391  0.4264
19240TIP3    H279212   5.853   1.098   0.550 -0.1887 -0.2234 -1.6923
19241TIP3   OH279213   5.568   6.785  14.880  0.4345  0.0892 -0.3717
19241TIP3    H179214   5.657   6.752  14.866  0.3271 -0.0318 -0.7813
19241TIP3    H279215   5.552   6.843  14.806  0.7260  1.3141  0.4928
19242TIP3   OH279216   6.698   2.572   5.314  0.3307 -0.1056  0.0042
19242TIP3    H179217   6.780   2.588   5.361  0.9642  1.4111 -1.5211
19242TIP3    H279218   6.725   2.542   5.228 -0.5788  2.3410 -1.2312
19243TIP3   OH279219   0.461   3.881  15.855  0.1392  0.1552  0.1142
19243TIP3    H179220   0.434   3.833  15.933  0.6272 -1.1393 -0.4835
19243TIP3    H279221   0.436   3.824  15.782  0.5805  0.8919 -0.6311
19244TIP3   OH279222   0.146   2.564  15.158 -0.1925 -0.3442 -0.2163
19244TIP3    H179223   0.169   2.555  15.066  0.7432 -0.4762  0.0148
19244TIP3    H279224   0.060   2.524  15.166 -1.3372  1.7105 -1.4645
19245TIP3   OH279225   5.928   5.796  12.645  0.2485 -0.0909  0.2087
19245TIP3    H179226   5.896   5.855  12.577  0.9309  0.8414  0.6629
19245TIP3    H279227   5.984   5.851  12.699  0.8107 -1.1394  0.7254
19246TIP3   OH279228   2.385   4.779   4.256 -0.0531 -0.1559 -0.4150
19246TIP3    H179229   2.398   4.829   4.337 -0.4677  0.6075 -0.8131
19246TIP3    H279230   2.459   4.804   4.201 -0.9331  1.0116 -1.0989
19247TIP3   OH279231   0.974   2.305  12.553 -0.1838  0.1135  0.4176
19247TIP3    H179232   0.927   2.254  12.618 -1.9594 -0.1675 -1.0019
19247TIP3    H279233   0.921   2.384  12.541  0.9140  0.8668  0.3924
19248TIP3   OH279234   2.481   2.929   1.765 -0.0036 -0.0438  0.5269
19248TIP3    H179235   2.407   2.990   1.762 -0.5434 -0.6958 -0.0126
19248TIP3    H279236   2.508   2.929   1.856 -1.1978 -0.3925  0.9073
19249TIP3   OH279237   3.910   2.130   1.097 -0.0275  0.2375  0.3266
19249TIP3    H179238   3.830   2.181   1.086 -1.7298 -1.6397  2.9045
19249TIP3    H279239   3.965   2.184   1.153 -0.5966  0.4544  0.6886
19250TIP3   OH279240   6.768   4.702  14.254  0.4752 -0.0908 -0.4306
19250TIP3    H179241   6.800   4.614  14.235 -0.0499 -0.0408 -1.6481
19250TIP3    H279242   6.751   4.741  14.168 -0.1426  0.8882  0.1067
19251TIP3   OH279243   1.906   6.285   5.938 -0.0704 -0.2433  0.7077
19251TIP3    H179244   1.837   6.222   5.958 -3.4128  3.0316  0.6313
19251TIP3    H279245   1.932   6.320   6.023  1.2001 -1.0940  0.6918
19252TIP3   OH279246   0.291   1.870  11.344  0.2557  0.5676  0.3807
19252TIP3    H179247   0.316   1.957  11.374  2.4235  1.1617 -2.6717
19252TIP3    H279248   0.347   1.854  11.268 -1.0713 -2.9270 -0.0409
19253TIP3   OH279249   2.528   3.276   5.678 -0.2762 -0.2522  0.4511
19253TIP3    H179250   2.507   3.218   5.751 -2.9691 -0.1923 -0.1859
19253TIP3    H279251   2.493   3.361   5.703  0.4728  0.2480 -0.1294
19254TIP3   OH279252   2.192   0.673  11.985  0.0148  0.5934 -0.3305
19254TIP3    H179253   2.103   0.660  12.018  0.8178  1.3219  2.3636
19254TIP3    H279254   2.184   0.747  11.924 -1.2038  0.6866 -0.0953
19255TIP3   OH279255   3.445   2.063  16.549 -0.4764 -0.4140 -0.2123
19255TIP3    H179256   3.484   2.083  16.464 -2.7040 -0.0167 -1.2139
19255TIP3    H279257   3.474   2.135  16.606  1.1605 -0.7663 -0.5498
19256TIP3   OH279258   5.206   6.535  11.350 -0.0240  0.1202  0.9030
19256TIP3    H179259   5.286   6.588  11.347  0.0977 -0.0735  0.7171
19256TIP3    H279260   5.211   6.491  11.435  1.0837 -1.4549  0.0647
19257TIP3   OH279261   3.417   0.573  15.724  0.1332 -0.5120 -0.5668
19257TIP3    H179262   3.444   0.656  15.686  0.5031 -0.4628 -0.2027
19257TIP3    H279263   3.483   0.554  15.790 -1.8356  0.7164  1.9373
19258TIP3   OH279264   3.503   1.232  12.506  0.1332 -0.1057 -0.5660
19258TIP3    H179265   3.539   1.144  12.521 -0.4752 -0.2857 -0.1336
19258TIP3    H279266   3.410   1.217  12.492  0.1503  0.4010 -1.2481
19259TIP3   OH279267   1.995   2.420   3.456  0.1325 -0.4592  0.0962
19259TIP3    H179268   2.028   2.498   3.501  0.6428 -0.2772 -0.5707
19259TIP3    H279269   2.055   2.408   3.382  0.1585 -1.5801  0.2754
19260TIP3   OH279270   4.609   4.583   6.489  0.4448  0.9263  0.0623
19260TIP3    H179271   4.641   4.670   6.513  0.2636  1.5707 -1.9033
19260TIP3    H279272   4.519   4.597   6.460  0.8659  0.3559 -1.6460
19261TIP3   OH279273   5.392   6.002   5.423 -0.0916 -0.6803  0.6343
19261TIP3    H179274   5.470   6.055   5.440  0.6774 -0.7351 -2.3075
19261TIP3    H279275   5.356   6.037   5.341 -2.7406 -1.1859  1.4758
19262TIP3   OH279276   2.965   6.149  15.799  0.4684  0.2421  0.3004
19262TIP3    H179277   2.907   6.140  15.724  1.2289  0.2761 -0.2963
19262TIP3    H279278   2.910   6.188  15.867 -0.0642  0.7734 -0.4254
19263TIP3   OH279279   3.933   2.364   4.441 -0.5154  0.7655  0.4097
19263TIP3    H179280   3.893   2.445   4.409  1.0416  1.4827  0.2134
19263TIP3    H279281   3.930   2.305   4.366  2.1467  2.0809 -0.8675
19264TIP3   OH279282   5.712   1.988  11.290  0.2016 -0.0658  0.5661
19264TIP3    H179283   5.730   1.894  11.291 -0.6964 -0.2741  2.8967
19264TIP3    H279284   5.693   2.008  11.198 -2.7205 -2.8113  0.3989
19265TIP3   OH279285   3.761   3.723  15.234 -0.1165  0.1128 -0.0355
19265TIP3    H179286   3.836   3.724  15.174 -0.1182 -1.7389 -0.1183
19265TIP3    H279287   3.690   3.683  15.184 -0.7546  0.5474  0.5078
19266TIP3   OH279288   2.241   0.448   2.722 -0.1527 -0.0709  0.4148
19266TIP3    H179289   2.287   0.478   2.643  0.8057  1.2297  1.4150
19266TIP3    H279290   2.258   0.354   2.725  0.2067 -0.0523 -0.6755
19267TIP3   OH279291   4.017   1.066  11.911 -0.2300  0.1580 -0.5415
19267TIP3    H179292   4.110   1.087  11.921 -0.2015 -0.7659  1.5159
19267TIP3    H279293   4.003   1.064  11.816  1.4985  1.7030 -0.8848
19268TIP3   OH279294   5.791   6.748   3.821 -0.5978  0.2058  0.2517
19268TIP3    H179295   5.741   6.829   3.824  1.2517  1.3761  0.7995
19268TIP3    H279296   5.843   6.749   3.901 -1.0366 -1.8841  0.6193
19269TIP3   OH279297   6.507   2.248   2.045 -0.1489  0.2858 -0.2606
19269TIP3    H179298   6.555   2.246   2.128  0.4771  0.6340 -0.6147
19269TIP3    H279299   6.441   2.179   2.054  0.0117  0.2210  0.4679
19270TIP3   OH279300   2.129   3.691   2.591 -0.3840  0.2038  0.0865
19270TIP3    H179301   2.166   3.620   2.538  0.8795  0.5323  0.5089
19270TIP3    H279302   2.047   3.654   2.626 -0.8331 -0.2934 -1.4145
19271TIP3   OH279303   6.587   6.259   1.161 -0.1238  0.1379 -0.4423
19271TIP3    H179304   6.581   6.197   1.088 -1.3958 -0.7538  0.3837
19271TIP3    H279305   6.653   6.323   1.133  0.2043 -0.7991 -1.9008
19272TIP3   OH279306   4.881   3.576  10.570  0.3901  0.7593 -1.0022
19272TIP3    H179307   4.859   3.494  10.614  1.5008  1.1549  0.3631
19272TIP3    H279308   4.826   3.577  10.491 -1.7718  0.0823  0.4080
19273TIP3   OH279309   4.099   1.025   5.262 -0.3073  0.4818 -0.2740
19273TIP3    H179310   4.004   1.017   5.272 -0.2553  1.6572  1.6918
19273TIP3    H279311   4.131   0.935   5.269 -1.1297  0.2703  1.5825
19274TIP3   OH279312   3.298   3.403  15.913  0.5863  0.4608  0.0868
19274TIP3    H179313   3.334   3.427  15.828  1.0243 -0.5653 -0.0261
19274TIP3    H279314   3.238   3.331  15.895  1.8567 -0.8273  0.8139
19275TIP3   OH279315   1.710   5.726   4.180 -0.1058  0.3884  0.0487
19275TIP3    H179316   1.709   5.638   4.143 -0.3331  1.0574 -1.6207
19275TIP3    H279317   1.745   5.715   4.269  0.2716 -1.3062 -0.2850
19276TIP3   OH279318   0.083   1.916  13.832  0.2623  0.3029 -0.3340
19276TIP3    H179319   0.028   1.975  13.780  0.2686 -0.6496 -1.4494
19276TIP3    H279320   0.172   1.950  13.820  0.0406  1.3836  0.8529
19277TIP3   OH279321   6.181   2.554   1.871  0.2204  0.2235  0.4059
19277TIP3    H179322   6.144   2.564   1.959 -0.4077  0.1156  0.1592
19277TIP3    H279323   6.274   2.541   1.886  0.0797 -0.0857  1.0746
19278TIP3   OH279324   3.862   3.950   4.128 -0.2676 -0.8457 -0.8280
19278TIP3    H179325   3.895   3.985   4.210  0.0575 -0.9109 -0.9273
19278TIP3    H279326   3.850   4.027   4.072  1.7806 -0.9675 -1.5289
19279TIP3   OH279327   5.953   2.343   2.266 -0.5325  0.4848  0.3673
19279TIP3    H179328   6.009   2.268   2.281 -0.9249  0.2714  0.8119
19279TIP3    H279329   6.013   2.414   2.242 -0.3076 -0.4185 -1.9270
19280TIP3   OH279330   4.667   3.998   5.854 -0.0649 -0.0389 -0.5873
19280TIP3    H179331   4.575   4.003   5.827 -0.8002 -0.6885  1.5986
19280TIP3    H279332   4.667   3.939   5.929  2.7226 -3.3341 -2.8592
19281TIP3   OH279333   0.925   1.151  11.792 -0.9639  0.0961  0.2546
19281TIP3    H179334   0.943   1.199  11.711 -1.5161  0.1699  0.1718
19281TIP3    H279335   0.921   1.218  11.859  1.6305 -0.1423  0.7441
19282TIP3   OH279336   1.730   0.274   4.539  0.4898  0.4149  0.5872
19282TIP3    H179337   1.783   0.323   4.602  1.5902 -2.0931  1.7302
19282TIP3    H279338   1.639   0.293   4.564  0.8274  2.2725  0.5892
19283TIP3   OH279339   0.012   0.065  16.544  0.6610  0.2970 -0.0265
19283TIP3    H179340   0.025   0.138  16.605  3.5202  1.5202 -1.9014
19283TIP3    H279341   0.055  -0.010  16.587 -1.6649 -0.2299  1.5806
19284TIP3   OH279342   2.543   5.551  15.066 -0.5840 -0.1625  0.3061
19284TIP3    H179343   2.598   5.625  15.041  0.0998 -0.6965  0.1853
19284TIP3    H279344   2.455   5.588  15.075 -0.3743  0.5316 -0.3826
19285TIP3   OH279345   5.561   5.096   3.562 -0.6019  0.1715 -0.1925
19285TIP3    H179346   5.554   5.037   3.637 -2.7737  0.9380  0.2652
19285TIP3    H279347   5.567   5.183   3.600  0.9241  0.4084 -0.8965
19286TIP3   OH279348   5.752   6.659  17.009 -0.1486  0.0486 -0.2187
19286TIP3    H179349   5.817   6.680  17.076  0.2086  1.1258 -0.8658
19286TIP3    H279350   5.728   6.568  17.026 -0.0249  0.2719  1.3285
19287TIP3   OH279351   4.079   2.654   5.683 -0.2273  0.9093 -0.1393
19287TIP3    H179352   4.095   2.652   5.589 -0.7446  1.7638 -0.2546
19287TIP3    H279353   4.042   2.741   5.700 -1.5784  0.2318  0.5984
19288TIP3   OH279354   3.918   5.055   0.580 -0.1498 -0.0169  0.4874
19288TIP3    H179355   3.873   4.998   0.518 -1.1092 -0.7824  1.8162
19288TIP3    H279356   3.868   5.046   0.661  2.2312 -0.7015  1.9882
19289TIP3   OH279357   3.054   2.711  14.259 -0.6857  0.0743 -0.3366
19289TIP3    H179358   2.999   2.717  14.181 -0.0091  0.0032 -0.8231
19289TIP3    H279359   3.142   2.734  14.229 -0.3879 -0.1082  0.3727
19290TIP3   OH279360   1.384   2.072  15.278  0.0265 -0.4706  0.1951
19290TIP3    H179361   1.307   2.118  15.310  0.5338  1.4297 -1.1421
19290TIP3    H279362   1.459   2.122  15.312  0.6277 -1.1524 -0.0870
19291TIP3   OH279363   1.707   3.815  12.370 -0.1055  0.2346  0.1300
19291TIP3    H179364   1.696   3.907  12.347 -0.5109  0.0201 -0.5619
19291TIP3    H279365   1.793   3.811  12.412 -0.2278  0.9801  0.4650
19292TIP3   OH279366   1.455   2.083  14.099  0.0381 -0.6413  0.1717
19292TIP3    H179367   1.538   2.037  14.097  1.2098  1.3962 -0.8192
19292TIP3    H279368   1.461   2.141  14.174  0.2207  0.7097 -0.8577
19293TIP3   OH279369   2.510   2.969   0.873 -0.9169 -0.6892  0.2172
19293TIP3    H179370   2.473   3.024   0.942 -1.4320  0.1066 -0.6686
19293TIP3    H279371   2.483   2.880   0.896  0.5948 -0.7348  2.1092
19294TIP3   OH279372   2.339   3.807  11.267 -0.4761  0.2612  0.7347
19294TIP3    H179373   2.382   3.766  11.192  1.6938  1.0251  1.4741
19294TIP3    H279374   2.273   3.866  11.229 -0.8833 -0.9316 -0.4548
19295TIP3   OH279375   5.128   5.248  13.513 -0.1464  0.6174  0.4176
19295TIP3    H179376   5.104   5.157  13.495 -1.4577  0.9905  0.1561
19295TIP3    H279377   5.187   5.243  13.588 -0.9319 -0.3889  0.9918
19296TIP3   OH279378   6.295   3.826  11.304  0.4058  0.2624  0.4395
19296TIP3    H179379   6.295   3.731  11.318  0.4290  0.2509  0.3612
19296TIP3    H279380   6.327   3.837  11.214  0.8099  0.3653  0.5943
19297TIP3   OH279381   4.278   0.189   5.978 -0.4377 -0.2045 -0.0142
19297TIP3    H179382   4.237   0.113   6.021 -0.8386 -0.2780 -0.5213
19297TIP3    H279383   4.260   0.261   6.038  0.3123 -0.5734  0.6849
19298TIP3   OH279384   2.775   0.817  13.670 -0.2702  0.0188 -0.1602
19298TIP3    H179385   2.680   0.820  13.673 -0.2511 -0.1570  1.2597
19298TIP3    H279386   2.799   0.741  13.723  0.6712  0.1750 -0.3324
19299TIP3   OH279387   0.159   2.141   0.633  0.2068 -0.3270  0.5439
19299TIP3    H179388   0.220   2.085   0.585  0.1888 -0.0871  0.2404
19299TIP3    H279389   0.077   2.135   0.584 -0.2882 -1.3648  1.4521
19300TIP3   OH279390   6.703   6.445  15.558 -0.6405 -0.1271  0.7793
19300TIP3    H179391   6.725   6.404  15.642 -0.4493  0.7265  1.1603
19300TIP3    H279392   6.616   6.482  15.571 -1.9855 -2.6397 -0.4106
19301TIP3   OH279393   5.772   0.036   5.704 -0.1000  0.4567  0.0012
19301TIP3    H179394   5.749  -0.042   5.754 -1.0036 -0.4496 -1.7149
19301TIP3    H279395   5.867   0.039   5.705 -0.0925 -0.0526  0.9889
19302TIP3   OH279396   0.001   3.730   3.181  0.7076 -0.7055  0.1227
19302TIP3    H179397  -0.027   3.700   3.095  1.0097  1.0148 -0.6273
19302TIP3    H279398  -0.048   3.676   3.243 -1.1051 -0.5880 -1.1397
19303TIP3   OH279399   0.030   3.956   5.028  0.6631  0.6788 -0.5897
19303TIP3    H179400  -0.051   3.947   5.078  0.9051  3.8233  0.6464
19303TIP3    H279401   0.007   3.930   4.939 -0.7214 -1.7510  0.3711
19304TIP3   OH279402   3.316   4.884  12.124  0.7078 -0.2806  0.0116
19304TIP3    H179403   3.361   4.883  12.209 -0.7909 -0.1400  0.8361
19304TIP3    H279404   3.250   4.816  12.132 -0.8141  1.1136 -0.2639
19305TIP3   OH279405   2.838   5.154  13.728 -0.0768 -0.1227 -0.6142
19305TIP3    H179406   2.789   5.226  13.688  0.6177  0.2869 -0.7442
19305TIP3    H279407   2.892   5.118  13.658  0.1861 -0.2414 -0.3571
19306TIP3   OH279408   5.068   0.526  12.823 -0.2084  0.3519 -0.2672
19306TIP3    H179409   5.140   0.463  12.820  0.1989  0.8425 -0.9384
19306TIP3    H279410   5.061   0.549  12.916 -1.4895 -1.9305  0.2645
19307TIP3   OH279411   6.019   2.358   4.115 -0.2621  0.4323  0.5225
19307TIP3    H179412   5.956   2.426   4.137 -0.8962  0.8038 -2.0778
19307TIP3    H279413   5.976   2.307   4.046  0.6125 -2.0048  1.6392
19308TIP3   OH279414   4.107   1.753  11.723 -0.2337  0.1316  0.3665
19308TIP3    H179415   4.033   1.726  11.667  0.5532  0.4505 -0.8606
19308TIP3    H279416   4.095   1.847  11.734 -1.2246 -0.1385  2.0471
19309TIP3   OH279417   4.398   2.712   5.267  0.2179 -0.6869 -0.4010
19309TIP3    H179418   4.401   2.779   5.336 -1.6476 -0.7040 -0.2643
19309TIP3    H279419   4.427   2.757   5.188  0.1595 -0.0542 -0.0661
19310TIP3   OH279420   5.987   0.107  16.888 -0.0448 -1.1988  0.6479
19310TIP3    H179421   5.927   0.176  16.860 -1.9028 -3.5203 -1.3939
19310TIP3    H279422   6.070   0.129  16.846 -0.6048 -0.2356  0.0219
19311TIP3   OH279423   4.513   1.672  15.329  0.1632  0.1295  0.0607
19311TIP3    H179424   4.553   1.716  15.254  0.3660 -0.6710 -0.3048
19311TIP3    H279425   4.464   1.599  15.291  1.0748 -0.8799  0.7749
19312TIP3   OH279426   5.564   1.859  17.219  0.3999 -0.1411  0.6968
19312TIP3    H179427   5.612   1.921  17.274  0.6029  1.4075 -1.1134
19312TIP3    H279428   5.594   1.878  17.130  1.6895 -3.9662  0.1575
19313TIP3   OH279429   3.440   1.369  11.098 -0.2045 -0.1282  0.2910
19313TIP3    H179430   3.478   1.400  11.180  0.6466 -2.0797  0.7056
19313TIP3    H279431   3.366   1.428  11.081 -0.2067  0.5117  2.3006
19314TIP3   OH279432   2.290   6.672   0.222 -0.7389 -0.1643  0.3448
19314TIP3    H179433   2.381   6.676   0.194 -1.7466 -0.3019 -3.4156
19314TIP3    H279434   2.261   6.763   0.224 -0.9029 -0.2123  0.1488
19315TIP3   OH279435   6.470   4.462   3.767 -0.1991  0.3922 -0.2126
19315TIP3    H179436   6.502   4.442   3.678  0.4863  1.8552 -0.3223
19315TIP3    H279437   6.434   4.550   3.760  1.3290  1.1864  1.3123
19316TIP3   OH279438   2.102   3.656  10.799 -0.0642 -0.1268 -0.0260
19316TIP3    H179439   2.033   3.679  10.736 -0.1863 -1.0690 -0.2435
19316TIP3    H279440   2.172   3.618  10.746 -0.2737 -1.1666  0.4189
19317TIP3   OH279441   0.066   2.849  12.889  0.0773 -0.2816 -0.5567
19317TIP3    H179442  -0.003   2.903  12.928 -0.4598 -1.9062  0.8978
19317TIP3    H279443   0.147   2.892  12.914 -0.3453  0.1908  0.0453
19318TIP3   OH279444   5.370   5.718  15.289  0.5288 -0.7652  0.0715
19318TIP3    H179445   5.290   5.716  15.237 -0.1362 -1.8419  1.0857
19318TIP3    H279446   5.437   5.750  15.229 -0.7477  0.6255 -0.6614
19319TIP3   OH279447   3.169   6.360  14.534 -0.2700 -0.3321 -0.6283
19319TIP3    H179448   3.091   6.400  14.495  0.0765  0.7832 -0.2377
19319TIP3    H279449   3.171   6.271  14.499 -1.0651 -0.0022 -1.5640
19320TIP3   OH279450   2.886   0.006  12.552  0.3743 -0.2320 -0.0258
19320TIP3    H179451   2.909   0.087  12.598  2.2328 -0.9305  0.3299
19320TIP3    H279452   2.955  -0.006  12.487 -0.8513 -0.6156 -1.3023
19321TIP3   OH279453   4.649   4.262  16.126  0.4385 -0.3887  0.2100
19321TIP3    H179454   4.553   4.268  16.132  0.4263  0.3344 -0.5877
19321TIP3    H279455   4.673   4.329  16.062  1.4824 -0.5797  0.3928
19322TIP3   OH279456   5.283   2.698   5.413  0.3771 -0.3522 -0.0433
19322TIP3    H179457   5.328   2.632   5.465 -0.6529 -0.2363  1.0344
19322TIP3    H279458   5.352   2.761   5.390  0.9152 -0.5690  0.9287
19323TIP3   OH279459   0.465   3.515   1.766  0.3229 -0.3892 -0.3844
19323TIP3    H179460   0.426   3.464   1.694  0.0646 -0.5118 -0.1594
19323TIP3    H279461   0.470   3.604   1.732  0.5815 -0.5225 -0.7060
19324TIP3   OH279462   0.411   1.179  16.467 -0.1931 -0.1486  0.4603
19324TIP3    H179463   0.417   1.254  16.526  1.0847 -0.3031  0.5545
19324TIP3    H279464   0.342   1.203  16.405  1.3737  1.9401 -0.6357
19325TIP3   OH279465   0.549   3.743  15.545 -0.9183  0.5225 -0.0177
19325TIP3    H179466   0.600   3.794  15.607 -0.1224 -0.0376 -0.1992
19325TIP3    H279467   0.479   3.703  15.597  1.3322 -2.2331  1.1564
19326TIP3   OH279468   6.725   2.902  11.957 -0.3998  0.1580  0.1273
19326TIP3    H179469   6.692   2.860  12.036  0.3106  2.5563  1.7842
19326TIP3    H279470   6.796   2.958  11.987  1.3603 -0.4492 -2.5348
19327TIP3   OH279471   2.228   3.091  14.189 -0.4498 -0.0078  0.1745
19327TIP3    H179472   2.300   3.061  14.134 -0.2652  0.0039  0.4086
19327TIP3    H279473   2.152   3.094  14.130 -0.3410 -0.3694  0.0152
19328TIP3   OH279474   5.270   0.166   1.765  0.1530  0.2300 -0.1674
19328TIP3    H179475   5.361   0.145   1.784 -0.4831 -0.4510  2.8141
19328TIP3    H279476   5.235   0.087   1.724 -0.2425 -1.7641  3.5531
19329TIP3   OH279477   2.655   6.582   4.536 -0.9813  0.1649 -0.0634
19329TIP3    H179478   2.705   6.543   4.608 -1.9430  0.9446  1.0639
19329TIP3    H279479   2.567   6.545   4.545 -0.4802 -1.9388 -2.5963
19330TIP3   OH279480   5.768   4.578   2.821 -0.2359  0.6934 -0.2144
19330TIP3    H179481   5.729   4.651   2.869  1.6959  1.5473  0.1428
19330TIP3    H279482   5.732   4.586   2.732  0.2024  2.3114 -0.2729
19331TIP3   OH279483   4.048   5.712   2.774  0.0130 -0.1629  0.2928
19331TIP3    H179484   3.968   5.748   2.734 -0.3754  0.8536  1.8663
19331TIP3    H279485   4.066   5.632   2.725  0.5557  1.8192 -2.9991
19332TIP3   OH279486   0.306   4.949   4.049  1.0198  0.3871 -0.4909
19332TIP3    H179487   0.381   4.977   3.997  0.3866  3.1964 -0.0311
19332TIP3    H279488   0.231   4.992   4.009 -0.0813 -0.8041  0.2284
19333TIP3   OH279489   0.974   0.611  12.247  0.5465  0.2212 -0.1201
19333TIP3    H179490   1.042   0.628  12.181  0.4203 -0.0977 -0.3292
19333TIP3    H279491   0.982   0.685  12.307 -0.9605  1.8660 -1.8224
19334TIP3   OH279492   6.287   1.975   0.637 -0.0705 -0.6490  0.1442
19334TIP3    H179493   6.264   2.067   0.645  0.6843 -0.5370  1.2273
19334TIP3    H279494   6.228   1.931   0.698 -0.3223 -0.8735 -0.2558
19335TIP3   OH279495   2.105   5.490   3.417 -0.1818  0.1160  0.4238
19335TIP3    H179496   2.130   5.429   3.487 -2.6197 -1.2115  0.2378
19335TIP3    H279497   2.176   5.482   3.353 -0.2714 -2.3919  0.5217
19336TIP3   OH279498   2.992   1.857   4.163 -0.3002 -0.5545  0.1521
19336TIP3    H179499   3.067   1.899   4.120 -0.4485  0.8661  1.1878
19336TIP3    H279500   2.997   1.766   4.136  1.9678 -0.5639  0.3641
19337TIP3   OH279501   0.734   2.126   4.348 -0.1391 -0.1632  0.3851
19337TIP3    H179502   0.716   2.163   4.435  1.2791 -0.7320  0.9633
19337TIP3    H279503   0.827   2.145   4.334 -0.2394 -0.4884 -0.8271
19338TIP3   OH279504   3.590   0.025  11.232 -0.0426  0.4536 -0.1445
19338TIP3    H179505   3.660  -0.018  11.184 -1.1422  0.6914 -2.0967
19338TIP3    H279506   3.584   0.112  11.193 -1.1337  0.5843  0.2732
19339TIP3   OH279507   5.176   4.420  16.970 -0.4848 -0.0054 -0.1118
19339TIP3    H179508   5.129   4.416  16.887  0.0804 -0.2679 -0.4311
19339TIP3    H279509   5.187   4.513  16.988 -1.0373  0.0565 -0.0807
19340TIP3   OH279510   1.994   2.840   5.148 -0.2656 -0.3390  0.2982
19340TIP3    H179511   2.040   2.836   5.231  0.3425  0.5844  0.0167
19340TIP3    H279512   1.968   2.932   5.139  0.8685 -0.1195 -1.1522
19341TIP3   OH279513   2.173   2.318  11.510  0.0656 -0.0519  0.3151
19341TIP3    H179514   2.167   2.373  11.432 -1.3145  0.7325  0.9447
19341TIP3    H279515   2.187   2.380  11.582  0.0250 -0.6593  0.8576
19342TIP3   OH279516   4.214   2.338   3.478  0.1297 -0.1794  0.2002
19342TIP3    H179517   4.204   2.243   3.472  2.4388 -0.4294 -0.4200
19342TIP3    H279518   4.225   2.355   3.571  0.4855 -0.6247  0.2437
19343TIP3   OH279519   1.318   0.620   1.443 -0.2497 -0.0563 -0.2498
19343TIP3    H179520   1.360   0.534   1.443  0.6941  0.2587  3.5616
19343TIP3    H279521   1.391   0.682   1.448 -0.9651  1.0053 -2.0033
19344TIP3   OH279522   4.896   3.794  12.842 -0.0885  0.6046 -0.2073
19344TIP3    H179523   4.990   3.807  12.825 -0.1707  1.7816  0.1544
19344TIP3    H279524   4.867   3.877  12.881 -1.6815  0.9669 -2.0034
19345TIP3   OH279525   5.703   2.505  13.816  0.0899  0.3142  0.4752
19345TIP3    H179526   5.659   2.461  13.888 -0.0322  1.2880  1.0102
19345TIP3    H279527   5.640   2.501  13.744  0.1611 -0.5470  0.4476
19346TIP3   OH279528   1.709   6.788  10.132  0.4800 -0.6432  0.0465
19346TIP3    H179529   1.724   6.707  10.083 -0.3128 -0.7467 -0.0400
19346TIP3    H279530   1.627   6.823  10.097  0.7735  0.1682  0.1310
19347TIP3   OH279531   3.935   6.651  12.338  0.0730 -0.1781  0.1273
19347TIP3    H179532   3.886   6.611  12.266  0.8813  0.7854 -0.9848
19347TIP3    H279533   3.867   6.690  12.394 -0.5195 -0.1565 -0.5915
19348TIP3   OH279534   0.055   5.481   4.966 -0.0702 -0.0511 -0.2759
19348TIP3    H179535   0.090   5.419   5.030  0.2762  1.9172  1.5340
19348TIP3    H279536  -0.029   5.443   4.940 -0.3326 -0.8095  1.5130
19349TIP3   OH279537   4.711   3.961   0.792 -0.2351  0.0256 -0.0586
19349TIP3    H179538   4.620   3.938   0.808 -0.3178  1.1802  1.3654
19349TIP3    H279539   4.723   4.045   0.837  1.1563  0.6061 -1.4076
19350TIP3   OH279540   0.960   4.578  12.622  0.2440  0.4075  0.1146
19350TIP3    H179541   0.977   4.527  12.543 -0.6764 -1.0045  0.7692
19350TIP3    H279542   0.865   4.575  12.632  0.4548 -1.8904  2.7387
19351TIP3   OH279543   0.447   1.167  13.311 -0.3129  0.0723 -0.1825
19351TIP3    H179544   0.374   1.225  13.327 -0.1961 -0.3636  2.3070
19351TIP3    H279545   0.468   1.130  13.397  3.0657  0.4710 -0.6914
19352TIP3   OH279546   3.601   3.503   2.159 -0.4530 -0.4104 -0.0180
19352TIP3    H179547   3.674   3.456   2.199  0.3146  1.0569  0.3468
19352TIP3    H279548   3.605   3.479   2.066  0.1598 -0.7466  0.0908
19353TIP3   OH279549   6.441   5.198  10.439 -0.5321  0.3976  0.3448
19353TIP3    H179550   6.447   5.261  10.367  0.4865 -0.2861 -0.1934
19353TIP3    H279551   6.501   5.231  10.505 -1.2125  0.8467  0.7347
19354TIP3   OH279552   5.694   5.129   6.554  0.1674 -0.5104  0.5681
19354TIP3    H179553   5.751   5.055   6.530  0.2347 -0.2915  0.0298
19354TIP3    H279554   5.740   5.206   6.521  0.1170 -0.2207  1.1680
19355TIP3   OH279555   5.737   6.453  14.363 -0.4299 -0.1236 -0.0882
19355TIP3    H179556   5.665   6.391  14.354 -0.1382 -0.8273  1.9040
19355TIP3    H279557   5.813   6.408  14.328 -0.4905 -0.3645  0.0903
19356TIP3   OH279558   1.652   0.182   4.141  0.3604 -0.0135 -0.9702
19356TIP3    H179559   1.711   0.237   4.191 -0.7250  0.6559 -0.3944
19356TIP3    H279560   1.632   0.109   4.200 -0.2743  0.3522 -0.7260
19357TIP3   OH279561   5.236   6.318   1.926 -0.7835 -0.1237  0.1488
19357TIP3    H179562   5.151   6.326   1.883 -0.9823 -2.0308  0.1354
19357TIP3    H279563   5.262   6.227   1.913  0.2812 -0.1303  1.9591
19358TIP3   OH279564   5.885   6.441  11.713 -0.1683 -0.6989  0.0496
19358TIP3    H179565   5.890   6.349  11.738 -2.0841 -0.8777 -0.0354
19358TIP3    H279566   5.853   6.486  11.791 -0.6445 -0.3411 -0.3467
19359TIP3   OH279567   2.479   0.586  11.543  0.0806 -0.6689 -0.4884
19359TIP3    H179568   2.546   0.574  11.611  0.6503 -0.7427 -1.0533
19359TIP3    H279569   2.521   0.556  11.462  0.2305  1.4843 -1.2945
19360TIP3   OH279570   0.432   3.115  16.663  0.3787 -0.4283 -0.1601
19360TIP3    H179571   0.451   3.198  16.619 -0.8452 -0.4308 -0.7485
19360TIP3    H279572   0.344   3.126  16.698  1.1776 -0.5661  2.0548
19361TIP3   OH279573   5.860   6.343   2.907 -1.1936  0.0899 -0.3151
19361TIP3    H179574   5.853   6.344   3.002 -0.3915  1.2292 -0.2385
19361TIP3    H279575   5.793   6.405   2.878  0.1253  1.5915 -0.3118
19362TIP3   OH279576   2.861   2.195  16.796 -0.0605 -0.2608 -0.0868
19362TIP3    H179577   2.769   2.202  16.771 -0.2967 -2.3952  0.0431
19362TIP3    H279578   2.909   2.216  16.716 -0.6643  0.4032 -0.2820
19363TIP3   OH279579   4.948   4.339  13.097 -0.4789 -0.3271  0.4472
19363TIP3    H179580   4.917   4.249  13.108  0.3144 -1.2850 -3.3801
19363TIP3    H279581   5.038   4.338  13.130 -1.1066 -0.3199  2.2537
19364TIP3   OH279582   3.437   5.075  15.182  0.1094  0.6503 -0.3079
19364TIP3    H179583   3.451   5.068  15.088 -1.4351 -0.8314 -0.4796
19364TIP3    H279584   3.481   4.998  15.218  2.6469  2.3508  0.5048
19365TIP3   OH279585   4.022   4.871   3.118  0.6578  0.1265  0.6853
19365TIP3    H179586   4.083   4.940   3.144  0.2338  0.0211  2.0366
19365TIP3    H279587   4.032   4.803   3.185  0.0198 -0.4792  0.1835
19366TIP3   OH279588   2.277   6.186   1.303 -0.4427  0.4503  0.3586
19366TIP3    H179589   2.353   6.234   1.270  1.2654 -0.3049  2.9160
19366TIP3    H279590   2.273   6.107   1.248  1.6514 -0.2688  1.1448
19367TIP3   OH279591   2.780   5.338  14.341 -0.1425 -0.0333 -0.6722
19367TIP3    H179592   2.740   5.423  14.325  3.0850  2.1794  1.5693
19367TIP3    H279593   2.750   5.313  14.429  1.1397  0.3089 -0.1107
19368TIP3   OH279594   5.767   3.419  15.183 -0.2143  0.6419 -0.0913
19368TIP3    H179595   5.731   3.349  15.129 -1.6101  0.5133  0.9635
19368TIP3    H279596   5.823   3.469  15.123  0.5297 -1.1308 -0.9489
19369TIP3   OH279597   1.109   5.417   6.132  0.3902 -0.3460 -1.0682
19369TIP3    H179598   1.124   5.511   6.128 -0.7693 -0.1602 -1.7331
19369TIP3    H279599   1.034   5.402   6.073  0.1871 -1.5992 -0.5372
19370TIP3   OH279600   2.963   5.042   5.492  0.1376  0.4548 -0.1498
19370TIP3    H179601   2.944   4.952   5.465  1.0122  0.1271  0.2855
19370TIP3    H279602   2.877   5.079   5.514 -0.2352 -0.2527 -0.3918
19371TIP3   OH279603   5.250   2.705  13.267 -0.1198  0.1105  0.3696
19371TIP3    H179604   5.262   2.610  13.270 -0.3823  0.0829  0.5125
19371TIP3    H279605   5.258   2.733  13.358  0.5930  0.3047  0.2557
19372TIP3   OH279606   6.743   5.592  12.615  0.0478 -0.3960  0.1196
19372TIP3    H179607   6.719   5.683  12.629  1.3931 -0.0443  0.2744
19372TIP3    H279608   6.697   5.543  12.683 -1.5880 -0.0031 -0.6533
19373TIP3   OH279609   3.234   0.563  13.737  0.0485  0.1628  0.0237
19373TIP3    H179610   3.187   0.630  13.787 -0.8077 -1.3675  1.3760
19373TIP3    H279611   3.172   0.491  13.728  0.7501 -0.2672 -1.8891
19374TIP3   OH279612   1.392   6.139   0.817  0.4310  0.0449 -0.1220
19374TIP3    H179613   1.413   6.169   0.728 -0.2450 -0.4708 -0.4649
19374TIP3    H279614   1.476   6.111   0.853  0.6174 -0.3771 -0.8517
19375TIP3   OH279615   2.078   3.279  16.949 -0.4788 -0.2541 -0.3546
19375TIP3    H179616   2.002   3.286  17.007 -0.5841  0.1025 -0.5308
19375TIP3    H279617   2.042   3.292  16.861 -0.0465  1.1673 -0.3461
19376TIP3   OH279618   6.564   6.294  12.417  0.2194  0.0426  0.2073
19376TIP3    H179619   6.523   6.361  12.362  0.1788 -2.0348 -2.5429
19376TIP3    H279620   6.503   6.220  12.414  1.6798 -1.2284  0.4592
19377TIP3   OH279621   0.427   5.109  16.111 -0.0064 -0.0922 -0.0691
19377TIP3    H179622   0.414   5.067  16.196  1.6582 -2.7841 -1.0169
19377TIP3    H279623   0.491   5.178  16.128 -0.8959  0.4879  1.1030
19378TIP3   OH279624   4.859   5.784  15.906 -0.0675 -0.1392  0.0706
19378TIP3    H179625   4.824   5.696  15.896  0.9992 -0.7239  1.2330
19378TIP3    H279626   4.917   5.796  15.832 -0.7943 -0.1018 -0.5085
19379TIP3   OH279627   6.578   4.909  12.324  0.1928  0.4213  0.1576
19379TIP3    H179628   6.640   4.972  12.361  0.2742 -0.2088  1.1415
19379TIP3    H279629   6.587   4.832  12.380 -2.6275  0.8669  1.3657
19380TIP3   OH279630   3.927   6.514   0.665 -0.1235 -0.4298  0.1573
19380TIP3    H179631   3.951   6.603   0.639 -0.9432 -0.1181  0.4390
19380TIP3    H279632   3.939   6.462   0.585 -1.3532  0.2786 -0.5312
19381TIP3   OH279633   1.918   3.739   0.830 -0.5776  0.9088  0.3066
19381TIP3    H179634   1.968   3.685   0.891 -1.1321  0.6426  0.5351
19381TIP3    H279635   1.827   3.718   0.849 -0.7752  1.3227 -0.1615
19382TIP3   OH279636   2.988   4.179   3.974 -0.1243  0.2788 -0.0930
19382TIP3    H179637   3.042   4.100   3.968  0.6559  0.7129  0.9012
19382TIP3    H279638   3.051   4.252   3.971 -0.8582  0.8902 -1.3588
19383TIP3   OH279639   2.098   4.040  11.680  0.1953  0.0621 -0.4661
19383TIP3    H179640   2.083   4.111  11.742  2.9160  0.0141  0.3568
19383TIP3    H279641   2.021   3.984  11.689 -0.1881  0.8361  1.7561
19384TIP3   OH279642   2.402   5.683   1.933  0.3219 -0.0677 -0.2817
19384TIP3    H179643   2.353   5.739   1.993  1.3296  0.3584  0.1684
19384TIP3    H279644   2.379   5.716   1.846 -1.1732 -0.7120 -0.1641
19385TIP3   OH279645   1.635   3.687  13.389 -0.3307 -0.0375  0.0311
19385TIP3    H179646   1.557   3.742  13.395 -1.1850 -1.2978  1.2290
19385TIP3    H279647   1.613   3.621  13.323  0.0435  0.0776 -0.2117
19386TIP3   OH279648   2.036   2.313   3.142 -0.0971  0.3338  0.0706
19386TIP3    H179649   2.096   2.372   3.188  0.7258 -0.0755 -0.4455
19386TIP3    H279650   1.962   2.368   3.117  0.5506  1.0984 -0.2123
19387TIP3   OH279651   5.109   4.674  14.755 -0.4133  0.0718  0.5005
19387TIP3    H179652   5.095   4.753  14.808  1.5614  0.0770  1.1044
19387TIP3    H279653   5.084   4.602  14.813  0.0394  0.1691  0.8316
19388TIP3   OH279654   0.637   3.027  11.854 -0.3236 -0.0949  0.7640
19388TIP3    H179655   0.670   2.952  11.804 -1.3304  0.5908 -1.0106
19388TIP3    H279656   0.595   2.987  11.931  0.2919 -1.2517  0.5294
19389TIP3   OH279657   3.988   5.228  16.647  0.1155 -0.9313  0.1446
19389TIP3    H179658   4.021   5.139  16.663  2.1481 -0.2604  0.0386
19389TIP3    H279659   4.067   5.281  16.640 -1.0041  0.5868 -1.7002
19390TIP3   OH279660   0.419   3.295   4.100 -0.1593 -0.0586  0.2160
19390TIP3    H179661   0.378   3.270   4.182 -0.2312 -1.1058 -0.1207
19390TIP3    H279662   0.503   3.250   4.101  0.0231  0.2726 -0.0904
19391TIP3   OH279663   5.989   4.070   0.848 -0.4150  0.0978  0.2389
19391TIP3    H179664   6.044   4.136   0.891 -1.3826  1.5145 -0.6079
19391TIP3    H279665   6.049   3.999   0.827  0.9748  1.3104 -0.0567
19392TIP3   OH279666   2.689   2.235   4.904 -0.6617  0.2874  0.0006
19392TIP3    H179667   2.653   2.277   4.826  0.3522  1.3910  0.0963
19392TIP3    H279668   2.613   2.208   4.954 -1.3531  1.2378 -0.4996
19393TIP3   OH279669   1.472   4.566   6.055  0.2671  0.3981 -0.6510
19393TIP3    H179670   1.404   4.626   6.023  2.0494  2.5278 -0.7167
19393TIP3    H279671   1.462   4.566   6.150 -0.3234  0.0354 -0.7094
19394TIP3   OH279672   5.980   0.131  14.841  0.8586  0.0212  0.0917
19394TIP3    H179673   6.054   0.139  14.781  0.9154  0.3233  0.2003
19394TIP3    H279674   5.942   0.219  14.844 -0.4079 -0.4490 -1.1232
19395TIP3   OH279675   4.440   6.059  16.443 -0.6776 -0.1032  0.3686
19395TIP3    H179676   4.366   6.000  16.458 -1.0024  0.5918  1.6750
19395TIP3    H279677   4.472   6.080  16.531 -0.2541  1.2520 -0.0833
19396TIP3   OH279678   5.021   4.106  16.338  0.3116  0.0039 -0.5951
19396TIP3    H179679   4.990   4.098  16.247  0.1055  1.2918 -0.6536
19396TIP3    H279680   4.943   4.131  16.388  0.5648 -0.0361 -0.1763
19397TIP3   OH279681   3.084   6.043   1.464 -0.7810  0.8211 -0.1312
19397TIP3    H179682   3.156   6.101   1.436  0.4416  0.3651  1.8883
19397TIP3    H279683   3.064   6.072   1.553 -0.4599 -1.5223  0.7623
19398TIP3   OH279684   0.311   2.278   2.400 -1.0151  0.4286 -0.0040
19398TIP3    H179685   0.347   2.289   2.488 -0.7926 -1.8308  0.2453
19398TIP3    H279686   0.344   2.353   2.351  0.6545  0.5988  1.2874
19399TIP3   OH279687   2.399   4.038   0.112  0.3749 -0.2685  0.0335
19399TIP3    H179688   2.336   4.108   0.097  1.0128  0.4895  0.7686
19399TIP3    H279689   2.346   3.958   0.117 -0.6517  0.4611  1.5952
19400TIP3   OH279690   0.739   3.260   1.970  0.2504 -0.0912  0.1067
19400TIP3    H179691   0.769   3.351   1.976 -2.3329  1.3372 -4.0127
19400TIP3    H279692   0.649   3.262   2.003  1.3486 -2.1879  3.6328
19401TIP3   OH279693   5.538   4.614   0.946  0.3773  0.1974 -0.0267
19401TIP3    H179694   5.524   4.679   0.877  1.2673  0.6261  0.1768
19401TIP3    H279695   5.630   4.588   0.936  0.3389 -0.2061  0.5936
19402TIP3   OH279696   0.339   2.903  12.404  0.3097 -0.5731 -0.6679
19402TIP3    H179697   0.415   2.961  12.395 -0.0639  0.1591  0.6998
19402TIP3    H279698   0.329   2.891  12.498  0.7871 -3.4506 -0.9121
19403TIP3   OH279699   4.251   2.127   2.934 -0.5395 -0.5907  0.0400
19403TIP3    H179700   4.211   2.074   3.004 -0.2654  1.7529  2.1133
19403TIP3    H279701   4.218   2.215   2.950  1.4348  0.4596 -1.3517
19404TIP3   OH279702   4.096   6.151   2.795 -0.4730 -0.6271 -0.2304
19404TIP3    H179703   4.147   6.144   2.876  0.5000  0.1465 -0.7624
19404TIP3    H279704   4.159   6.179   2.729 -1.6982  0.9587 -0.7922
19405TIP3   OH279705   2.771   5.894  13.989  0.2458  0.0157 -0.1154
19405TIP3    H179706   2.826   5.852  14.055  0.4862  0.9259  0.2729
19405TIP3    H279707   2.700   5.935  14.040 -2.0142 -2.8082 -0.6965
19406TIP3   OH279708   6.403   0.111  12.481 -0.0649 -0.4018 -0.0282
19406TIP3    H179709   6.399   0.146  12.392 -2.6941  2.0203  0.8852
19406TIP3    H279710   6.373   0.021  12.473 -1.5846  0.1858 -1.4648
19407TIP3   OH279711   1.281   0.904  13.474  0.3776 -0.2006 -0.2499
19407TIP3    H179712   1.309   0.864  13.557  0.0962 -0.6352 -0.3653
19407TIP3    H279713   1.234   0.983  13.501  1.4291  0.3741 -0.0421
19408TIP3   OH279714   6.071   5.599  12.558  0.6870  0.3867  0.2230
19408TIP3    H179715   6.069   5.615  12.464 -1.0214 -2.0399 -0.2772
19408TIP3    H279716   6.019   5.670  12.596 -1.1492 -0.1859 -1.0644
19409TIP3   OH279717   2.974   1.646  14.189 -0.4004  0.1678  0.6180
19409TIP3    H179718   3.005   1.609  14.106 -1.2154  2.4060 -0.7623
19409TIP3    H279719   3.046   1.631  14.251  1.2098  0.5326 -1.0953
19410TIP3   OH279720   0.051   0.041  16.943  0.5007 -0.0857  0.3460
19410TIP3    H179721  -0.030   0.077  16.978 -0.3526  0.5221 -2.0837
19410TIP3    H279722   0.062  -0.042  16.989 -1.3381 -0.0346  0.9548
19411TIP3   OH279723   2.762   5.884  11.221 -0.3767  0.0847  0.2293
19411TIP3    H179724   2.763   5.867  11.315  2.6496  1.0521  0.4855
19411TIP3    H279725   2.832   5.830  11.186 -1.4801 -0.2833 -1.5121
19412TIP3   OH279726   2.688   4.219  11.609 -0.5891  0.1807 -0.3973
19412TIP3    H179727   2.721   4.218  11.699  1.2784  1.0250 -1.0285
19412TIP3    H279728   2.593   4.210  11.619 -0.4758  0.6859  1.6888
19413TIP3   OH279729   3.795   1.481   4.945 -0.0777  0.1694  0.7999
19413TIP3    H179730   3.704   1.470   4.918  0.1525  0.7393 -0.2691
19413TIP3    H279731   3.832   1.392   4.942 -0.2920  0.0942  0.0520
19414TIP3   OH279732   5.398   0.500   0.803  0.1914  0.2350 -0.4441
19414TIP3    H179733   5.428   0.421   0.847  0.2096  1.4878  1.9725
19414TIP3    H279734   5.305   0.485   0.788  0.3949 -0.6143 -0.9238
19415TIP3   OH279735   2.173   3.136  16.123 -0.0208 -0.3014  0.9719
19415TIP3    H179736   2.160   3.060  16.180 -0.2056 -1.3593 -0.4152
19415TIP3    H279737   2.268   3.140  16.110 -0.0017 -0.2227  1.1323
19416TIP3   OH279738   1.237   0.791   5.585  0.1103  0.0960  0.4743
19416TIP3    H179739   1.159   0.807   5.532  1.3675  0.7367 -1.2879
19416TIP3    H279740   1.206   0.793   5.676 -1.6971  1.6544 -0.1190
19417TIP3   OH279741   2.708   0.225  16.228  0.2876  0.2920  0.8101
19417TIP3    H179742   2.769   0.291  16.195 -0.4963  0.8717  0.4912
19417TIP3    H279743   2.674   0.181  16.150  1.8428 -1.4807  1.0668
19418TIP3   OH279744   4.239   1.457  11.714 -0.2248 -0.1382 -0.7721
19418TIP3    H179745   4.241   1.486  11.805  4.6268 -0.1655 -0.6108
19418TIP3    H279746   4.217   1.536  11.664  0.4597  0.7484  0.2954
19419TIP3   OH279747   4.184   1.212  14.745  0.5325 -0.0065  0.0686
19419TIP3    H179748   4.225   1.158  14.679 -1.8353 -1.7271 -0.1293
19419TIP3    H279749   4.171   1.154  14.820 -1.1361  0.5301  0.2407
19420TIP3   OH279750   2.193   2.082   5.333  0.1474  0.7388 -0.6160
19420TIP3    H179751   2.264   2.025   5.303 -1.6722 -1.9639 -0.1897
19420TIP3    H279752   2.144   2.103   5.253  0.2746  0.9209 -0.6474
19421TIP3   OH279753   4.193   0.256  13.940  0.1161 -0.4482 -0.1236
19421TIP3    H179754   4.249   0.251  14.017  0.5095  0.4069 -0.3432
19421TIP3    H279755   4.115   0.303  13.969 -0.6735 -1.9212  0.2679
19422TIP3   OH279756   1.962   3.239  12.828 -0.1553  0.3930 -0.3457
19422TIP3    H179757   1.881   3.194  12.805 -0.3412  0.7746 -0.4394
19422TIP3    H279758   1.933   3.316  12.878  0.1691  0.3119 -0.0245
19423TIP3   OH279759   5.395   3.605   4.898 -0.4331 -0.6439  0.0841
19423TIP3    H179760   5.432   3.556   4.825  0.7134 -0.2434  0.3606
19423TIP3    H279761   5.315   3.558   4.921 -0.4289 -1.1937 -0.9480
19424TIP3   OH279762   0.830   5.896  13.294  0.0765 -0.0212  0.4521
19424TIP3    H179763   0.775   5.820  13.311  1.0548 -0.4696  1.7433
19424TIP3    H279764   0.920   5.865  13.308  0.5130  1.2768  0.6826
19425TIP3   OH279765   4.918   4.384  13.535 -0.2399  0.5972  0.5706
19425TIP3    H179766   5.012   4.387  13.554 -0.1591  1.7606  0.0778
19425TIP3    H279767   4.877   4.421  13.613 -0.2246  0.9244  0.4255
19426TIP3   OH279768   4.179   2.560  13.242  0.1035 -0.7751 -0.4703
19426TIP3    H179769   4.257   2.609  13.214  0.1208  0.4705  1.5028
19426TIP3    H279770   4.128   2.548  13.162  1.3172  0.2835 -1.4575
19427TIP3   OH279771   4.611   4.482   1.252  0.6792 -0.2675  0.2139
19427TIP3    H179772   4.657   4.510   1.331 -0.4652  0.4124  0.6633
19427TIP3    H279773   4.525   4.525   1.258 -0.7510 -2.9648  0.3477
19428TIP3   OH279774   3.558   0.371  17.063  0.2070 -0.5612 -0.2939
19428TIP3    H179775   3.528   0.448  17.112  0.4775 -1.7701  1.8438
19428TIP3    H279776   3.650   0.361  17.088 -0.4065 -2.8922  1.3131
19429TIP3   OH279777   1.630   6.612  14.473  0.0108 -0.6747 -0.7668
19429TIP3    H179778   1.565   6.618  14.543  0.3584 -0.6776 -0.4420
19429TIP3    H279779   1.627   6.521  14.445 -1.0966 -0.3794 -1.6933
19430TIP3   OH279780   1.085   3.590   1.010 -1.0025 -0.0328  0.4360
19430TIP3    H179781   1.168   3.579   0.964 -1.0258  1.1484  0.0688
19430TIP3    H279782   1.043   3.504   1.006  0.9360 -1.1340  2.1174
19431TIP3   OH279783   4.114   5.682  11.613 -0.1765  0.5526 -0.9188
19431TIP3    H179784   4.119   5.597  11.570  1.1701  0.3780 -0.4633
19431TIP3    H279785   4.181   5.735  11.570  0.3825  0.7375  0.1359
19432TIP3   OH279786   6.091   2.547   3.320 -0.0371 -0.5571  0.1767
19432TIP3    H179787   6.001   2.530   3.349 -0.0775 -0.6682 -0.0131
19432TIP3    H279788   6.138   2.466   3.336 -0.2190 -0.8382 -0.6822
19433TIP3   OH279789   4.147   3.921   4.054 -0.1703  0.0323  0.5370
19433TIP3    H179790   4.158   3.844   3.997 -1.3776 -0.4577  0.9304
19433TIP3    H279791   4.054   3.919   4.079  0.6550 -0.9274  4.1081
19434TIP3   OH279792   6.302   4.086  10.906 -0.2220 -0.2992  0.2693
19434TIP3    H179793   6.375   4.128  10.952 -0.1064 -0.5803  0.3436
19434TIP3    H279794   6.224   4.116  10.952 -0.1585  0.0416  0.1613
19435TIP3   OH279795   0.757   3.247  11.915  0.9631  0.4657  0.2376
19435TIP3    H179796   0.708   3.173  11.880 -0.1181  1.1154  0.3051
19435TIP3    H279797   0.817   3.273  11.845 -0.6362  1.2714 -0.8892
19436TIP3   OH279798   5.153   0.291   4.058 -0.1567 -0.6330  0.0832
19436TIP3    H179799   5.121   0.300   4.148  0.2709  0.3038  0.1607
19436TIP3    H279800   5.143   0.379   4.020  0.1562 -0.8856 -0.6115
19437TIP3   OH279801   1.371   5.511   3.919 -0.6447 -0.4087  0.5329
19437TIP3    H179802   1.321   5.475   3.845 -0.6078 -0.3316  0.4703
19437TIP3    H279803   1.395   5.599   3.890  0.7730 -0.9597 -0.0390
19438TIP3   OH279804   6.310   4.789  11.896 -0.0851 -0.3260  0.4844
19438TIP3    H179805   6.308   4.864  11.836  2.3059 -1.0493 -0.6169
19438TIP3    H279806   6.384   4.806  11.954  0.8696 -2.0159 -0.1400
19439TIP3   OH279807   6.350   2.944   5.704 -0.3783  0.2869  0.9510
19439TIP3    H179808   6.356   2.850   5.691 -1.9097  0.4047 -0.9789
19439TIP3    H279809   6.346   2.981   5.616 -1.4051  2.0227  1.6713
19440TIP3   OH279810   5.571   2.390   4.495  0.2853 -0.4275  0.5113
19440TIP3    H179811   5.550   2.303   4.527 -1.2014  0.0687  0.9709
19440TIP3    H279812   5.565   2.383   4.399 -1.1319 -0.5384  0.5946
19441TIP3   OH279813   3.360   6.681  12.901  0.9700  0.3023 -0.0315
19441TIP3    H179814   3.420   6.623  12.853  0.1689  0.3017 -1.0676
19441TIP3    H279815   3.370   6.655  12.992  1.6551 -0.5236 -0.3259
19442TIP3   OH279816   4.235   5.959   4.929 -0.3638  0.1213 -0.1578
19442TIP3    H179817   4.290   6.030   4.894  0.8729  0.6222  2.5736
19442TIP3    H279818   4.161   6.004   4.968  0.1931 -0.0815  1.1783
19443TIP3   OH279819   1.404   5.844   2.259  0.4222 -0.0555 -0.2338
19443TIP3    H179820   1.475   5.842   2.195 -0.4358 -0.0919 -1.2014
19443TIP3    H279821   1.385   5.752   2.278  0.8182 -0.0436  0.2534
19444TIP3   OH279822   5.702   2.494   6.527  0.5438  0.1481 -0.3707
19444TIP3    H179823   5.632   2.517   6.467 -0.2732  1.5757  1.0565
19444TIP3    H279824   5.658   2.455   6.602  1.4636 -0.7795 -0.2879
19445TIP3   OH279825   6.638   1.078  11.519 -0.5257  0.8663  0.3510
19445TIP3    H179826   6.612   1.148  11.578  0.7870 -0.3209  2.4558
19445TIP3    H279827   6.723   1.104  11.485  0.6312 -0.2276  2.2263
19446TIP3   OH279828   1.455   0.942   1.867 -0.0978 -0.1688 -0.1618
19446TIP3    H179829   1.390   0.932   1.937 -0.6290  1.2746 -0.4277
19446TIP3    H279830   1.526   0.992   1.908 -0.1934  0.2605 -0.5230
19447TIP3   OH279831   2.193   2.127   1.616  0.2479 -0.3786 -0.2481
19447TIP3    H179832   2.189   2.137   1.711 -2.5013  1.2662 -0.4306
19447TIP3    H279833   2.241   2.204   1.585 -0.0468 -0.1944 -0.2529
19448TIP3   OH279834   2.232   2.709   3.954  0.3593 -0.6202 -0.6510
19448TIP3    H179835   2.321   2.709   3.989  0.3918 -0.7279 -0.7329
19448TIP3    H279836   2.178   2.738   4.027  0.3545 -1.4568 -0.3082
19449TIP3   OH279837   5.601   2.403  11.473  0.1852  0.4674  0.2264
19449TIP3    H179838   5.601   2.492  11.506  0.6143  1.6753 -2.7015
19449TIP3    H279839   5.552   2.408  11.390 -1.0311 -2.3264  0.6702
19450TIP3   OH279840   3.524   6.534   2.327  0.2859  0.0631  0.3708
19450TIP3    H179841   3.547   6.467   2.391  0.5495  1.4948  1.8568
19450TIP3    H279842   3.486   6.486   2.254  0.0206 -1.6486  1.5690
19451TIP3   OH279843   5.145   2.531  15.315 -0.5944  0.1724 -0.4030
19451TIP3    H179844   5.237   2.538  15.288 -0.5674  1.4145 -0.0470
19451TIP3    H279845   5.147   2.475  15.393  0.0297  1.2121  0.3470
19452TIP3   OH279846   5.770   3.984  13.402 -0.5514  0.2837  0.0209
19452TIP3    H179847   5.805   3.906  13.360 -3.1997 -1.2188  0.3766
19452TIP3    H279848   5.701   4.015  13.343 -1.0944  0.9714  0.9744
19453TIP3   OH279849   4.046   5.072  14.241 -0.5744  0.3602  0.1939
19453TIP3    H179850   4.127   5.021  14.233 -0.8631  0.0763 -1.0560
19453TIP3    H279851   4.076   5.157  14.274 -0.0103 -0.3555  1.6187
19454TIP3   OH279852   0.299   0.804  16.978 -0.3264  0.7962 -0.1719
19454TIP3    H179853   0.229   0.739  16.971  1.2092 -0.8333 -1.2725
19454TIP3    H279854   0.298   0.831  17.070 -0.6988 -1.1770  0.4541
19455TIP3   OH279855   6.237   5.599  15.405 -0.3033  0.0955  0.2811
19455TIP3    H179856   6.293   5.542  15.351 -0.4873 -1.7732  1.9425
19455TIP3    H279857   6.270   5.687  15.389 -0.0806 -0.3993 -2.5265
19456TIP3   OH279858   4.837   0.341  16.997 -0.0371  0.5282  0.6411
19456TIP3    H179859   4.912   0.395  16.973 -0.6304  0.8171 -0.6915
19456TIP3    H279860   4.863   0.297  17.078  1.5327  0.6524  0.2302
19457TIP3   OH279861   1.678   6.768  13.372 -0.3057 -0.1661  0.2829
19457TIP3    H179862   1.596   6.771  13.422 -0.1614  2.8229  0.5227
19457TIP3    H279863   1.650   6.752  13.281 -1.0404 -0.3182  0.5304
19458TIP3   OH279864   1.345   4.846   1.098  0.7070  0.2186  0.3786
19458TIP3    H179865   1.299   4.883   1.023  1.4812 -0.1964 -0.3223
19458TIP3    H279866   1.412   4.911   1.120  0.3896  0.4014  0.7927
19459TIP3   OH279867   1.173   6.681   5.818 -0.1262 -0.2489  0.6958
19459TIP3    H179868   1.178   6.714   5.908 -3.2173  2.5908  0.0096
19459TIP3    H279869   1.111   6.608   5.823 -0.4462  0.0293  0.8804
19460TIP3   OH279870   2.044   5.060   0.835  0.3106  0.1327 -0.4033
19460TIP3    H179871   2.035   5.084   0.928  2.8810 -0.1166 -0.0244
19460TIP3    H279872   2.019   5.140   0.788 -0.2340  0.5266  0.5224
19461TIP3   OH279873   5.590   1.062   3.424 -0.2574 -0.0847 -0.0343
19461TIP3    H179874   5.655   1.132   3.425 -1.4517  1.0786  1.3684
19461TIP3    H279875   5.605   1.016   3.342  0.2121  2.1453 -1.2735
19462TIP3   OH279876   6.701   1.808   5.567 -0.0810 -0.4163 -1.1207
19462TIP3    H179877   6.648   1.884   5.546 -1.8043 -1.3720 -0.4598
19462TIP3    H279878   6.712   1.812   5.662 -1.2410 -1.5942 -0.9040
19463TIP3   OH279879   5.873   3.143   3.391 -0.1344  0.4443 -0.7049
19463TIP3    H179880   5.965   3.147   3.366  0.0957  1.8360  0.2583
19463TIP3    H279881   5.832   3.216   3.344 -0.9223 -0.6336 -1.7386
19464TIP3   OH279882   2.299   6.133   1.584  0.0684  0.7663 -0.5268
19464TIP3    H179883   2.290   6.184   1.504 -0.3190 -1.1838 -1.7791
19464TIP3    H279884   2.388   6.153   1.615 -0.8178  3.8738  0.2986
19465TIP3   OH279885   1.409   1.097   3.196  0.0276  0.3119 -0.8411
19465TIP3    H179886   1.436   1.080   3.106  0.8438 -1.0522 -0.3633
19465TIP3    H279887   1.463   1.038   3.249  0.7997  2.2918  0.6984
19466TIP3   OH279888   0.086   4.814   2.601  0.1209  0.2892 -0.3371
19466TIP3    H179889   0.158   4.751   2.600  0.4281  0.6431 -1.6496
19466TIP3    H279890   0.081   4.848   2.512 -2.1620 -0.2636 -0.4951
19467TIP3   OH279891   1.597   2.815  11.587 -0.4151  0.1167 -0.0841
19467TIP3    H179892   1.605   2.874  11.513 -1.0479  1.0166  0.5432
19467TIP3    H279893   1.506   2.824  11.616  0.1926  0.9840  1.7477
19468TIP3   OH279894   4.449   5.611  13.352 -0.0283  0.0612 -0.0402
19468TIP3    H179895   4.484   5.573  13.272  1.5077  1.9452 -0.3316
19468TIP3    H279896   4.418   5.535  13.403  0.8355 -1.3449 -1.5133
19469TIP3   OH279897   3.478   0.691  15.351 -0.0516  0.0348 -0.2482
19469TIP3    H179898   3.436   0.605  15.343  0.1294 -0.0611 -0.1552
19469TIP3    H279899   3.423   0.739  15.413  0.1460 -0.1953  0.1035
19470TIP3   OH279900   6.597   5.376  14.104  0.0075 -0.7905 -0.0666
19470TIP3    H179901   6.643   5.292  14.095  1.5154  0.1876 -2.0644
19470TIP3    H279902   6.512   5.352  14.142  0.9808 -3.0222  0.8956
19471TIP3   OH279903   0.389   3.552  10.243 -0.2064 -0.2271 -0.6656
19471TIP3    H179904   0.318   3.596  10.288  0.0980  0.4386 -0.8196
19471TIP3    H279905   0.370   3.459  10.253  0.2612 -0.1427  1.5059
19472TIP3   OH279906   1.704   3.386   1.615 -0.3349  0.6397  0.0852
19472TIP3    H179907   1.658   3.303   1.626 -0.5734  0.6612 -0.6596
19472TIP3    H279908   1.643   3.442   1.566  0.9016  0.2356 -2.0747
19473TIP3   OH279909   4.765   6.134  12.397  0.4813 -0.7555  0.6504
19473TIP3    H179910   4.705   6.132  12.322 -0.4032 -1.1063  1.3538
19473TIP3    H279911   4.757   6.047  12.437 -0.1006 -0.1393  1.9424
19474TIP3   OH279912   3.686   0.453   1.068 -0.0090 -0.4044  0.2609
19474TIP3    H179913   3.629   0.394   1.118 -0.2416 -0.4679 -0.0770
19474TIP3    H279914   3.659   0.541   1.094  1.1642 -0.4168  1.7167
19475TIP3   OH279915   0.666   2.071   5.850  0.0005  0.3108 -0.4430
19475TIP3    H179916   0.702   2.050   5.936 -0.2541  0.2998 -0.3379
19475TIP3    H279917   0.630   2.159   5.860  2.4927  1.5417 -1.3147
19476TIP3   OH279918   0.791   1.288   0.254  0.3522 -0.3399 -0.0837
19476TIP3    H179919   0.717   1.310   0.311  1.0061 -0.0274  0.6665
19476TIP3    H279920   0.857   1.252   0.313  1.4378  0.9334 -0.4644
19477TIP3   OH279921   6.717   3.619  12.504  0.3948 -0.0443 -0.1824
19477TIP3    H179922   6.650   3.687  12.500 -0.3743 -0.6712  1.1960
19477TIP3    H279923   6.786   3.649  12.444 -0.9991  0.7261 -1.4592
19478TIP3   OH279924   2.348   5.282   1.429  0.3530  0.0779  0.2729
19478TIP3    H179925   2.266   5.323   1.405 -0.4420 -2.3977 -1.6946
19478TIP3    H279926   2.416   5.342   1.398 -0.7232  0.6900 -0.9377
19479TIP3   OH279927   0.254   1.504   4.309  0.1176 -0.5818  0.0986
19479TIP3    H179928   0.322   1.492   4.375 -2.6211  1.2466  3.6247
19479TIP3    H279929   0.179   1.454   4.342 -0.8960 -1.0980 -2.6872
19480TIP3   OH279930   3.509   1.676  15.442  0.1088 -0.1468  0.2212
19480TIP3    H179931   3.558   1.662  15.361 -2.1871  0.2324 -1.3555
19480TIP3    H279932   3.541   1.759  15.476  0.2747  0.2997 -0.9819
19481TIP3   OH279933   0.830   4.855  15.564 -0.6133  0.3578  0.1501
19481TIP3    H179934   0.816   4.800  15.641 -0.3017 -0.0139 -0.0545
19481TIP3    H279935   0.926   4.862  15.556 -0.6369  0.1983 -0.3375
19482TIP3   OH279936   5.110   5.613  13.767  0.4380  0.0177  0.6454
19482TIP3    H179937   5.016   5.612  13.788  0.6012 -1.6602  1.4588
19482TIP3    H279938   5.147   5.680  13.825 -0.6196  2.9199 -1.7631
19483TIP3   OH279939   0.185   1.934   2.593  0.0119 -0.3707 -0.6288
19483TIP3    H179940   0.148   2.023   2.591  0.0634 -0.3379 -0.2234
19483TIP3    H279941   0.108   1.877   2.598 -0.0067 -0.3272 -0.3978
19484TIP3   OH279942   0.178   3.015   5.374 -0.2544 -0.0316 -0.2848
19484TIP3    H179943   0.236   3.008   5.450  1.1076 -2.4216 -1.4383
19484TIP3    H279944   0.232   3.058   5.307 -0.5414 -0.3076 -0.6945
19485TIP3   OH279945   5.997   3.964   3.376  0.0691  0.1281  0.3112
19485TIP3    H179946   5.907   3.932   3.372  0.6821 -1.5358 -1.8312
19485TIP3    H279947   6.017   3.990   3.286  1.9345 -0.1265  0.6175
19486TIP3   OH279948   4.617   6.257  16.959  0.0289  0.1442 -0.6168
19486TIP3    H179949   4.573   6.178  16.991  1.2021  0.2315  1.3372
19486TIP3    H279950   4.581   6.328  17.011 -0.2302  0.7733 -1.6215
19487TIP3   OH279951   1.609   1.935   4.174  0.6643  0.7884  0.0178
19487TIP3    H179952   1.670   1.866   4.146 -0.7882 -0.8652  0.7409
19487TIP3    H279953   1.623   1.943   4.268 -2.2416 -1.8874  0.8568
19488TIP3   OH279954   3.025   3.723  14.467  0.2565  0.1031  0.3487
19488TIP3    H179955   3.089   3.735  14.398 -1.8868  0.2572 -1.7308
19488TIP3    H279956   2.957   3.668  14.428 -0.3284 -1.1498  2.8561
19489TIP3   OH279957   5.896   2.304  14.344  0.3034  0.2763  0.4183
19489TIP3    H179958   5.862   2.219  14.314  1.1672 -0.5401  1.6353
19489TIP3    H279959   5.823   2.345  14.389 -0.0752  0.1105 -0.0338
19490TIP3   OH279960   6.541   0.415   4.978  0.3759  0.2631 -1.0547
19490TIP3    H179961   6.505   0.503   4.994 -1.1274 -0.3454 -1.0151
19490TIP3    H279962   6.585   0.393   5.060 -0.7342  0.2795 -0.4430
19491TIP3   OH279963   1.682   6.024   0.763  0.1098  0.2685 -0.1109
19491TIP3    H179964   1.749   6.035   0.830  0.5299 -0.6857 -0.3570
19491TIP3    H279965   1.731   6.005   0.683 -0.4114  0.8085 -0.5703
19492TIP3   OH279966   6.805   6.812   0.031 -0.0136 -0.0055  0.2329
19492TIP3    H179967   6.733   6.837  -0.027  1.1611  0.1488 -1.2041
19492TIP3    H279968   6.797   6.717   0.040  0.8622 -0.3163 -1.7477
19493TIP3   OH279969   2.130   5.251   4.582  0.1758 -0.0141 -0.1311
19493TIP3    H179970   2.160   5.269   4.493  1.0163  0.2154  0.1934
19493TIP3    H279971   2.210   5.252   4.635 -0.2593 -0.5962  0.5550
19494TIP3   OH279972   2.078   2.910  11.321 -0.5721 -0.2571 -0.0476
19494TIP3    H179973   2.025   2.897  11.400 -2.2753  0.2938 -1.0467
19494TIP3    H279974   2.156   2.955  11.352 -1.1757 -0.0927  1.3299
19495TIP3   OH279975   0.041   6.283  17.039  0.4452  0.3476  0.1076
19495TIP3    H179976  -0.001   6.366  17.016  0.2142 -0.1103 -1.1747
19495TIP3    H279977   0.131   6.307  17.061  0.0959  1.0608  0.8308
19496TIP3   OH279978   3.075   6.007   0.641 -0.1689 -0.2138  0.1490
19496TIP3    H179979   3.166   5.979   0.636  1.0382  2.7500  2.4503
19496TIP3    H279980   3.027   5.943   0.588  2.8837 -3.2323  0.6801
19497TIP3   OH279981   0.230   3.466  16.386 -0.0590  0.1794 -0.4030
19497TIP3    H179982   0.208   3.547  16.432 -0.3557 -0.3618  0.4290
19497TIP3    H279983   0.316   3.482  16.348  0.3595  0.5177  0.6561
19498TIP3   OH279984   1.650   5.172  14.323  0.1635  0.6363 -0.1052
19498TIP3    H179985   1.693   5.213  14.398  1.9367  0.0390 -0.7627
19498TIP3    H279986   1.721   5.142  14.267 -1.0739 -1.3803 -0.7189
19499TIP3   OH279987   3.207   5.335   2.320  0.4240 -0.2080 -0.1590
19499TIP3    H179988   3.250   5.270   2.264  0.0934  0.9998 -1.9003
19499TIP3    H279989   3.272   5.405   2.328  0.1733 -0.0322  0.3362
19500TIP3   OH279990   2.446   5.135   5.572 -0.2077 -0.1745 -0.3912
19500TIP3    H179991   2.383   5.063   5.574 -2.0974  1.2963  3.8782
19500TIP3    H279992   2.392   5.214   5.560  1.0623  0.9319  0.8535
19501TIP3   OH279993   1.466   3.044  14.537 -0.1550 -0.1484  0.4349
19501TIP3    H179994   1.419   3.112  14.488 -0.1523  0.6740  1.5464
19501TIP3    H279995   1.397   2.990  14.576 -0.1571 -0.7818 -0.4200
19502TIP3   OH279996   5.592   0.267  12.838 -0.0990  0.4262 -0.0470
19502TIP3    H179997   5.533   0.193  12.850  0.5795 -0.1601 -0.2939
19502TIP3    H279998   5.597   0.308  12.924 -0.8599  0.4827 -0.0203
19503TIP3   OH279999   6.158   5.549  17.298  0.5433 -0.1407 -0.5743
19503TIP3    H180000   6.120   5.584  17.378 -0.2188  0.9871 -1.3959
19503TIP3    H280001   6.172   5.456  17.316 -0.9799 -0.2140  0.3676
19504TIP3   OH280002   3.438   3.402   2.446 -0.8187 -0.2074  0.5173
19504TIP3    H180003   3.402   3.324   2.404 -1.4399 -0.0875  0.8079
19504TIP3    H280004   3.374   3.470   2.428 -0.1647  0.2981  0.0682
19505TIP3   OH280005   6.191   2.652   2.511 -0.3567 -0.7635 -0.2884
19505TIP3    H180006   6.184   2.602   2.592  0.4549 -1.5335 -0.6727
19505TIP3    H280007   6.140   2.731   2.527  1.7101  0.2757  1.8925
19506TIP3   OH280008   3.868   1.353   0.233 -0.5168  0.3378  0.1806
19506TIP3    H180009   3.870   1.435   0.283  1.1560  0.4077  0.0558
19506TIP3    H280010   3.945   1.358   0.177 -0.6327 -1.1356 -0.1366
19507TIP3   OH280011   3.179   1.672  14.570  0.4031  0.9355  0.8887
19507TIP3    H180012   3.185   1.585  14.609 -2.4132  0.6323  0.8633
19507TIP3    H280013   3.226   1.664  14.487  0.3582 -0.5181  0.9760
19508TIP3   OH280014   3.228   5.571  13.063 -0.0144  0.0228  0.6039
19508TIP3    H180015   3.170   5.594  13.135 -0.6228 -2.4889  1.0305
19508TIP3    H280016   3.219   5.476  13.054  1.7939 -0.0623 -1.2875
19509TIP3   OH280017   4.749   1.412   4.877 -0.3841 -0.3337  0.2157
19509TIP3    H180018   4.736   1.503   4.850  0.7384 -0.3215 -0.3394
19509TIP3    H280019   4.802   1.374   4.807  0.9788 -0.8308  1.4824
19510TIP3   OH280020   6.492   2.729   4.460 -0.1208  0.2071  0.5422
19510TIP3    H180021   6.419   2.679   4.497  0.8531 -0.7877  1.1809
19510TIP3    H280022   6.498   2.698   4.370  0.0176 -0.3159  0.7259
19511TIP3   OH280023   1.132   2.332   5.194 -0.1222 -0.1151 -0.4366
19511TIP3    H180024   1.226   2.341   5.177 -0.1817  0.8856 -0.3105
19511TIP3    H280025   1.095   2.416   5.166 -1.0227 -0.6043 -0.7559
19512TIP3   OH280026   1.385   4.572   3.780 -0.4963 -0.4278 -0.1170
19512TIP3    H180027   1.374   4.605   3.869 -0.0766  0.9284 -0.5480
19512TIP3    H280028   1.304   4.525   3.762 -0.1896 -1.5908  1.3182
19513TIP3   OH280029   1.744   3.963   2.125 -0.0513  0.2196 -0.3072
19513TIP3    H180030   1.798   3.928   2.196 -2.3045 -0.2389  1.2702
19513TIP3    H280031   1.711   3.886   2.080 -1.5516  0.3723  0.4742
19514TIP3   OH280032   2.677   0.985  12.421 -0.1786  0.0151  0.1185
19514TIP3    H180033   2.737   0.920  12.457 -0.0814  0.3000  0.4734
19514TIP3    H280034   2.729   1.033  12.357 -0.4686 -0.7751 -0.7413
19515TIP3   OH280035   6.605   5.956   0.769 -0.0607 -0.4286 -0.9651
19515TIP3    H180036   6.541   5.930   0.703  0.5021 -0.6667 -1.4216
19515TIP3    H280037   6.679   5.992   0.719 -0.2614  0.8176 -0.4041
19516TIP3   OH280038   2.541   1.937   0.388  0.2609  0.0149  0.3650
19516TIP3    H180039   2.599   2.014   0.384  1.8449 -1.1719 -1.1778
19516TIP3    H280040   2.552   1.895   0.302 -0.3974 -2.0442  1.2340
19517TIP3   OH280041   5.081   5.675   3.529 -0.3117  0.2775  0.6079
19517TIP3    H180042   5.141   5.711   3.595  0.2296  0.2904  0.1143
19517TIP3    H280043   5.003   5.729   3.536  0.6463  1.8555 -0.4144
19518TIP3   OH280044   1.239   1.038   4.080 -0.3004 -0.5343  0.0934
19518TIP3    H180045   1.225   1.043   3.986 -0.3001  0.6834  0.1368
19518TIP3    H280046   1.152   1.051   4.118 -0.2645 -0.7840  0.2643
19519TIP3   OH280047   3.789   4.141   2.783 -0.1018  0.3114 -0.3884
19519TIP3    H180048   3.708   4.191   2.792  0.2336  0.8199 -0.1030
19519TIP3    H280049   3.813   4.118   2.873 -0.7499 -1.1911 -0.5820
19520TIP3   OH280050   1.793   4.497  14.728 -0.3422 -0.2802  0.0630
19520TIP3    H180051   1.822   4.439  14.658 -0.5839 -0.6223  0.2428
19520TIP3    H280052   1.844   4.577  14.716 -0.6686 -0.1813 -0.7537
19521TIP3   OH280053   0.044   5.200  16.999 -0.0915  0.0775 -0.1568
19521TIP3    H180054   0.104   5.264  17.038  0.0684  0.0399 -0.3405
19521TIP3    H280055   0.101   5.128  16.971 -0.2934 -0.2404  0.2407
19522TIP3   OH280056   6.428   4.785  13.279  0.3542 -0.7420  0.5861
19522TIP3    H180057   6.464   4.799  13.191 -0.7585 -1.0496  0.0569
19522TIP3    H280058   6.500   4.745  13.328  0.7658 -1.2970 -0.4150
19523TIP3   OH280059   1.131   2.783  14.406 -0.0465  0.2575  0.0447
19523TIP3    H180060   1.205   2.729  14.379  0.5418  0.1417  1.7825
19523TIP3    H280061   1.054   2.735  14.375  0.5383 -0.4929 -0.2721
19524TIP3   OH280062   3.926   4.182  14.405 -0.3422  0.1545 -0.4007
19524TIP3    H180063   4.001   4.241  14.406 -0.3752  0.2210  1.2171
19524TIP3    H280064   3.945   4.118  14.473  0.9843 -3.5114 -3.8373
19525TIP3   OH280065   6.634   2.102  15.962  0.7691  0.6850 -0.3831
19525TIP3    H180066   6.716   2.141  15.993 -0.3295  1.6610  1.5170
19525TIP3    H280067   6.568   2.169  15.980 -0.5192 -0.2681 -1.4034
19526TIP3   OH280068   0.313   4.670   4.630  0.4437 -0.8022  0.5083
19526TIP3    H180069   0.234   4.619   4.647 -0.2240  0.2754  0.7141
19526TIP3    H280070   0.375   4.640   4.697  0.4907 -2.1816 -0.1148
19527TIP3   OH280071   3.209   6.773  10.613  0.3133  0.6955 -0.2396
19527TIP3    H180072   3.139   6.774  10.678 -0.3345  0.6765 -0.9280
19527TIP3    H280073   3.265   6.847  10.638  0.9443 -0.2360  1.2500
19528TIP3   OH280074   2.483   6.048  11.290 -0.0916  0.3103 -0.4184
19528TIP3    H180075   2.487   5.998  11.208 -1.5189 -0.0280 -0.3096
19528TIP3    H280076   2.403   6.100  11.282  1.1709  2.3744 -0.3842
19529TIP3   OH280077   4.234   6.700  17.034  0.9616  0.1489 -0.0708
19529TIP3    H180078   4.222   6.606  17.026  1.3801 -0.0081  1.0416
19529TIP3    H280079   4.221   6.733  16.945 -2.2165 -0.5940 -0.0053
19530TIP3   OH280080   3.659   4.667  17.314 -0.0280 -0.5227  0.6055
19530TIP3    H180081   3.595   4.697  17.250 -0.5579 -0.9256  0.9408
19530TIP3    H280082   3.635   4.712  17.395 -0.3405 -1.2399  0.9147
19531TIP3   OH280083   6.385   3.776   4.292  0.1339 -0.2839  0.1899
19531TIP3    H180084   6.322   3.739   4.354  1.4781  2.4421  3.5450
19531TIP3    H280085   6.468   3.736   4.317  0.3600 -1.0864 -1.7082
19532TIP3   OH280086   1.514   2.055  17.066  0.1511  0.3889  0.0107
19532TIP3    H180087   1.487   1.969  17.033  3.0452 -1.0272  0.9973
19532TIP3    H280088   1.516   2.110  16.988 -3.0641  0.0580 -0.4579
19533TIP3   OH280089   2.203   4.033  13.311  0.3914 -0.4414  0.9353
19533TIP3    H180090   2.158   4.109  13.277 -2.7973 -1.7361  1.9264
19533TIP3    H280091   2.263   4.068  13.377  1.6105  1.4095 -1.0135
19534TIP3   OH280092   0.433   1.265  11.173  0.4579  0.4760  0.0051
19534TIP3    H180093   0.399   1.335  11.229  0.6207  0.4785  0.1036
19534TIP3    H280094   0.507   1.306  11.127  0.3286  0.4723 -0.2068
19535TIP3   OH280095   3.718   5.411   5.666 -0.7883 -0.2662  0.2986
19535TIP3    H180096   3.778   5.345   5.700  1.3968  2.3185  1.8504
19535TIP3    H280097   3.763   5.448   5.590 -0.7490  1.1212  0.9656
19536TIP3   OH280098   4.859   3.040  15.176  0.5814 -0.2488 -0.4100
19536TIP3    H180099   4.936   3.027  15.121  0.0990  0.7101 -1.3415
19536TIP3    H280100   4.885   3.108  15.238  0.6635 -0.3202 -0.3660
19537TIP3   OH280101   6.173   3.931  14.147 -0.2933 -0.1617 -0.3664
19537TIP3    H180102   6.113   4.005  14.149  1.5368  1.3928  0.7241
19537TIP3    H280103   6.235   3.952  14.077  1.3688  0.3698  1.1781
19538TIP3   OH280104   4.118   1.529  17.048  0.0463 -0.3439  0.0075
19538TIP3    H180105   4.152   1.447  17.085  0.6122  0.1721  0.6544
19538TIP3    H280106   4.023   1.519  17.052  0.0996 -0.5616  1.0471
19539TIP3   OH280107   2.223   0.643  12.709 -0.0512  0.5661  0.0859
19539TIP3    H180108   2.173   0.580  12.762  0.7840  1.0346  1.4736
19539TIP3    H280109   2.291   0.676  12.768  2.7251 -0.9321 -2.0448
19540TIP3   OH280110   4.552   4.815   5.247 -0.0844 -0.4783 -0.0348
19540TIP3    H180111   4.457   4.811   5.249 -0.0345 -1.9552  1.1112
19540TIP3    H280112   4.580   4.724   5.255  1.4220  0.0876  1.8752
19541TIP3   OH280113   6.297   5.026  15.916  0.8143  0.2360 -0.4497
19541TIP3    H180114   6.389   5.020  15.941  0.5310 -0.1764  0.5200
19541TIP3    H280115   6.249   4.986  15.988 -0.1824  1.1181 -0.5919
19542TIP3   OH280116   6.801   2.636  14.379  0.2422  0.0344 -0.5366
19542TIP3    H180117   6.825   2.565  14.439 -1.6969 -0.2654 -0.0519
19542TIP3    H280118   6.873   2.640  14.317  0.6942 -1.9751 -0.2170
19543TIP3   OH280119   6.036   0.359   1.806  0.4575 -0.1759 -0.8082
19543TIP3    H180120   5.986   0.438   1.789  1.1617  1.0738  2.2124
19543TIP3    H280121   5.972   0.297   1.841  0.2943 -0.1682 -1.0862
19544TIP3   OH280122   3.514   6.687  13.215  0.3869 -0.0885 -0.0995
19544TIP3    H180123   3.583   6.718  13.156 -0.8640  0.4743 -1.3106
19544TIP3    H280124   3.546   6.710  13.303  2.3253 -1.0290 -0.5119
19545TIP3   OH280125   3.483   3.950  11.352 -0.2840  0.5453 -0.1003
19545TIP3    H180126   3.499   3.995  11.269 -0.8798 -0.5415 -0.8221
19545TIP3    H280127   3.396   3.977  11.379 -0.3959  0.3094 -0.2215
19546TIP3   OH280128   6.415   0.350   1.216  0.1768 -0.1005  0.1639
19546TIP3    H180129   6.367   0.355   1.299  0.6940 -1.1651  0.5426
19546TIP3    H280130   6.397   0.434   1.173 -1.3990 -0.1695  0.6246
19547TIP3   OH280131   0.176   6.663   4.253  0.0722 -0.5091 -0.4747
19547TIP3    H180132   0.222   6.598   4.201  0.2516 -0.8353  0.0770
19547TIP3    H280133   0.242   6.697   4.313  0.0207  0.3094 -0.8743
19548TIP3   OH280134   1.147   2.735  13.251 -0.1162 -0.3276  0.1790
19548TIP3    H180135   1.142   2.733  13.155 -0.9903  0.2658  0.2073
19548TIP3    H280136   1.058   2.717  13.281  0.5127 -2.4165  0.9310
19549TIP3   OH280137   0.379   5.190   2.214  0.0984  0.2112 -0.2891
19549TIP3    H180138   0.309   5.126   2.202 -0.0654 -0.2177  2.3989
19549TIP3    H280139   0.459   5.139   2.206  0.1034  0.4144 -1.8190
19550TIP3   OH280140   1.138   5.977  10.827  0.2028 -0.0024  0.5594
19550TIP3    H180141   1.228   5.995  10.800 -0.2735  1.2939 -0.2525
19550TIP3    H280142   1.146   5.937  10.913  1.4941  1.4413  1.1546
19551TIP3   OH280143   6.568   1.860  14.842  0.4991  0.0439  0.4899
19551TIP3    H180144   6.601   1.947  14.865 -1.2806  1.0963 -0.6436
19551TIP3    H280145   6.598   1.845  14.753  0.7096 -0.4708  0.6415
19552TIP3   OH280146   0.938   1.368  12.856  0.0172 -0.1311 -0.3435
19552TIP3    H180147   1.026   1.367  12.892  0.2751  1.0967 -0.8760
19552TIP3    H280148   0.951   1.370  12.761 -0.6029 -0.7797 -0.4531
19553TIP3   OH280149   0.355   4.185   1.548  0.1825  0.2135 -0.1902
19553TIP3    H180150   0.265   4.203   1.520  0.0221 -1.2148 -0.6851
19553TIP3    H280151   0.364   4.233   1.630  0.4020  3.9174 -2.1473
19554TIP3   OH280152   4.303   5.799  16.430 -0.1938 -0.3201 -0.0568
19554TIP3    H180153   4.214   5.780  16.459 -0.7040  1.2692 -0.4882
19554TIP3    H280154   4.329   5.722  16.379 -1.8554 -0.2436 -1.0912
19555TIP3   OH280155   5.621   0.350   2.874  0.3921 -0.0138  0.3657
19555TIP3    H180156   5.678   0.331   2.799  0.2565  1.2078 -0.0686
19555TIP3    H280157   5.681   0.370   2.946  0.5371  1.1192 -0.0500
19556TIP3   OH280158   0.875   5.934  15.770 -0.2253 -0.4376  0.6104
19556TIP3    H180159   0.860   6.028  15.774  0.1951 -0.2513 -1.2501
19556TIP3    H280160   0.828   5.898  15.846  1.5074  1.4605  2.7129
19557TIP3   OH280161   5.169   6.663  13.781  0.1523 -0.3275  0.0164
19557TIP3    H180162   5.172   6.587  13.839  1.2694 -1.4141 -1.3824
19557TIP3    H280163   5.248   6.655  13.727 -0.1122  1.4150 -0.6893
19558TIP3   OH280164   4.115   2.746  16.383 -0.4611  0.3243 -0.2863
19558TIP3    H180165   4.197   2.703  16.360 -0.4151  0.1614  0.1858
19558TIP3    H280166   4.124   2.770  16.475 -1.3924 -0.7276  0.1029
19559TIP3   OH280167   5.427   2.134  12.108 -0.2999  0.0756  0.0905
19559TIP3    H180168   5.436   2.168  12.019 -0.7142  2.7108  0.9822
19559TIP3    H280169   5.515   2.139  12.146 -0.2761 -0.2930  0.0897
19560TIP3   OH280170   4.076   4.139   3.441  0.0358 -0.5431 -0.8266
19560TIP3    H180171   3.990   4.174   3.422  0.0301  0.4961  0.8866
19560TIP3    H280172   4.131   4.169   3.369 -0.5706  0.6646 -0.8056
19561TIP3   OH280173   3.303   2.196  16.061  0.1258  1.0450  0.4682
19561TIP3    H180174   3.284   2.182  15.968 -4.5445  0.6855  1.2320
19561TIP3    H280175   3.293   2.291  16.073  2.1446  1.3001  0.4526
19562TIP3   OH280176   0.353   2.047  17.278  0.2092 -0.1735 -0.3300
19562TIP3    H180177   0.345   1.979  17.344 -1.5028  0.2829 -0.0023
19562TIP3    H280178   0.431   2.024  17.227  1.9561 -0.1984  2.1973
19563TIP3   OH280179   6.686   5.605   3.808 -0.6819 -0.4597  0.0283
19563TIP3    H180180   6.744   5.542   3.851 -0.6139 -0.0117  0.5927
19563TIP3    H280181   6.731   5.629   3.728 -0.4934 -0.7795  0.0374
19564TIP3   OH280182   2.061   0.404   4.614 -0.0216  0.0007 -0.1569
19564TIP3    H180183   2.114   0.409   4.534 -0.9075  1.1429 -0.6933
19564TIP3    H280184   2.060   0.310   4.636  2.0353 -0.0971 -0.2209
19565TIP3   OH280185   4.273   3.864   4.756 -0.3901  0.0170  0.8057
19565TIP3    H180186   4.272   3.952   4.795  1.4338 -0.2211  1.5192
19565TIP3    H280187   4.246   3.806   4.827 -1.3472 -0.0331  0.4086
19566TIP3   OH280188   6.598   5.907  16.668 -0.2207 -0.3106  0.7999
19566TIP3    H180189   6.599   5.979  16.731  1.1561 -1.2032  1.8854
19566TIP3    H280190   6.678   5.920  16.617 -0.8657 -0.1046 -0.1630
19567TIP3   OH280191   6.479   6.476  13.452 -0.0690  0.2528  0.9465
19567TIP3    H180192   6.554   6.535  13.449  0.2272 -0.1375  0.4986
19567TIP3    H280193   6.423   6.505  13.380 -0.4185  0.6300  1.3642
19568TIP3   OH280194   4.052   3.109   2.400  0.2746 -0.0328  0.6296
19568TIP3    H180195   3.957   3.106   2.411  0.4118 -0.5442  1.9085
19568TIP3    H280196   4.080   3.177   2.462  0.7540 -0.0407  0.4227
19569TIP3   OH280197   1.217   0.724  11.045  0.3460 -0.0933 -0.8152
19569TIP3    H180198   1.138   0.758  11.088  0.0046 -3.5165  1.7142
19569TIP3    H280199   1.192   0.713  10.953 -0.6621  2.6527 -0.9585
19570TIP3   OH280200   0.260   3.986  13.824  0.1326 -0.5760  0.0463
19570TIP3    H180201   0.190   3.968  13.887  0.0256 -0.1579  0.0522
19570TIP3    H280202   0.323   4.038  13.873  0.2294 -0.5701 -0.0861
19571TIP3   OH280203   3.624   2.405  10.327  0.1584  0.4137 -0.5886
19571TIP3    H180204   3.661   2.318  10.335 -0.8118  0.1331  1.7408
19571TIP3    H280205   3.649   2.449  10.408 -0.6030  1.8068 -1.0691
19572TIP3   OH280206   0.575   0.663   1.122  0.3209 -0.3505  0.7608
19572TIP3    H180207   0.537   0.626   1.202  0.4921 -1.7107  0.2295
19572TIP3    H280208   0.499   0.698   1.075  0.2159  0.4468  1.4912
19573TIP3   OH280209   2.042   5.111   2.763 -0.3717  0.0080 -0.4640
19573TIP3    H180210   2.063   5.018   2.754  0.9654  0.2146  0.1800
19573TIP3    H280211   2.117   5.156   2.724 -0.9869  0.8201 -0.7320
19574TIP3   OH280212   6.541   3.215  17.098  0.3948 -0.0790 -0.0475
19574TIP3    H180213   6.547   3.122  17.079  1.9353  0.1628 -0.9912
19574TIP3    H280214   6.551   3.258  17.012  0.8200  0.9507  0.4878
19575TIP3   OH280215   2.108   5.290  11.982  1.0939 -0.1252  0.1280
19575TIP3    H180216   2.139   5.248  11.903 -0.2703 -0.9267 -0.0068
19575TIP3    H280217   2.123   5.225  12.051  1.1707  0.1003  0.3246
19576TIP3   OH280218   1.007   3.620  16.719  0.7311  0.5038  0.1437
19576TIP3    H180219   1.000   3.640  16.626  0.9741  1.1972  0.2649
19576TIP3    H280220   1.078   3.555  16.725 -0.4098 -0.8231 -0.3142
19577TIP3   OH280221   0.823   0.459  13.022 -0.2044 -0.4789  0.1799
19577TIP3    H180222   0.915   0.442  13.004  0.3401  0.3280  1.9461
19577TIP3    H280223   0.822   0.496  13.111 -2.1774 -0.0195  0.0240
19578TIP3   OH280224   1.842   3.707   2.667  0.5113  0.4969  0.0603
19578TIP3    H180225   1.860   3.620   2.632  0.0152  0.3610  0.1435
19578TIP3    H280226   1.747   3.717   2.661  0.5704  1.0512  0.0077
19579TIP3   OH280227   2.745   3.470  15.799  0.0023  0.1918  0.2504
19579TIP3    H180228   2.812   3.423  15.750  0.0793  0.2462  0.3024
19579TIP3    H280229   2.795   3.533  15.852 -0.1159  0.4968  0.0027
19580TIP3   OH280230   4.647   2.816   5.471 -0.3368 -0.4544 -0.5171
19580TIP3    H180231   4.627   2.723   5.480  0.3901 -0.5004  0.9094
19580TIP3    H280232   4.574   2.860   5.514 -1.0142 -0.3145 -1.7666
19581TIP3   OH280233   5.435   0.823   4.179 -0.3396 -0.7093  0.5178
19581TIP3    H180234   5.484   0.899   4.148 -1.4546 -0.0396  0.3704
19581TIP3    H280235   5.493   0.782   4.243 -0.8897  2.0185  2.9974
19582TIP3   OH280236   3.786   2.713  12.424  0.1137 -0.5582  0.3525
19582TIP3    H180237   3.773   2.805  12.399  4.5363  0.1229 -0.2269
19582TIP3    H280238   3.697   2.676  12.426 -1.6918  3.1119 -1.5939
19583TIP3   OH280239   4.148   0.062  15.107 -0.5548 -0.4055  0.5332
19583TIP3    H180240   4.212   0.086  15.040  0.4240  0.1206  1.6253
19583TIP3    H280241   4.076   0.023  15.058  0.3338 -0.4632 -0.7855
19584TIP3   OH280242   4.971   5.793   2.559 -0.3623 -0.2179  0.1345
19584TIP3    H180243   4.895   5.822   2.508  0.5198  1.5837 -0.2328
19584TIP3    H280244   5.046   5.819   2.507  0.5528 -1.8314  0.5687
19585TIP3   OH280245   5.677   0.955  14.939 -0.0861  0.3360  0.3253
19585TIP3    H180246   5.691   1.044  14.907  1.5884  0.4649  1.2886
19585TIP3    H280247   5.614   0.965  15.010 -0.4531  0.6329 -0.0323
19586TIP3   OH280248   6.190   0.444   6.191  0.2329 -0.0841 -0.2731
19586TIP3    H180249   6.213   0.372   6.250 -0.7768 -0.5605 -0.4395
19586TIP3    H280250   6.243   0.428   6.113  0.8305 -0.0170  0.1120
19587TIP3   OH280251   4.772   4.549   6.108  0.1663 -0.0263 -0.2597
19587TIP3    H180252   4.762   4.497   6.187  0.2055 -0.6972 -0.6899
19587TIP3    H280253   4.812   4.631   6.138 -0.0117 -0.1886  0.4381
19588TIP3   OH280254   3.868   2.723  14.405  0.3594 -0.6718  0.3145
19588TIP3    H180255   3.823   2.645  14.437 -0.0254 -0.6688 -0.2059
19588TIP3    H280256   3.802   2.771  14.355  0.4579  0.2293  1.0162
19589TIP3   OH280257   5.126   5.928  17.080  0.0468 -0.1304  1.4634
19589TIP3    H180258   5.108   6.006  17.027  0.6782  0.0326  1.4829
19589TIP3    H280259   5.059   5.930  17.148 -1.3228 -0.8130  0.1880
19590TIP3   OH280260   2.171   4.986  15.230 -0.4590 -0.0704  0.1486
19590TIP3    H180261   2.135   4.900  15.254 -2.3031  0.7786  0.5476
19590TIP3    H280262   2.192   5.027  15.314 -1.9716  0.8391  0.1067
19591TIP3   OH280263   3.399   1.427   4.023 -0.3504  0.0791 -0.1031
19591TIP3    H180264   3.326   1.365   4.021  0.0716 -0.4561  0.6353
19591TIP3    H280265   3.381   1.483   4.099 -1.0178  1.2459 -1.0865
19592TIP3   OH280266   0.009   0.272   1.625  0.0911  0.5045 -0.2746
19592TIP3    H180267  -0.044   0.258   1.546  0.9137  2.0578 -1.1625
19592TIP3    H280268  -0.000   0.366   1.643 -0.1036  0.1754  1.5305
19593TIP3   OH280269   0.172   1.809  15.074 -0.6740  0.0287 -0.3545
19593TIP3    H180270   0.084   1.848  15.078  0.0033  1.4991  2.1284
19593TIP3    H280271   0.231   1.883  15.088  0.8815 -1.2370 -0.0730
19594TIP3   OH280272   0.694   5.958  10.870  0.5593 -0.7124 -0.0586
19594TIP3    H180273   0.626   5.935  10.807  2.3223 -0.1065 -2.3372
19594TIP3    H280274   0.738   5.876  10.890  1.8572 -0.5516 -2.0149
19595TIP3   OH280275   1.406   4.571  15.564  0.1548 -0.0834  0.1925
19595TIP3    H180276   1.372   4.484  15.541 -0.3516  0.0728  0.3517
19595TIP3    H280277   1.430   4.563  15.657 -0.6092  0.1687  0.4167
19596TIP3   OH280278   4.494   3.911   2.481  0.1494 -0.0150  0.2603
19596TIP3    H180279   4.421   3.880   2.535  0.4643 -0.9881  0.1354
19596TIP3    H280280   4.475   3.877   2.394  0.1478  0.7333 -0.0364
19597TIP3   OH280281   2.641   5.023   6.387 -1.2582  0.1352 -0.8119
19597TIP3    H180282   2.653   5.117   6.372 -1.0408  0.0822 -0.9768
19597TIP3    H280283   2.652   5.013   6.481 -1.0105  0.2368 -0.8284
19598TIP3   OH280284   5.325   6.281   3.802 -0.4190  0.2966 -0.1449
19598TIP3    H180285   5.276   6.233   3.735  1.6549 -0.4653 -1.1746
19598TIP3    H280286   5.380   6.341   3.753  1.4784 -0.5905  0.7918
19599TIP3   OH280287   2.675   4.506  13.756  0.3009  0.5715  0.1921
19599TIP3    H180288   2.732   4.527  13.682 -0.4868  1.1471 -0.2740
19599TIP3    H280289   2.735   4.485  13.828  1.0830  0.3784 -0.4978
19600TIP3   OH280290   4.586   5.583  12.180 -0.5478  0.1402 -0.3195
19600TIP3    H180291   4.668   5.632  12.184  0.9559 -2.1670 -1.0526
19600TIP3    H280292   4.569   5.570  12.087 -0.5552 -1.2222 -0.1543
19601TIP3   OH280293   5.615   3.392  11.181 -0.6041  0.2075  0.1987
19601TIP3    H180294   5.556   3.404  11.255  1.5702 -2.3121  2.5413
19601TIP3    H280295   5.702   3.407  11.217  0.4566  0.8096 -2.3922
19602TIP3   OH280296   4.891   5.653   4.137 -0.5572  0.6133  0.1404
19602TIP3    H180297   4.969   5.600   4.154  0.3115  1.3608 -1.2403
19602TIP3    H280298   4.857   5.620   4.054 -2.8285 -0.8972  1.5783
19603TIP3   OH280299   0.988   4.011  15.074  0.0111 -0.0723  0.1418
19603TIP3    H180300   0.964   4.040  14.986 -0.4259 -0.3467  0.1680
19603TIP3    H280301   0.984   4.091  15.127  2.0058  0.4564 -0.4171
19604TIP3   OH280302   5.071   3.342   5.313 -0.2708 -0.0465  0.5503
19604TIP3    H180303   5.142   3.290   5.351 -0.5948 -1.7636 -1.0534
19604TIP3    H280304   5.073   3.424   5.362  2.6729 -0.0946  0.7215
19605TIP3   OH280305   3.482   2.383   4.296  0.1744  0.2556 -0.1119
19605TIP3    H180306   3.451   2.404   4.384 -0.4732  1.6407 -0.6433
19605TIP3    H280307   3.492   2.468   4.254 -1.5370 -0.4219 -2.0482
19606TIP3   OH280308   4.400   5.493  10.758 -0.4731  0.3444  0.2040
19606TIP3    H180309   4.452   5.450  10.691  0.6816 -0.7473  1.7433
19606TIP3    H280310   4.404   5.435  10.834 -3.4208  0.5210  0.6408
19607TIP3   OH280311   6.642   1.650   3.905  0.8488 -0.3292  0.5800
19607TIP3    H180312   6.546   1.656   3.914  0.5931 -1.4823 -0.9453
19607TIP3    H280313   6.669   1.741   3.894  0.5083  0.5353  5.1005
19608TIP3   OH280314   0.831   2.315  12.232 -0.1051  0.4349 -0.4436
19608TIP3    H180315   0.823   2.409  12.216 -0.8683  0.0277 -2.7932
19608TIP3    H280316   0.925   2.302  12.248  0.2106  1.4462 -1.2952
19609TIP3   OH280317   0.208   4.125   5.326 -0.2595  0.2334 -0.5197
19609TIP3    H180318   0.130   4.144   5.379 -0.2453  0.1251 -0.4600
19609TIP3    H280319   0.279   4.170   5.372 -0.3651  0.7274 -0.8335
19610TIP3   OH280320   4.726   4.176   3.621  0.6362  0.1814  0.0366
19610TIP3    H180321   4.683   4.097   3.653  1.2663 -1.1664 -2.2387
19610TIP3    H280322   4.814   4.172   3.656  0.3836  0.4306  0.7283
19611TIP3   OH280323   5.151   5.011   0.341 -0.1995  0.8404 -0.9502
19611TIP3    H180324   5.246   5.003   0.350 -0.3231  0.3386  0.0548
19611TIP3    H280325   5.117   4.996   0.429 -1.0765  3.3951 -0.7748
19612TIP3   OH280326   1.031   5.853   1.476 -0.7429  0.0821 -0.4303
19612TIP3    H180327   1.075   5.771   1.500 -0.3652  0.3413 -0.2121
19612TIP3    H280328   1.093   5.921   1.502 -1.0979  0.4418 -0.5179
19613TIP3   OH280329   2.559   4.750  17.085 -0.1589  0.0303 -0.1705
19613TIP3    H180330   2.642   4.707  17.066 -0.3728 -0.2943 -0.3640
19613TIP3    H280331   2.572   4.840  17.054  1.0444  0.7462  2.1535
19614TIP3   OH280332   5.639   4.321  13.339 -0.0627 -0.5160 -0.2714
19614TIP3    H180333   5.688   4.288  13.264  1.0372  2.3658 -0.9895
19614TIP3    H280334   5.627   4.414  13.320  0.3405  0.3823  3.1606
19615TIP3   OH280335   1.995   2.660  11.910 -0.1372  0.1818 -0.6329
19615TIP3    H180336   2.086   2.640  11.932 -0.5498 -0.4223  0.5831
19615TIP3    H280337   1.992   2.756  11.911  0.5440  0.2173 -0.9570
19616TIP3   OH280338   3.192   2.904  15.833 -0.2927  0.1944  0.1985
19616TIP3    H180339   3.123   2.842  15.812  0.4449 -0.1681 -1.3102
19616TIP3    H280340   3.225   2.876  15.918  0.1467 -1.6156 -0.5251
19617TIP3   OH280341   1.435   6.706  16.292  0.6149  0.0340  0.1669
19617TIP3    H180342   1.502   6.775  16.287  0.6281  0.0050 -0.0396
19617TIP3    H280343   1.481   6.626  16.270  1.5190 -0.6795  3.9993
19618TIP3   OH280344   4.029   5.877  13.871 -0.4501  0.5439 -0.5728
19618TIP3    H180345   4.009   5.851  13.781  0.9873  0.4424 -0.8905
19618TIP3    H280346   4.125   5.868  13.878 -0.3990  1.6982  0.5985
19619TIP3   OH280347   0.220   0.423   3.392 -0.0299 -0.5323  0.1978
19619TIP3    H180348   0.313   0.407   3.374 -0.1256 -0.2590 -0.6043
19619TIP3    H280349   0.218   0.509   3.434  0.2643 -1.4830  2.3081
19620TIP3   OH280350   2.694   5.802  13.026 -0.4426  0.3536 -0.3228
19620TIP3    H180351   2.622   5.757  12.982  0.9015 -1.6982 -0.5738
19620TIP3    H280352   2.659   5.888  13.047 -2.2970  0.1641 -2.2380
19621TIP3   OH280353   6.815   3.709  11.270 -0.3425 -0.0162  0.3330
19621TIP3    H180354   6.828   3.701  11.365 -1.5392  0.4737  0.5453
19621TIP3    H280355   6.817   3.618  11.239 -0.9257 -0.2613  0.9700
19622TIP3   OH280356   2.175   2.050   1.353  0.2283 -0.2414 -0.1455
19622TIP3    H180357   2.086   2.037   1.319 -0.0975 -0.7793  0.8823
19622TIP3    H280358   2.163   2.093   1.438  1.0566  1.5314 -0.8592
19623TIP3   OH280359   1.415   2.528   2.459 -0.0523 -0.3898  0.0518
19623TIP3    H180360   1.417   2.460   2.526  0.8324 -0.5051 -0.0708
19623TIP3    H280361   1.440   2.483   2.379 -0.0937 -0.0509 -0.1519
19624TIP3   OH280362   3.875   1.249  13.088  0.5190 -0.1929  0.4746
19624TIP3    H180363   3.801   1.242  13.027  2.5629 -0.0840 -2.2446
19624TIP3    H280364   3.874   1.340  13.116  2.2392  1.2852 -3.4540
19625TIP3   OH280365   2.233   6.616   5.202 -0.0446 -0.5356  0.5637
19625TIP3    H180366   2.254   6.665   5.122  0.8353 -1.0358  0.4784
19625TIP3    H280367   2.227   6.683   5.270 -0.2806 -0.1598  0.1821
19626TIP3   OH280368   1.784   6.322   3.411 -0.0721 -0.3679 -0.2182
19626TIP3    H180369   1.832   6.343   3.492  0.2119 -0.3761 -0.3813
19626TIP3    H280370   1.695   6.305   3.440  0.0040 -0.2678  0.0832
19627TIP3   OH280371   4.280   5.899   2.755  0.0972 -0.4460  0.6552
19627TIP3    H180372   4.253   5.824   2.808 -0.3942 -0.5525  0.2571
19627TIP3    H280373   4.199   5.932   2.717  0.3645  0.0368  0.4940
19628TIP3   OH280374   3.180   2.294  16.397 -0.1403 -0.0508 -0.0510
19628TIP3    H180375   3.266   2.259  16.374  0.5210  1.1091  0.5807
19628TIP3    H280376   3.183   2.304  16.492 -0.2338  1.8208 -0.2039
19629TIP3   OH280377   6.049   1.645  15.178  0.1865  0.6800  0.3695
19629TIP3    H180378   6.068   1.664  15.086  0.8568  1.2930  0.6239
19629TIP3    H280379   6.000   1.722  15.208  0.0642  0.5296  0.5534
19630TIP3   OH280380   1.894   2.003   1.280 -0.1436 -0.2774  0.0947
19630TIP3    H180381   1.808   1.986   1.242 -0.3629  2.9186 -1.1596
19630TIP3    H280382   1.877   2.008   1.375 -1.7293  1.7577 -0.2184
19631TIP3   OH280383   1.199   4.455  12.117  0.0870  0.2972 -0.2612
19631TIP3    H180384   1.177   4.547  12.105  0.8339  0.9717  2.6518
19631TIP3    H280385   1.115   4.409  12.116 -0.3403  1.0765 -1.1689
19632TIP3   OH280386   4.242   5.467  16.109 -0.1892 -0.3492 -0.1279
19632TIP3    H180387   4.299   5.394  16.085  0.9914  0.3635  0.4070
19632TIP3    H280388   4.269   5.539  16.051 -1.3592 -0.3169 -0.6739
19633TIP3   OH280389   3.211   6.580   5.129  0.2933  0.2324 -0.4261
19633TIP3    H180390   3.280   6.639   5.099 -0.3739  0.6305 -1.2510
19633TIP3    H280391   3.252   6.524   5.195  1.3011  0.6879 -0.6621
19634TIP3   OH280392   0.746   6.605  16.324  0.1800  0.3388  0.2058
19634TIP3    H180393   0.832   6.580  16.359 -0.4140  0.4494  1.8050
19634TIP3    H280394   0.685   6.591  16.396 -0.9725  1.4138 -0.5118
19635TIP3   OH280395   4.314   5.805   5.573 -0.3057 -0.2344 -0.3873
19635TIP3    H180396   4.395   5.855   5.576  0.1938 -1.0592  1.6808
19635TIP3    H280397   4.331   5.735   5.511 -0.1039  0.6240 -1.3285
19636TIP3   OH280398   1.106   3.949   2.695 -0.4526  0.1471 -0.2724
19636TIP3    H180399   1.156   4.009   2.640 -0.7197  2.7366  2.0649
19636TIP3    H280400   1.168   3.881   2.720  0.8532  1.2378 -0.4475
19637TIP3   OH280401   3.570   5.335  16.121  0.4298 -0.4658 -0.2879
19637TIP3    H180402   3.481   5.345  16.155  0.2422 -0.9783 -0.6314
19637TIP3    H280403   3.580   5.241  16.106  1.5016 -0.5901  1.0203
19638TIP3   OH280404   5.951   0.965  12.831  0.8119  0.2830  0.3901
19638TIP3    H180405   5.950   0.872  12.854  2.1577  0.5390  1.5886
19638TIP3    H280406   5.960   0.966  12.735  2.0139 -0.8290  0.4691
19639TIP3   OH280407   6.642   3.136   1.392 -0.1578  0.0589  0.0725
19639TIP3    H180408   6.573   3.181   1.344  0.2740 -0.4896 -1.0770
19639TIP3    H280409   6.687   3.206   1.440  0.3420  0.8433 -1.4912
19640TIP3   OH280410   4.689   2.637  11.882 -0.0997 -0.0207  0.4475
19640TIP3    H180411   4.642   2.692  11.945  1.3355  1.3546  0.3813
19640TIP3    H280412   4.725   2.566  11.934  2.4482  1.9494  1.6096
19641TIP3   OH280413   3.703   0.451  12.715 -0.9367 -0.3750 -0.6155
19641TIP3    H180414   3.790   0.492  12.708 -1.2141  0.5486  0.8719
19641TIP3    H280415   3.709   0.395  12.792 -1.4896 -0.8074 -0.8764
19642TIP3   OH280416   2.561   6.524   1.634  0.0314 -0.3220  0.4799
19642TIP3    H180417   2.520   6.571   1.707  0.0950 -1.3621  1.2065
19642TIP3    H280418   2.649   6.503   1.665  0.4220  0.1013 -0.2988
19643TIP3   OH280419   5.032   0.494   4.279 -0.2873  0.2344 -0.3877
19643TIP3    H180420   5.076   0.415   4.313  0.2279 -0.3891 -2.3358
19643TIP3    H280421   4.991   0.533   4.355  2.8889  0.3605  1.4611
19644TIP3   OH280422   3.191   0.230  12.458 -0.8033  0.2405 -0.0561
19644TIP3    H180423   3.153   0.227  12.546 -0.4347  2.0710  0.2105
19644TIP3    H280424   3.282   0.254  12.472 -0.1608 -1.5893 -0.8402
19645TIP3   OH280425   2.976   1.017  16.553 -0.0262 -0.0184  0.2212
19645TIP3    H180426   2.916   1.075  16.506  0.3146 -1.0190 -1.5383
19645TIP3    H280427   2.948   1.022  16.644 -0.7777  1.9396 -0.0693
19646TIP3   OH280428   6.518   0.535   2.750  0.2153 -0.2389 -0.3220
19646TIP3    H180429   6.432   0.577   2.756  1.1065  1.4749  1.3746
19646TIP3    H280430   6.573   0.584   2.811  2.4058 -1.3257 -1.3295
19647TIP3   OH280431   1.901   3.065  13.630  0.2389  0.3087 -0.4381
19647TIP3    H180432   1.977   3.034  13.581 -0.2838 -1.5370 -0.1573
19647TIP3    H280433   1.918   3.159  13.643  2.9684 -0.2009  0.5096
19648TIP3   OH280434   2.952   5.063  15.362 -0.0989 -0.6800  0.0098
19648TIP3    H180435   2.859   5.043  15.364  0.0710 -1.6662 -1.2503
19648TIP3    H280436   2.994   4.982  15.332  1.0739  0.0375 -0.3573
19649TIP3   OH280437   2.825   2.391   5.601 -0.2073  0.2294  0.4694
19649TIP3    H180438   2.764   2.320   5.581  0.8266 -0.3794 -0.6781
19649TIP3    H280439   2.846   2.379   5.694  1.4218 -2.2031 -0.1321
19650TIP3   OH280440   6.077   3.448   2.029 -0.5798 -0.8774  0.0626
19650TIP3    H180441   6.015   3.419   1.962 -0.7400  0.1005 -0.2151
19650TIP3    H280442   6.100   3.537   2.004 -0.0009 -0.7996  0.8500
19651TIP3   OH280443   0.582   0.678   6.451  0.4571 -0.3495  0.6054
19651TIP3    H180444   0.625   0.621   6.387 -0.0870 -1.6286  1.3536
19651TIP3    H280445   0.564   0.622   6.526 -0.8323  0.6081  1.0528
19652TIP3   OH280446   1.647   2.681   2.493 -0.0480  0.1716 -0.0854
19652TIP3    H180447   1.570   2.625   2.488  1.0418 -1.3495 -0.7491
19652TIP3    H280448   1.691   2.669   2.408  0.3754  1.8362 -0.1419
19653TIP3   OH280449   5.548   5.838   1.057 -0.0205 -0.0032 -0.5757
19653TIP3    H180450   5.640   5.809   1.054  0.1222  0.3812 -0.1410
19653TIP3    H280451   5.529   5.843   1.151 -0.4499  0.0382 -0.6664
19654TIP3   OH280452   0.765   4.610  15.457  0.0510  0.2521  0.3724
19654TIP3    H180453   0.814   4.601  15.376 -2.2020 -0.7227 -0.9513
19654TIP3    H280454   0.791   4.696  15.491  0.4074  1.0544 -1.8169
19655TIP3   OH280455   5.681   4.031   4.154  0.2955  0.2329 -0.3429
19655TIP3    H180456   5.649   3.954   4.106  1.6430 -0.2719 -0.4869
19655TIP3    H280457   5.657   4.014   4.245  0.3098 -0.2138 -0.4187
19656TIP3   OH280458   1.592   2.543  15.913 -0.3624  0.3451  0.2524
19656TIP3    H180459   1.522   2.582  15.965 -0.7569 -1.1440  0.8878
19656TIP3    H280460   1.548   2.510  15.834 -0.3571 -0.4026  0.5541
19657TIP3   OH280461   2.833   4.860  13.790 -0.4192 -0.0764 -0.2939
19657TIP3    H180462   2.872   4.898  13.868 -0.3498 -0.2223 -0.2582
19657TIP3    H280463   2.884   4.896  13.717 -0.2587 -0.2186 -0.2511
19658TIP3   OH280464   4.781   5.037  13.575 -0.1139 -0.2174 -0.0128
19658TIP3    H180465   4.685   5.039  13.582 -0.4358 -4.0623 -0.5958
19658TIP3    H280466   4.797   5.027  13.481  0.9572  1.3427 -0.0147
19659TIP3   OH280467   2.015   3.400   4.982 -0.1522 -0.1774 -0.1262
19659TIP3    H180468   2.045   3.427   5.068  0.8763  0.7045 -0.7408
19659TIP3    H280469   1.924   3.430   4.977 -0.4537 -0.8626  0.8926
19660TIP3   OH280470   3.361   6.646   3.849  0.2821 -0.0770  0.3367
19660TIP3    H180471   3.416   6.635   3.927  0.4340  1.6858  0.5197
19660TIP3    H280472   3.345   6.556   3.818  1.8588 -0.7150  1.2439
19661TIP3   OH280473   1.942   4.917   3.745 -0.7303  0.0361 -0.2872
19661TIP3    H180474   1.924   5.005   3.713  3.2695  0.5616 -1.6362
19661TIP3    H280475   1.966   4.868   3.666  3.5091 -0.3405  1.0352
19662TIP3   OH280476   4.295   0.023   4.387  0.1764 -0.0727  0.3713
19662TIP3    H180477   4.249   0.076   4.452 -0.3672  0.4570 -0.4197
19662TIP3    H280478   4.386   0.025   4.413  0.0005  0.3590  0.9624
19663TIP3   OH280479   1.704   1.393  15.003  0.3356  0.0517 -0.1056
19663TIP3    H180480   1.667   1.362  15.086 -0.1790 -0.1665 -0.4100
19663TIP3    H280481   1.792   1.356  15.001  0.8031  1.0627  0.9073
19664TIP3   OH280482   1.435   1.686   4.771 -0.3269 -0.2356  0.3072
19664TIP3    H180483   1.425   1.721   4.860  1.5869 -0.8283  0.8026
19664TIP3    H280484   1.490   1.609   4.782 -0.7960 -0.8415 -1.3149
19665TIP3   OH280485   3.463   1.289  11.890  0.7855 -0.1088  0.6733
19665TIP3    H180486   3.558   1.289  11.900  0.8652 -0.4455  0.0224
19665TIP3    H280487   3.449   1.253  11.802  0.1040  0.9184  0.3479
19666TIP3   OH280488   1.408   4.461  16.247 -0.1622  0.3613  0.9930
19666TIP3    H180489   1.414   4.520  16.171  1.0385 -0.7555  0.1636
19666TIP3    H280490   1.318   4.429  16.245  0.7650 -2.8134 -2.5633
19667TIP3   OH280491   3.425   1.636  10.902  0.2520 -0.0013 -0.2313
19667TIP3    H180492   3.459   1.651  10.990 -0.1784 -0.9830  0.1147
19667TIP3    H280493   3.442   1.718  10.855  0.8702  0.3768  0.6351
19668TIP3   OH280494   3.705   1.275   2.413 -0.4293 -0.4637 -0.3151
19668TIP3    H180495   3.715   1.247   2.504  0.4553  0.1091 -0.2231
19668TIP3    H280496   3.778   1.233   2.366  0.5135  1.0860 -0.2980
19669TIP3   OH280497   1.267   1.757   1.266 -0.3268  0.2221 -0.3986
19669TIP3    H180498   1.183   1.754   1.312 -0.4537 -2.3213 -0.6192
19669TIP3    H280499   1.311   1.676   1.292  0.9560  0.2676 -2.2546
19670TIP3   OH280500   6.535   4.697   4.897  0.1662 -0.1205 -0.5584
19670TIP3    H180501   6.505   4.607   4.913  0.9224 -0.4983 -1.1850
19670TIP3    H280502   6.517   4.713   4.805  1.4777 -0.2199 -0.8533
19671TIP3   OH280503   5.012   0.856   3.364 -0.0264  0.0942  0.0252
19671TIP3    H180504   4.954   0.842   3.439  0.6169 -1.9247  0.2244
19671TIP3    H280505   4.953   0.875   3.291 -0.6697  1.8891  0.9607
19672TIP3   OH280506   1.064   0.683  10.292  0.1684 -0.4037  0.3663
19672TIP3    H180507   1.094   0.660  10.380 -1.3499 -0.1029  0.9912
19672TIP3    H280508   1.112   0.623  10.234  0.1870 -1.5466  1.5154
19673TIP3   OH280509   2.614   4.556   5.267 -0.1197 -0.2000 -0.7224
19673TIP3    H180510   2.521   4.534   5.272 -0.3090  0.7695  0.3094
19673TIP3    H280511   2.627   4.622   5.335  1.7796 -1.8499  0.6412
19674TIP3   OH280512   5.579   6.384  13.141 -0.0247  0.0688  0.0841
19674TIP3    H180513   5.485   6.386  13.159 -0.0737  0.5594 -0.1817
19674TIP3    H280514   5.587   6.425  13.055  0.5041  0.7371  0.4416
19675TIP3   OH280515   2.274   2.427   5.227 -0.6955 -0.0858  0.5051
19675TIP3    H180516   2.250   2.397   5.139  0.2382 -0.4443  0.3594
19675TIP3    H280517   2.279   2.522   5.220 -1.3590 -0.0618  0.3606
19676TIP3   OH280518   2.007   6.410   2.451  0.4723  0.4567 -0.2402
19676TIP3    H180519   2.057   6.334   2.481 -0.0977 -0.2089 -0.9486
19676TIP3    H280520   2.071   6.482   2.452  0.7203  0.2477  1.5683
19677TIP3   OH280521   5.592   0.997   1.263 -0.0344  0.4136  0.0303
19677TIP3    H180522   5.516   1.056   1.257 -0.2466  0.3460  1.5795
19677TIP3    H280523   5.667   1.053   1.242 -0.4923  0.4545 -1.6277
19678TIP3   OH280524   0.618   1.762   4.847 -0.1787 -0.0684  0.2852
19678TIP3    H180525   0.684   1.715   4.797 -0.6152 -0.7369  0.3189
19678TIP3    H280526   0.599   1.840   4.795  0.1004 -0.2486 -0.0908
19679TIP3   OH280527   4.178   4.306  13.464  0.0465  0.5041  0.1790
19679TIP3    H180528   4.227   4.287  13.543  2.0893 -0.0893 -1.1488
19679TIP3    H280529   4.115   4.373  13.490 -1.0819 -1.4382  2.8533
19680TIP3   OH280530   3.869   2.118  13.707  0.4461 -0.0815  0.0696
19680TIP3    H180531   3.880   2.192  13.767 -0.1036  0.2009 -0.1711
19680TIP3    H280532   3.919   2.142  13.630  0.5621 -0.1192  0.1336
19681TIP3   OH280533   0.713   0.685  14.881 -0.1724 -0.3673 -0.2095
19681TIP3    H180534   0.745   0.759  14.933 -2.8655  0.7563  0.0060
19681TIP3    H280535   0.681   0.622  14.945 -1.6470  0.1387 -0.4060
19682TIP3   OH280536   2.253   0.214   4.846  0.5577 -0.0031  0.0374
19682TIP3    H180537   2.334   0.253   4.815  0.2429  0.5737 -0.0708
19682TIP3    H280538   2.258   0.218   4.941  0.7364 -0.1370  0.0338
19683TIP3   OH280539   4.999   6.791   3.057 -0.0016  0.0695  0.5259
19683TIP3    H180540   4.990   6.738   3.137  0.6045  0.7851  1.0778
19683TIP3    H280541   5.015   6.727   2.988  2.2846 -0.4264  1.4135
19684TIP3   OH280542   1.353   0.131  16.910 -0.0108  0.0368 -0.1046
19684TIP3    H180543   1.421   0.197  16.927  0.0561  0.0503 -0.4181
19684TIP3    H280544   1.378   0.057  16.965 -0.4926  0.5296  0.8222
19685TIP3   OH280545   5.934   5.820   3.745  0.3815  0.3443 -0.4076
19685TIP3    H180546   6.007   5.775   3.788  1.9301  1.8670 -1.3175
19685TIP3    H280547   5.928   5.905   3.789 -1.2186  0.0465  0.0077
19686TIP3   OH280548   0.853   4.334   2.454  0.7768 -0.1308  0.8263
19686TIP3    H180549   0.856   4.298   2.543 -1.0153 -0.5442  0.7621
19686TIP3    H280550   0.847   4.257   2.397 -0.6483  0.1508  0.5373
19687TIP3   OH280551   5.444   4.896  13.107 -0.1166  0.0823  0.6565
19687TIP3    H180552   5.537   4.886  13.087 -0.1050  0.3438  0.5794
19687TIP3    H280553   5.442   4.947  13.187 -0.2257  1.5737 -0.2687
19688TIP3   OH280554   2.149   3.926  16.247  0.1991 -0.2798  0.3975
19688TIP3    H180555   2.172   3.871  16.322 -1.8588 -0.8428  0.6885
19688TIP3    H280556   2.144   4.015  16.282  2.5747  0.0210  0.1370
19689TIP3   OH280557   5.393   1.906  15.261  0.5593 -0.7208 -0.1258
19689TIP3    H180558   5.402   1.841  15.191 -2.6857 -2.3927  0.8148
19689TIP3    H280559   5.387   1.854  15.341  2.6149  1.0675  1.2969
19690TIP3   OH280560   4.027   2.017   2.421  0.7842  0.0771 -0.6963
19690TIP3    H180561   4.082   2.072   2.364  1.2831 -0.6199 -0.9099
19690TIP3    H280562   3.950   1.998   2.368  1.2975 -0.6621 -1.2028
19691TIP3   OH280563   5.158   2.416   2.327  0.0204  0.2444  0.1496
19691TIP3    H180564   5.081   2.469   2.345  0.2462  0.0957  1.6851
19691TIP3    H280565   5.130   2.326   2.341  1.0327  0.2868  3.3975
19692TIP3   OH280566   2.689   0.028   1.387 -0.5216  0.2311  0.7214
19692TIP3    H180567   2.634  -0.050   1.376  0.4940 -0.1718 -2.9084
19692TIP3    H280568   2.627   0.100   1.393 -1.4581 -0.6193  1.6150
19693TIP3   OH280569   3.461   4.971  11.758  0.1913 -0.5091 -0.3447
19693TIP3    H180570   3.540   4.950  11.808  1.0586  2.5220 -0.2790
19693TIP3    H280571   3.396   4.996  11.824  0.4808  0.8627 -0.5493
19694TIP3   OH280572   4.448   0.763  17.139  0.0406  0.1601 -1.0155
19694TIP3    H180573   4.478   0.792  17.053  1.7479  0.8820 -0.2358
19694TIP3    H280574   4.517   0.704  17.170 -0.3976  0.1431 -0.0257
19695TIP3   OH280575   0.654   6.707  14.846  0.4607  0.4335 -0.3448
19695TIP3    H180576   0.742   6.743  14.849  0.4824  0.5322 -1.6668
19695TIP3    H280577   0.666   6.613  14.835  0.4046 -0.1226  3.2442
19696TIP3   OH280578   2.526   0.058   5.955 -0.1327 -0.0771  0.1770
19696TIP3    H180579   2.582   0.025   5.884 -0.5990 -0.8247  0.1452
19696TIP3    H280580   2.547   0.151   5.961  0.8872 -0.2790 -0.0480
19697TIP3   OH280581   6.109   2.933  12.941 -0.2250  0.1342 -0.5272
19697TIP3    H180582   6.056   2.936  13.021 -0.4295 -1.2206 -0.6021
19697TIP3    H280583   6.064   2.872  12.883  1.8710 -1.8771 -0.2058
19698TIP3   OH280584   0.748   1.432  14.596 -0.5743 -0.3421  0.1625
19698TIP3    H180585   0.836   1.460  14.623  0.2696 -1.2356 -1.4878
19698TIP3    H280586   0.764   1.359  14.537 -2.3299  0.5612 -1.5297
19699TIP3   OH280587   2.431   3.852  15.000 -0.3513 -0.2575  0.1177
19699TIP3    H180588   2.515   3.806  15.003 -0.3195 -0.1803  0.4848
19699TIP3    H280589   2.446   3.927  14.943 -0.1828 -0.2696  0.1475
19700TIP3   OH280590   0.603   6.157  12.950  0.0995  0.4956 -0.1890
19700TIP3    H180591   0.510   6.152  12.972  0.1341  0.6792  0.0068
19700TIP3    H280592   0.605   6.183  12.858 -0.0591  2.7368  0.3755
19701TIP3   OH280593   5.264   1.334  15.781 -0.4302  0.2123 -0.1111
19701TIP3    H180594   5.244   1.417  15.736  1.6485  0.7893 -0.0573
19701TIP3    H280595   5.214   1.339  15.863 -2.1524  0.3437 -1.1261
19702TIP3   OH280596   4.342   1.755   1.404  0.1605 -0.2041  0.5615
19702TIP3    H180597   4.353   1.842   1.440  1.6060 -0.3717  0.5953
19702TIP3    H280598   4.365   1.696   1.475 -2.6031 -0.7114  1.1389
19703TIP3   OH280599   4.570   1.162  11.075 -0.1561  0.2120 -0.1817
19703TIP3    H180600   4.601   1.209  11.152 -0.0219  0.7421 -0.5512
19703TIP3    H280601   4.647   1.155  11.019  0.8131 -3.4744  1.2531
19704TIP3   OH280602   0.710   2.510  14.112 -0.8453  0.4948 -0.1099
19704TIP3    H180603   0.737   2.426  14.077 -0.4567  0.2827  0.6685
19704TIP3    H280604   0.707   2.569  14.036  0.8132  0.2777 -0.3863
19705TIP3   OH280605   4.074   6.480   6.068 -0.0089 -1.0369 -0.3772
19705TIP3    H180606   4.068   6.426   6.147  0.8336 -0.6370 -0.0261
19705TIP3    H280607   3.983   6.499   6.045 -0.2754 -1.4381  0.2955
19706TIP3   OH280608   1.241   6.496  11.965 -0.0488  0.1513 -0.4649
19706TIP3    H180609   1.217   6.435  11.894 -1.2320  1.0973 -0.9117
19706TIP3    H280610   1.157   6.531  11.996  0.3568 -0.8282  1.9864
19707TIP3   OH280611   0.613   5.032  15.562 -0.6110 -0.0229 -0.3969
19707TIP3    H180612   0.653   5.117  15.542 -0.7787 -0.4880 -3.0804
19707TIP3    H280613   0.681   4.968  15.541 -0.5566 -0.6227  1.4133
19708TIP3   OH280614   3.859   0.929   0.197 -0.6967 -0.1144 -0.3128
19708TIP3    H180615   3.939   0.956   0.242 -0.2634 -0.2176 -1.0154
19708TIP3    H280616   3.791   0.934   0.264 -0.6239  2.6180 -0.3402
19709TIP3   OH280617   2.616   5.067  16.633 -0.3141 -0.0868 -0.5235
19709TIP3    H180618   2.600   5.050  16.726 -1.2849 -0.0603 -0.6731
19709TIP3    H280619   2.555   5.137  16.611 -0.4140 -0.4017 -1.2857
19710TIP3   OH280620   6.165   0.983   0.458 -0.2137  0.5075 -0.3410
19710TIP3    H180621   6.084   1.031   0.475  0.6518  1.6246  0.8497
19710TIP3    H280622   6.138   0.891   0.451 -1.7334  0.9899 -1.2944
19711TIP3   OH280623   2.814   0.921  10.930  0.2213  0.3437  0.1914
19711TIP3    H180624   2.779   0.933  11.018  1.0388  0.0172  0.5719
19711TIP3    H280625   2.743   0.879  10.882  0.4575 -1.3708  1.2546
19712TIP3   OH280626   3.752   5.334  16.740 -0.4310  0.3208 -0.0675
19712TIP3    H180627   3.830   5.280  16.731  0.8196  2.1413 -0.8446
19712TIP3    H280628   3.720   5.345  16.650 -1.5776 -0.3699  0.2388
19713TIP3   OH280629   6.600   3.595   0.458  0.8836  0.0397 -0.1461
19713TIP3    H180630   6.560   3.681   0.471 -0.1597 -0.4969  0.3089
19713TIP3    H280631   6.616   3.562   0.547  2.5319  0.3026 -0.3067
19714TIP3   OH280632   6.362   3.016  11.051 -0.8249 -0.1042  0.2152
19714TIP3    H180633   6.397   2.946  11.105 -0.9975 -0.5370 -0.2259
19714TIP3    H280634   6.268   2.998  11.046 -1.0922  0.9310  1.2204
19715TIP3   OH280635   4.566   3.785  10.838  0.5035  0.4838  0.1601
19715TIP3    H180636   4.482   3.812  10.801 -0.1570  0.3468  1.4915
19715TIP3    H280637   4.570   3.831  10.922  2.1425  1.1204 -0.2412
19716TIP3   OH280638   0.842   4.621  14.726 -0.1116 -0.2882 -0.3493
19716TIP3    H180639   0.917   4.616  14.786 -0.6646  0.9255  0.4807
19716TIP3    H280640   0.816   4.713  14.727 -0.4612 -0.3295 -2.0878
19717TIP3   OH280641   5.862   6.150  14.756 -0.0110  0.0559 -0.3587
19717TIP3    H180642   5.885   6.197  14.676  0.1126  1.0299  0.2368
19717TIP3    H280643   5.878   6.058  14.734  3.3199  0.5133 -0.3954
19718TIP3   OH280644   0.838   0.994  13.752 -0.2351 -0.3692 -0.4220
19718TIP3    H180645   0.758   1.004  13.701  0.2726  1.5871 -0.9317
19718TIP3    H280646   0.908   1.021  13.692  0.6641 -0.5468  0.5070
19719TIP3   OH280647   2.553   3.414   5.388 -0.0528 -0.6102  0.3204
19719TIP3    H180648   2.591   3.341   5.436  0.6221 -0.7204 -0.3625
19719TIP3    H280649   2.626   3.474   5.372 -0.7481  0.6454  1.5953
19720TIP3   OH280650   4.266   5.585   3.312 -0.2190 -0.0747  0.3095
19720TIP3    H180651   4.319   5.520   3.358  0.8589  0.4225 -0.1790
19720TIP3    H280652   4.314   5.667   3.325 -1.4728  0.6013  0.7908
19721TIP3   OH280653   4.626   2.180  14.007 -0.6172 -0.2148  0.0107
19721TIP3    H180654   4.567   2.131  13.949 -0.4045  0.9190 -1.1995
19721TIP3    H280655   4.572   2.200  14.083 -0.5979 -2.6456  0.7450
19722TIP3   OH280656   3.926   2.750  14.006  0.1765  0.3890  0.2351
19722TIP3    H180657   3.944   2.835  14.046  0.3674  0.3624  0.2075
19722TIP3    H280658   4.003   2.697  14.027  0.0320  0.2033  0.3040
19723TIP3   OH280659   1.345   4.319  12.812 -0.5941  0.0667 -0.5355
19723TIP3    H180660   1.391   4.247  12.854 -0.1260 -0.1946 -1.4726
19723TIP3    H280661   1.408   4.354  12.749 -1.5848 -0.1623 -1.6862
19724TIP3   OH280662   1.269   4.177  12.538  0.1577 -0.5619  0.4496
19724TIP3    H180663   1.209   4.237  12.581  0.4266  1.6676 -2.0195
19724TIP3    H280664   1.356   4.209  12.562  0.3113 -0.8674  0.3056
19725TIP3   OH280665   4.404   2.848   1.025 -0.1656 -0.3163 -0.1849
19725TIP3    H180666   4.361   2.861   1.109 -0.0271 -0.7951 -0.0384
19725TIP3    H280667   4.409   2.753   1.015 -0.7909 -0.2705 -1.0465
19726TIP3   OH280668   0.324   6.656  13.953 -0.3143 -0.3700  0.1216
19726TIP3    H180669   0.315   6.643  14.047  0.0186 -1.2653  0.0412
19726TIP3    H280670   0.255   6.601  13.914  0.1083 -0.6906 -0.1837
19727TIP3   OH280671   6.425   1.134   2.873  0.4629  0.1392  0.2314
19727TIP3    H180672   6.427   1.093   2.959 -0.1474  2.0113  1.2121
19727TIP3    H280673   6.340   1.109   2.837  1.4147 -2.0740 -0.6342
19728TIP3   OH280674   5.253   3.409   3.110 -0.1591  0.2613  0.5965
19728TIP3    H180675   5.325   3.411   3.173  0.0214  1.5354  0.3717
19728TIP3    H280676   5.237   3.316   3.095  1.1989 -0.0444  0.9192
19729TIP3   OH280677   1.077   0.370  13.376  0.2282  0.0859 -0.3881
19729TIP3    H180678   1.052   0.290  13.328  1.7581 -0.0903 -0.9788
19729TIP3    H280679   1.173   0.367  13.377  0.2744  0.7238  1.6641
19730TIP3   OH280680   2.274   6.612   1.231 -0.0558  0.5624  0.0112
19730TIP3    H180681   2.206   6.655   1.179 -1.0206 -0.8934  0.0031
19730TIP3    H280682   2.238   6.608   1.319 -0.9992 -2.1399 -0.4067
19731TIP3   OH280683   2.645   4.323   4.184 -0.0221  0.4695  0.0357
19731TIP3    H180684   2.618   4.244   4.137  1.0352  1.1829 -1.9163
19731TIP3    H280685   2.638   4.393   4.118  0.4284  1.7416  1.2896
19732TIP3   OH280686   6.354   5.691  13.260  0.1602  0.3214  0.1026
19732TIP3    H180687   6.406   5.765  13.292 -0.1302  0.0882  1.1572
19732TIP3    H280688   6.397   5.614  13.297 -0.8826  0.1199  0.9482
19733TIP3   OH280689   0.027   0.261  15.086  0.7738  0.3987 -0.4288
19733TIP3    H180690  -0.058   0.278  15.127  1.3086  1.2510  0.3480
19733TIP3    H280691   0.067   0.194  15.140  0.2146 -0.7342 -1.3618
19734TIP3   OH280692   6.511   1.553  14.793 -0.0246  0.2213 -0.4417
19734TIP3    H180693   6.549   1.615  14.856 -0.4208  0.0147  0.0078
19734TIP3    H280694   6.432   1.597  14.762 -0.5058 -0.2020  0.1537
19735TIP3   OH280695   6.801   5.208   2.274  0.0555 -0.3284 -0.3081
19735TIP3    H180696   6.821   5.224   2.366 -1.4866 -0.8570  0.1395
19735TIP3    H280697   6.777   5.293   2.239 -0.4925 -0.3179  0.0837
19736TIP3   OH280698   5.383   3.960  13.704 -0.6154 -0.5070 -0.4220
19736TIP3    H180699   5.446   4.028  13.682 -1.0986 -0.0313 -0.3791
19736TIP3    H280700   5.388   3.953  13.800  0.0931 -1.1920 -0.5035
19737TIP3   OH280701   5.714   4.043  15.678 -0.1434 -0.5140  0.3749
19737TIP3    H180702   5.797   3.998  15.669  0.2656 -0.0122  1.4588
19737TIP3    H280703   5.659   3.983  15.728  0.1377 -0.1579  1.1248
19738TIP3   OH280704   6.303   2.938   4.482  0.1206 -0.2911 -0.2271
19738TIP3    H180705   6.257   2.891   4.552 -0.8256  0.6989 -0.1589
19738TIP3    H280706   6.386   2.890   4.472  0.0997 -0.7087  1.2808
19739TIP3   OH280707   1.773   3.342   1.910 -0.6395  0.1506  0.1422
19739TIP3    H180708   1.738   3.263   1.952 -2.3983  1.0786  0.4760
19739TIP3    H280709   1.750   3.332   1.818 -0.3400  0.0211  0.0778
19740TIP3   OH280710   4.474   4.010   5.302  0.1735 -0.3076 -0.1983
19740TIP3    H180711   4.471   3.915   5.312 -2.0187 -0.5781 -2.4116
19740TIP3    H280712   4.506   4.043   5.386  0.4104 -2.9459  0.8201
19741TIP3   OH280713   2.347   1.780  17.185  0.0282 -0.5859  0.0676
19741TIP3    H180714   2.363   1.792  17.278  2.3503  0.6490 -0.4098
19741TIP3    H280715   2.388   1.855  17.143  0.8967 -2.1489 -2.1036
19742TIP3   OH280716   4.348   2.382   0.020 -0.4545 -0.2468 -0.3366
19742TIP3    H180717   4.301   2.465   0.011  1.7486  1.1330  0.1860
19742TIP3    H280718   4.325   2.351   0.108  0.6347  1.1450  0.4886
19743TIP3   OH280719   6.424   6.684  11.648  0.4105 -0.1935  0.2528
19743TIP3    H180720   6.420   6.744  11.722 -2.2951  0.8319 -0.5834
19743TIP3    H280721   6.356   6.619  11.666  0.5387 -0.6294 -0.7700
19744TIP3   OH280722   0.275   4.896   5.245  0.0838 -0.3112 -0.1107
19744TIP3    H180723   0.341   4.862   5.304  0.1714 -0.2081 -0.1504
19744TIP3    H280724   0.319   4.966   5.196  0.1918 -0.7865 -0.7173
19745TIP3   OH280725   6.482   3.110  15.912  0.0213  0.3152  0.3882
19745TIP3    H180726   6.403   3.159  15.936 -1.1546 -1.0963 -0.4892
19745TIP3    H280727   6.474   3.096  15.817  2.6434  2.3926 -0.2875
19746TIP3   OH280728   5.744   1.362   3.943 -0.0570 -0.1613  0.0216
19746TIP3    H180729   5.658   1.344   3.981  0.0367 -0.6771 -0.0107
19746TIP3    H280730   5.782   1.428   4.001 -0.9568  0.9880 -0.6326
19747TIP3   OH280731   3.940   0.113   2.680  0.2795  0.3148 -0.5206
19747TIP3    H180732   3.845   0.101   2.671  0.3122 -0.8305  0.3396
19747TIP3    H280733   3.971   0.029   2.714  1.6518  0.5722 -1.0766
19748TIP3   OH280734   3.643   6.407   1.938 -0.0902  0.0781 -0.0608
19748TIP3    H180735   3.707   6.462   1.893  0.6106  0.8794  1.8228
19748TIP3    H280736   3.686   6.322   1.946 -0.1852 -0.0457 -0.7814
19749TIP3   OH280737   2.653   2.162  11.393  0.7925  0.4099  0.0033
19749TIP3    H180738   2.665   2.104  11.468  0.0470 -0.2279 -0.3638
19749TIP3    H280739   2.712   2.127  11.326  1.7948  1.2420  0.4118
19750TIP3   OH280740   4.160   2.445  12.729  0.0409 -0.8148 -0.2213
19750TIP3    H180741   4.069   2.457  12.756  0.5682 -0.3335  1.4831
19750TIP3    H280742   4.170   2.350  12.721 -0.1034 -1.0258  1.6259
19751TIP3   OH280743   3.456   3.739  12.169  0.4730  0.2621 -0.8817
19751TIP3    H180744   3.469   3.647  12.192  2.3765  0.6004 -0.4056
19751TIP3    H280745   3.399   3.774  12.238 -0.8196 -0.6789 -1.4366
19752TIP3   OH280746   0.487   1.154  11.485 -0.0019 -0.3760  0.1678
19752TIP3    H180747   0.411   1.097  11.472 -0.2112  0.0216 -0.3818
19752TIP3    H280748   0.560   1.094  11.500 -0.4883 -0.7635  1.1323
19753TIP3   OH280749   1.088   3.568   4.615 -0.2028  0.2390 -0.0517
19753TIP3    H180750   1.123   3.558   4.704  1.9711  0.8913 -0.7603
19753TIP3    H280751   1.000   3.605   4.628 -0.9508 -1.9417  1.8653
19754TIP3   OH280752   2.834   3.393   5.642 -0.0290  0.9917  0.7682
19754TIP3    H180753   2.750   3.411   5.684 -1.6657  0.3452 -1.9619
19754TIP3    H280754   2.822   3.307   5.602  1.0638  1.8707 -1.6034
19755TIP3   OH280755   3.780   0.167  14.415 -0.1714  0.1579 -0.1318
19755TIP3    H180756   3.802   0.238  14.354  0.5063  0.4752  0.4762
19755TIP3    H280757   3.689   0.146  14.394 -0.3474  1.1298 -0.4007
19756TIP3   OH280758   2.175   3.927  17.156  0.1805  0.0454  0.4767
19756TIP3    H180759   2.242   3.984  17.119  1.5801  0.7965  3.7869
19756TIP3    H280760   2.219   3.843  17.168 -0.1458 -0.0971  0.6869
19757TIP3   OH280761   0.297   2.825  11.261  0.1161 -0.0851 -0.3402
19757TIP3    H180762   0.295   2.730  11.247 -0.4180 -0.3684  1.3978
19757TIP3    H280763   0.219   2.857  11.216 -0.5489 -0.6971  0.3470
19758TIP3   OH280764   1.507   5.216   3.353  0.1255 -0.2227 -0.0455
19758TIP3    H180765   1.509   5.171   3.437 -1.3760  1.9081  1.2145
19758TIP3    H280766   1.418   5.204   3.321  0.0275  0.8670 -0.2253
19759TIP3   OH280767   5.511   1.373   1.567 -0.1188  0.5170  0.1289
19759TIP3    H180768   5.570   1.384   1.642 -0.4579 -2.5278  0.9746
19759TIP3    H280769   5.539   1.291   1.526 -1.3969  0.9479 -1.7509
19760TIP3   OH280770   3.706   5.662  11.016  0.5136  0.0459 -0.1784
19760TIP3    H180771   3.718   5.646  11.110  0.7302  0.7225 -0.0831
19760TIP3    H280772   3.759   5.595  10.973  0.4119 -0.2706  0.1815
19761TIP3   OH280773   1.272   5.756  13.165  0.0835 -0.1842  0.2100
19761TIP3    H180774   1.296   5.841  13.129 -0.6089  0.3649  1.0198
19761TIP3    H280775   1.343   5.735  13.226 -0.3778  0.4158  0.9649
19762TIP3   OH280776   6.684   5.527   0.438 -0.0485  0.2429 -0.3354
19762TIP3    H180777   6.724   5.452   0.483  2.3499  1.5941 -0.0802
19762TIP3    H280778   6.663   5.493   0.351 -0.4961 -1.1435  0.2816
19763TIP3   OH280779   3.073   6.458   1.610 -0.1459 -0.4138  0.5529
19763TIP3    H180780   3.093   6.408   1.530 -0.2141 -0.8011  0.7745
19763TIP3    H280781   3.137   6.529   1.611 -1.2572  0.6763 -0.7959
19764TIP3   OH280782   6.583   5.003  15.934 -0.4409 -0.3242 -0.0062
19764TIP3    H180783   6.674   5.016  15.908 -0.2346  0.4620  1.0557
19764TIP3    H280784   6.587   4.988  16.028 -1.4178 -0.1354  0.0739
19765TIP3   OH280785   1.733   4.654   4.448  0.1147 -0.2455 -0.5106
19765TIP3    H180786   1.689   4.639   4.364 -1.2541 -1.0605  0.3102
19765TIP3    H280787   1.664   4.644   4.513  0.8555  1.7036  0.6659
19766TIP3   OH280788   2.122   5.273  12.407  0.6859  0.4713 -0.1888
19766TIP3    H180789   2.104   5.312  12.493  0.0050  0.5999 -0.3790
19766TIP3    H280790   2.165   5.342  12.357  3.8406 -0.4910  0.9623
19767TIP3   OH280791   6.452   3.786  14.081  0.4013  0.3416 -0.5171
19767TIP3    H180792   6.505   3.852  14.125 -0.2925  0.9854 -0.6194
19767TIP3    H280793   6.388   3.836  14.031  1.2807 -0.3573 -2.4315
19768TIP3   OH280794   4.144   0.747   5.364 -0.4355 -0.5696  0.2030
19768TIP3    H180795   4.144   0.729   5.458 -0.9161 -0.7089  0.1767
19768TIP3    H280796   4.074   0.693   5.329 -0.5837 -0.1434 -0.1663
19769TIP3   OH280797   5.197   3.909  16.363  0.1918  0.4178 -0.7394
19769TIP3    H180798   5.146   3.989  16.351 -0.2575  0.2271 -0.1330
19769TIP3    H280799   5.229   3.888  16.275 -0.3254  0.8373 -1.0355
19770TIP3   OH280800   4.962   6.756  12.242 -0.3303 -0.2172  0.2675
19770TIP3    H180801   4.911   6.762  12.161 -1.2893  1.9545  0.9417
19770TIP3    H280802   5.052   6.777  12.215 -0.5550  0.0241 -0.3136
19771TIP3   OH280803   6.676   4.488   1.567 -0.3897  0.5998 -0.1423
19771TIP3    H180804   6.646   4.576   1.546 -1.0686  0.8234  1.5610
19771TIP3    H280805   6.667   4.482   1.662 -0.8406 -1.4907 -0.2641
19772TIP3   OH280806   3.464   2.771   6.586  0.4693  0.3104  0.0276
19772TIP3    H180807   3.502   2.734   6.506  1.2794 -0.8131  0.8958
19772TIP3    H280808   3.538   2.779   6.646  0.1988  2.7843  0.1144
19773TIP3   OH280809   5.685   0.063  16.463 -0.3096 -0.6816  0.2192
19773TIP3    H180810   5.673   0.037  16.554  0.7304 -0.8867  0.3040
19773TIP3    H280811   5.654  -0.012  16.412  2.5088 -2.1166  0.4598
19774TIP3   OH280812   5.499   0.580   2.792 -0.9591  0.6600 -0.7590
19774TIP3    H180813   5.480   0.571   2.698 -0.6177  1.1949 -0.8808
19774TIP3    H280814   5.534   0.494   2.817 -1.7181  0.2777 -0.9504
19775TIP3   OH280815   3.034   3.780   3.158 -0.0749  0.0390  0.2360
19775TIP3    H180816   3.031   3.869   3.124  0.9050 -0.1185 -0.2910
19775TIP3    H280817   2.945   3.764   3.191 -0.7193  0.6535 -1.1050
19776TIP3   OH280818   0.039   6.062  13.271 -0.5075 -0.0697 -0.6239
19776TIP3    H180819   0.101   6.010  13.321 -0.6978  1.3123  1.1504
19776TIP3    H280820  -0.031   6.001  13.248  1.0434 -1.4384 -1.9123
19777TIP3   OH280821   4.722   0.025  13.848 -0.0423 -0.0575 -0.5383
19777TIP3    H180822   4.639  -0.004  13.885  0.2047  0.5608  0.5293
19777TIP3    H280823   4.785   0.015  13.919  0.5574  0.5843 -0.9679
19778TIP3   OH280824   2.922   6.237  11.406 -0.0137 -0.4064  0.5613
19778TIP3    H180825   2.935   6.249  11.500 -0.3526  2.8837  0.2981
19778TIP3    H280826   2.848   6.177  11.400  0.0489 -0.7315  2.3656
19779TIP3   OH280827   1.930   6.532   5.089 -0.4095  0.0844 -0.1206
19779TIP3    H180828   1.983   6.463   5.048 -0.1991  0.0958  0.1256
19779TIP3    H280829   1.991   6.605   5.101 -0.5004  0.1258  0.0951
19780TIP3   OH280830   1.323   0.096  12.401  0.4506 -0.3718 -0.0942
19780TIP3    H180831   1.296   0.005  12.411  1.2050 -0.4230  2.0478
19780TIP3    H280832   1.403   0.103  12.454 -0.5992  1.9390  1.3638
19781TIP3   OH280833   3.416   6.808   5.339  0.0297 -0.2122 -0.1456
19781TIP3    H180834   3.459   6.894   5.331  0.5227 -0.4053  0.3933
19781TIP3    H280835   3.430   6.767   5.254  0.3985 -0.0367 -0.1739
19782TIP3   OH280836   4.197   1.812   4.797  0.2080 -0.4021  0.1209
19782TIP3    H180837   4.137   1.739   4.812  1.1066 -1.0627  0.5936
19782TIP3    H280838   4.188   1.831   4.704  1.1661 -2.2162 -0.3784
19783TIP3   OH280839   6.228   4.628  15.882 -0.0467 -0.0195 -0.6407
19783TIP3    H180840   6.140   4.660  15.860 -0.7242 -0.1320  1.6870
19783TIP3    H280841   6.219   4.590  15.969  1.9474 -1.6558 -1.0575
19784TIP3   OH280842   1.454   5.334   5.814  0.2952  0.5636  0.2702
19784TIP3    H180843   1.462   5.418   5.859 -0.1184  0.0207  1.3876
19784TIP3    H280844   1.386   5.288   5.862  0.1244 -0.1980 -0.6821
19785TIP3   OH280845   1.116   2.510  17.300 -0.4748  0.2693 -0.1215
19785TIP3    H180846   1.035   2.464  17.277  0.6721 -1.1769 -1.6184
19785TIP3    H280847   1.167   2.445  17.349 -0.6155  1.5041  1.7128
19786TIP3   OH280848   6.291   0.092  12.227 -0.4182 -0.1654  0.2524
19786TIP3    H180849   6.363   0.135  12.182  1.2102 -1.3539  1.5911
19786TIP3    H280850   6.296   0.001  12.198 -0.0492 -0.7029  1.8958
19787TIP3   OH280851   3.500   5.758   2.856 -0.3285  0.0267  0.1316
19787TIP3    H180852   3.431   5.745   2.791  1.3331 -1.3997 -1.4598
19787TIP3    H280853   3.576   5.712   2.820  0.8672 -0.2675  2.8021
19788TIP3   OH280854   1.389   3.937  17.062 -0.3935 -0.6091  0.0350
19788TIP3    H180855   1.320   3.872  17.075 -1.2501  0.0730 -0.9731
19788TIP3    H280856   1.359   3.990  16.988  1.2078 -0.2821 -0.4087
19789TIP3   OH280857   3.722   6.283  11.749 -0.0512 -0.2388  0.1265
19789TIP3    H180858   3.788   6.286  11.680  0.1585  2.1996  0.3304
19789TIP3    H280859   3.652   6.340  11.716  0.1357  1.1238  1.9549
19790TIP3   OH280860   0.140   5.157  16.068  0.2393  0.8837 -0.4155
19790TIP3    H180861   0.110   5.070  16.096 -1.4033  1.5141 -0.1140
19790TIP3    H280862   0.230   5.162  16.099  0.4529 -0.7962 -0.6316
19791TIP3   OH280863   6.486   1.480  13.381  1.1644 -0.3524  0.7889
19791TIP3    H180864   6.428   1.493  13.306  0.2409 -0.6281  1.4327
19791TIP3    H280865   6.555   1.545  13.369  2.0277 -1.5385 -1.2175
19792TIP3   OH280866   5.045   1.731   2.832 -0.1129 -0.3806 -0.1747
19792TIP3    H180867   5.040   1.720   2.737 -1.4747 -0.0352 -0.1592
19792TIP3    H280868   4.956   1.753   2.858  0.5360  0.9446  1.0192
19793TIP3   OH280869   2.491   1.504   1.744 -0.6249  0.4325 -0.1843
19793TIP3    H180870   2.444   1.539   1.668 -0.4124 -1.5480 -1.2900
19793TIP3    H280871   2.443   1.424   1.767 -0.1410  0.5138  1.2253
19794TIP3   OH280872   4.607   6.803   2.800  0.1872 -0.0105 -0.3457
19794TIP3    H180873   4.537   6.869   2.795  1.1904  1.0470 -0.8488
19794TIP3    H280874   4.580   6.736   2.738  0.5266  1.3170 -1.9949
19795TIP3   OH280875   5.760   3.233   4.505 -0.8755 -0.2361  0.1822
19795TIP3    H180876   5.715   3.185   4.435  0.8135 -1.7385  0.0495
19795TIP3    H280877   5.844   3.188   4.515  0.9822  2.8601 -0.1315
19796TIP3   OH280878   4.066   4.087  13.815 -0.1698 -0.2945  0.4280
19796TIP3    H180879   4.116   4.080  13.733  0.5608 -1.1466  0.9271
19796TIP3    H280880   3.990   4.031  13.801 -2.0040  2.2925 -0.9787
19797TIP3   OH280881   2.344   2.462   2.224 -0.3540  0.0467 -0.2583
19797TIP3    H180882   2.278   2.413   2.273 -1.4322 -0.5699 -2.2500
19797TIP3    H280883   2.295   2.529   2.176  0.7948  1.3199  0.2600
19798TIP3   OH280884   2.612   5.789  11.599 -0.4822  0.0055  0.0326
19798TIP3    H180885   2.561   5.790  11.680  1.1738 -0.1788  1.1197
19798TIP3    H280886   2.663   5.870  11.601  0.8294 -0.7870  0.0378
19799TIP3   OH280887   3.813   2.334   2.502 -0.1605  0.1541  0.1231
19799TIP3    H180888   3.889   2.392   2.495  1.0045 -1.3576 -0.5688
19799TIP3    H280889   3.832   2.280   2.580 -0.5665 -0.1533  0.0122
19800TIP3   OH280890   4.394   1.830   3.902  0.5242 -0.1308 -0.7209
19800TIP3    H180891   4.429   1.853   3.816 -0.7618  0.6516 -1.0689
19800TIP3    H280892   4.338   1.754   3.885  0.2333  0.0513 -0.5897
19801TIP3   OH280893   4.314   0.613   3.421  0.4944 -0.2445 -0.2743
19801TIP3    H180894   4.280   0.587   3.335  0.5992 -1.8752  0.1466
19801TIP3    H280895   4.269   0.556   3.483  0.4973  0.8447  0.7615
19802TIP3   OH280896   2.625   1.445  15.146 -0.2055  0.3198  0.2604
19802TIP3    H180897   2.583   1.370  15.190  0.2072  0.0902  0.2683
19802TIP3    H280898   2.680   1.405  15.079  0.6544  0.5687  0.7999
19803TIP3   OH280899   5.089   6.702  15.061 -0.3191  0.3413 -0.3720
19803TIP3    H180900   5.063   6.615  15.031  1.0900  0.1291 -1.0777
19803TIP3    H280901   5.184   6.702  15.053 -0.2044  1.5464  0.7584
19804TIP3   OH280902   5.213   1.373   5.616 -1.0456  0.3575  0.3335
19804TIP3    H180903   5.134   1.419   5.585 -0.7282  0.4004 -0.4436
19804TIP3    H280904   5.181   1.311   5.681 -1.5715  1.2034  0.9016
19805TIP3   OH280905   4.605   2.266   3.579 -0.1205 -0.6714 -0.0994
19805TIP3    H180906   4.550   2.273   3.657  0.7116  0.6511  0.3967
19805TIP3    H280907   4.687   2.229   3.610 -0.3835 -1.8031 -0.6847
19806TIP3   OH280908   2.103   0.611  11.071 -0.5767  0.1030  0.3555
19806TIP3    H180909   2.177   0.571  11.116 -0.2849 -0.8443 -0.8954
19806TIP3    H280910   2.086   0.553  10.996  0.8336  3.0488 -2.5006
19807TIP3   OH280911   5.873   3.617   3.339 -0.0071 -0.3496  0.1136
19807TIP3    H180912   5.902   3.568   3.416 -0.9886 -0.4576  0.4199
19807TIP3    H280913   5.797   3.570   3.307 -1.0521  1.0226  0.4797
19808TIP3   OH280914   3.467   5.767  13.828  0.4610  0.1121 -0.1621
19808TIP3    H180915   3.462   5.856  13.862 -0.2486 -0.4325  1.2502
19808TIP3    H280916   3.390   5.758  13.772 -0.6779 -0.2484  1.3908
19809TIP3   OH280917   4.351   1.724   0.374 -0.4053  0.2522 -0.7499
19809TIP3    H180918   4.327   1.637   0.406  0.8226  0.1743  0.0498
19809TIP3    H280919   4.444   1.733   0.397 -0.5569  1.8518 -0.6366
19810TIP3   OH280920   0.020   0.666  16.901  0.1143 -0.6771  0.2586
19810TIP3    H180921   0.045   0.662  16.809  0.6036  0.1709  0.3498
19810TIP3    H280922   0.055   0.584  16.938  0.3734 -0.7767 -0.1942
19811TIP3   OH280923   2.188   0.356  12.396  0.3804 -0.0567  0.2000
19811TIP3    H180924   2.213   0.296  12.467 -0.5954 -0.0674  0.5569
19811TIP3    H280925   2.092   0.351  12.394  0.4169 -0.5618 -1.5748
19812TIP3   OH280926   5.403   6.341   1.356 -0.0367  0.3233  0.2700
19812TIP3    H180927   5.326   6.388   1.387 -0.0589 -0.2995  1.1915
19812TIP3    H280928   5.402   6.355   1.261 -0.4914  1.4800  0.4217
19813TIP3   OH280929   5.005   2.612   1.216  0.5116  0.2554  0.1832
19813TIP3    H180930   4.994   2.641   1.307 -3.4578  2.5093 -0.8023
19813TIP3    H280931   4.976   2.687   1.163  2.1574 -1.1651 -2.9861
19814TIP3   OH280932   2.376   1.872   4.306 -0.2741  0.0101  0.0353
19814TIP3    H180933   2.348   1.937   4.240  0.8216  0.5684  0.0985
19814TIP3    H280934   2.347   1.788   4.270 -0.8910  0.4393 -0.5028
19815TIP3   OH280935   4.633   2.048  10.973  1.2277 -0.5323 -0.0138
19815TIP3    H180936   4.608   2.131  11.014 -0.4339  0.1190 -2.1349
19815TIP3    H280937   4.702   2.013  11.029 -1.2124 -0.0547  3.5899
19816TIP3   OH280938   5.184   2.852  11.937  0.1848  0.1108 -0.0830
19816TIP3    H180939   5.200   2.783  11.873  0.1702  0.8622 -0.9149
19816TIP3    H280940   5.111   2.902  11.901 -0.6284 -0.1557  1.1108
19817TIP3   OH280941   3.853   6.515  13.684  0.3280  0.2049  0.5691
19817TIP3    H180942   3.883   6.476  13.602 -0.3094  2.7112 -0.9661
19817TIP3    H280943   3.926   6.572  13.712 -0.4616  1.3875  0.2834
19818TIP3   OH280944   2.152   4.466  15.696  0.1315 -0.2039 -0.4639
19818TIP3    H180945   2.108   4.403  15.752 -1.6593  0.9971 -0.4446
19818TIP3    H280946   2.207   4.413  15.637 -1.5518 -1.7924 -0.6726
19819TIP3   OH280947   6.391   2.926  13.011 -0.3323 -0.1963 -0.0902
19819TIP3    H180948   6.393   2.961  13.100 -2.9210  0.3727 -0.1767
19819TIP3    H280949   6.300   2.936  12.983  0.1649 -1.3888 -2.4121
19820TIP3   OH280950   1.634   2.900  15.566  0.1673  0.3992  0.1264
19820TIP3    H180951   1.702   2.955  15.604  0.7725 -0.3702  0.1773
19820TIP3    H280952   1.585   2.959  15.509  1.3353  0.8058 -0.4890
19821TIP3   OH280953   0.886   5.353  13.243 -0.1922 -0.1308 -0.3855
19821TIP3    H180954   0.853   5.438  13.273  1.1036 -0.1901  1.4086
19821TIP3    H280955   0.820   5.290  13.274  0.1475  0.0019  0.6487
19822TIP3   OH280956   5.543   0.799   4.887  0.4793  0.2727  0.1646
19822TIP3    H180957   5.582   0.887   4.886  0.5097  0.2857  1.2024
19822TIP3    H280958   5.518   0.785   4.978  0.2039 -0.6857 -0.0466
19823TIP3   OH280959   5.196   5.915   4.925 -0.3796  0.1905  0.2830
19823TIP3    H180960   5.173   5.858   4.999 -0.0301 -1.0493 -0.5432
19823TIP3    H280961   5.148   5.878   4.851  0.5092  0.4842 -0.4447
19824TIP3   OH280962   6.477   0.005   4.449 -0.0254  0.2669  0.4144
19824TIP3    H180963   6.543  -0.059   4.477 -0.9255 -0.3218  1.2436
19824TIP3    H280964   6.407  -0.003   4.514  0.0182  2.3961  0.7831
19825TIP3   OH280965   3.210   5.604  15.102  0.0782 -0.3029 -0.0629
19825TIP3    H180966   3.189   5.560  15.184  0.0207 -0.0655  0.0531
19825TIP3    H280967   3.300   5.579  15.083  0.4659  0.5093  0.6472
19826TIP3   OH280968   2.430   1.383  15.836  0.3990  0.4412 -0.0620
19826TIP3    H180969   2.482   1.304  15.823  0.0417  0.5706 -2.9828
19826TIP3    H280970   2.493   1.454  15.834  0.4673  0.3825  0.0014
19827TIP3   OH280971   1.619   0.436  10.720 -0.0587  0.7749 -0.2841
19827TIP3    H180972   1.705   0.401  10.745  0.2388  1.6477 -0.0311
19827TIP3    H280973   1.630   0.464  10.629 -0.8471 -1.4676 -1.1317
19828TIP3   OH280974   3.256   0.262   2.710  0.2094  0.1676  0.0595
19828TIP3    H180975   3.270   0.346   2.667  0.1325 -0.6533 -1.6740
19828TIP3    H280976   3.275   0.278   2.802  0.4072  2.0142 -0.2692
19829TIP3   OH280977   0.445   5.691  11.528  0.1052 -0.7619  0.1141
19829TIP3    H180978   0.466   5.618  11.470 -0.2159  0.1083 -1.1329
19829TIP3    H280979   0.369   5.732  11.488 -1.3045 -1.2165  2.1552
19830TIP3   OH280980   4.716   0.312  15.072 -0.1671 -0.2397  0.0580
19830TIP3    H180981   4.701   0.217  15.072  0.5281 -0.3668  1.3050
19830TIP3    H280982   4.791   0.324  15.014 -0.7157 -0.3525 -0.6969
19831TIP3   OH280983   3.321   0.557  16.387 -0.7580  0.4295 -0.4044
19831TIP3    H180984   3.338   0.595  16.301 -1.3067  0.4886 -0.4942
19831TIP3    H280985   3.247   0.498  16.372 -0.4889  0.0088 -0.0861
19832TIP3   OH280986   1.578   3.981   0.621  0.3508 -0.5079  0.3656
19832TIP3    H180987   1.510   3.943   0.676 -0.6092  1.1036  0.3327
19832TIP3    H280988   1.544   3.973   0.532  0.6191 -0.5051  0.2611
19833TIP3   OH280989   3.580   3.698   6.423 -0.1676  0.1466 -0.1158
19833TIP3    H180990   3.510   3.645   6.386  0.1951 -1.5729  1.4786
19833TIP3    H280991   3.622   3.740   6.348 -1.0348 -1.1438 -1.3695
19834TIP3   OH280992   5.764   6.587   2.865 -0.2331  0.0763  0.5994
19834TIP3    H180993   5.674   6.610   2.888 -0.6949 -0.1122 -0.9146
19834TIP3    H280994   5.813   6.668   2.877 -1.4070  1.3970 -2.3913
19835TIP3   OH280995   4.057   4.603  16.151 -0.1110 -0.0553 -0.0702
19835TIP3    H180996   4.075   4.673  16.214 -0.2021  0.1488 -0.2691
19835TIP3    H280997   4.141   4.588  16.108 -0.2440  0.4096 -0.5064
19836TIP3   OH280998   2.716   1.701  13.662 -0.1129  0.9608 -1.5607
19836TIP3    H180999   2.676   1.619  13.691  1.9990  0.6061  0.7088
19836TIP3    H281000   2.698   1.763  13.732  0.4443  1.7251 -2.0716
19837TIP3   OH281001   1.400   1.321  11.105 -0.6358  0.6566  0.3450
19837TIP3    H181002   1.390   1.285  11.016  0.1637 -0.5330  0.7093
19837TIP3    H281003   1.338   1.394  11.108 -0.7166  0.6886 -1.1711
19838TIP3   OH281004   5.427   5.519   3.162  0.4947 -0.5055  0.1921
19838TIP3    H181005   5.514   5.520   3.203  1.3405  0.9410 -1.4881
19838TIP3    H281006   5.366   5.512   3.236  1.9847  0.1965  1.5619
19839TIP3   OH281007   5.331   3.307  11.706 -0.2016 -0.7152 -0.2360
19839TIP3    H181008   5.241   3.337  11.695 -0.0798 -0.3238 -0.1718
19839TIP3    H281009   5.322   3.212  11.721 -0.7224 -0.4549  1.3020
19840TIP3   OH281010   5.702   6.809  13.278  0.1665 -0.1414 -0.2362
19840TIP3    H181011   5.674   6.833  13.366 -0.3483  0.5797 -0.5862
19840TIP3    H281012   5.687   6.888  13.226  0.6528 -0.4966 -0.9256
19841TIP3   OH281013   0.096   5.009   2.823 -1.0982  0.0411  0.0528
19841TIP3    H181014   0.014   5.025   2.776 -0.8986  2.1100  0.3542
19841TIP3    H281015   0.135   4.934   2.777 -1.5003  1.1867 -2.3073
19842TIP3   OH281016   2.484   6.047  10.767  0.2941  0.0246  0.3291
19842TIP3    H181017   2.479   5.970  10.710  1.2153  0.8180 -0.8594
19842TIP3    H281018   2.534   6.016  10.843 -0.2895 -0.8323  0.3804
19843TIP3   OH281019   6.695   6.148  14.272 -0.3494 -0.2106 -0.0444
19843TIP3    H181020   6.638   6.223  14.289 -0.4859 -0.7954  2.4822
19843TIP3    H281021   6.639   6.084  14.228 -0.9202  0.2171  0.0450
19844TIP3   OH281022   3.503   1.370  12.257 -0.1107 -0.7457 -0.5761
19844TIP3    H181023   3.415   1.404  12.247  0.0977 -0.2843 -0.8593
19844TIP3    H281024   3.492   1.287  12.304 -0.6209 -0.2854  0.1458
19845TIP3   OH281025   1.684   0.114  10.651 -0.2193  0.0053  0.7082
19845TIP3    H181026   1.645   0.074  10.728  1.2965 -0.9492  1.0194
19845TIP3    H281027   1.757   0.166  10.685 -0.1985  0.4549  0.0072
19846TIP3   OH281028   0.730   6.654  15.744  0.1033  0.5919 -0.7419
19846TIP3    H181029   0.792   6.629  15.813  0.7869  2.3981 -0.6153
19846TIP3    H281030   0.677   6.723  15.784 -0.6142  0.4944 -1.5033
19847TIP3   OH281031   2.331   3.486   2.213 -0.4755  0.1134  0.5223
19847TIP3    H181032   2.339   3.395   2.183  0.9672  0.7383 -1.2582
19847TIP3    H281033   2.321   3.480   2.308 -0.1712 -1.8919  0.4706
19848TIP3   OH281034   1.572   3.993   3.722  0.1242 -0.0621 -0.0014
19848TIP3    H181035   1.623   3.917   3.750 -0.6921 -0.8873 -0.6549
19848TIP3    H281036   1.483   3.958   3.709 -0.6586  1.3480  1.2287
19849TIP3   OH281037   0.737   5.845   2.962 -0.4483  0.0433  0.1860
19849TIP3    H181038   0.653   5.864   3.004  0.7427  3.5955  1.3033
19849TIP3    H281039   0.794   5.819   3.034  0.0049 -0.0075 -0.1883
19850TIP3   OH281040   3.944   2.733   1.488 -0.6725  0.5133 -0.0855
19850TIP3    H181041   3.905   2.651   1.519 -1.2499  0.4596 -0.8917
19850TIP3    H281042   4.033   2.733   1.523  0.0277 -1.4201 -1.6461
19851TIP3   OH281043   5.163   2.925  14.053  0.0836  0.0517  0.4599
19851TIP3    H181044   5.166   2.844  14.104  0.9866  0.3860  0.9469
19851TIP3    H281045   5.076   2.961  14.070 -0.4957 -1.0119 -0.0914
19852TIP3   OH281046   2.709   0.325  16.991  0.1900  0.1074  0.0137
19852TIP3    H181047   2.759   0.282  16.922 -0.3002  0.7876 -0.7727
19852TIP3    H281048   2.637   0.264  17.009  0.4251 -0.1587  0.0705
19853TIP3   OH281049   3.681   3.457   3.568  0.5243 -0.4849 -0.0602
19853TIP3    H181050   3.595   3.444   3.528  0.2303  3.6900 -1.2513
19853TIP3    H281051   3.740   3.472   3.494  1.4994  0.2333  0.8326
19854TIP3   OH281052   3.897   3.924   1.013  0.3713  0.0841  0.1263
19854TIP3    H181053   3.871   4.007   1.052 -0.0365  1.1457 -2.2610
19854TIP3    H281054   3.854   3.858   1.067 -1.3794  1.5318  0.5864
19855TIP3   OH281055   4.651   0.855  14.616  0.0479  0.8457 -0.5348
19855TIP3    H181056   4.578   0.795  14.599  0.6811  0.2721 -1.2518
19855TIP3    H281057   4.625   0.902  14.695  0.1599 -1.3360  0.8567
19856TIP3   OH281058   1.952   0.400   0.740 -0.1611 -0.4787  0.3178
19856TIP3    H181059   2.020   0.461   0.708  1.3308 -2.6724 -0.9487
19856TIP3    H281060   1.984   0.370   0.825 -0.6766  0.1238  0.7363
19857TIP3   OH281061   3.942   3.602   3.667 -0.0533  0.1071  0.9551
19857TIP3    H181062   3.982   3.683   3.636 -0.8335  0.1815  0.0801
19857TIP3    H281063   3.888   3.572   3.593  1.6252 -2.1749  0.5397
19858TIP3   OH281064   6.442   2.487   4.047  0.3774  0.5015 -0.9655
19858TIP3    H181065   6.506   2.519   3.983 -0.8035 -0.1198 -2.5049
19858TIP3    H281066   6.368   2.456   3.994 -1.2801  1.3304  0.7586
19859TIP3   OH281067   6.452   1.847   6.216 -0.4229 -0.0520  0.5809
19859TIP3    H181068   6.481   1.817   6.130 -0.2006  0.9877  0.2869
19859TIP3    H281069   6.521   1.907   6.245 -0.4374 -0.4757  1.5403
19860TIP3   OH281070   2.882   1.235   1.904  0.0831  0.1610  0.7076
19860TIP3    H181071   2.808   1.184   1.870  0.5493  0.0849 -0.2177
19860TIP3    H281072   2.956   1.208   1.851  0.3229  1.8957  0.0933
19861TIP3   OH281073   3.192   1.933  16.556 -0.0450  0.0112  0.0227
19861TIP3    H181074   3.121   1.962  16.500 -1.0062  0.4708  1.4229
19861TIP3    H281075   3.248   2.010  16.567 -1.3471  0.7716  1.8600
19862TIP3   OH281076   1.896   2.261   5.885  0.2690 -0.1166  0.4545
19862TIP3    H181077   1.897   2.214   5.802  0.3531  0.8411 -0.0941
19862TIP3    H281078   1.825   2.220   5.935  0.5683 -1.0553  0.1291
19863TIP3   OH281079   1.434   6.676   5.745  0.0575 -0.0315 -0.2444
19863TIP3    H181080   1.420   6.609   5.678  1.2061  0.8787 -1.4614
19863TIP3    H281081   1.346   6.705   5.769 -0.3940 -0.5588 -1.1949
19864TIP3   OH281082   5.326   0.729  16.016 -0.1712 -0.0727 -0.8273
19864TIP3    H181083   5.350   0.654  15.961  1.6708 -0.0892 -0.0727
19864TIP3    H281084   5.410   0.771  16.037 -1.0873  1.6783 -0.4871
19865TIP3   OH281085   2.654   3.559  16.665  0.2515 -0.2148 -0.3100
19865TIP3    H181086   2.702   3.536  16.746 -0.9922 -0.6583  0.3318
19865TIP3    H281087   2.628   3.474  16.629  1.2805 -0.0530 -1.5218
19866TIP3   OH281088   1.768   3.202  12.438  0.0075 -0.5650 -0.6925
19866TIP3    H181089   1.714   3.280  12.428 -1.3402 -1.1327  1.4233
19866TIP3    H281090   1.851   3.234  12.473  0.5170  0.1461 -2.4373
19867TIP3   OH281091   1.792   5.013   1.537 -0.3543 -0.0558  0.7865
19867TIP3    H181092   1.715   4.986   1.587  0.9777 -0.4282  2.7115
19867TIP3    H281093   1.799   4.947   1.467 -1.3480 -0.4291  1.0236
19868TIP3   OH281094   2.089   1.278   3.985  0.1446 -0.1086  0.3928
19868TIP3    H181095   2.128   1.282   4.073  0.1626 -0.3483  0.3963
19868TIP3    H281096   2.048   1.192   3.981 -0.3459  0.1213  0.3688
19869TIP3   OH281097   5.298   6.046  11.205 -0.5767 -0.2111  0.0676
19869TIP3    H181098   5.383   6.081  11.181  0.7097 -1.9049  1.7280
19869TIP3    H281099   5.245   6.122  11.230  0.2286  0.9108 -1.5578
19870TIP3   OH281100   3.049   4.718   0.040  0.4364 -0.0002 -0.0766
19870TIP3    H181101   3.063   4.644   0.099  0.9506  1.5251  1.8298
19870TIP3    H281102   3.061   4.795   0.095 -0.0500  1.5267 -1.9871
19871TIP3   OH281103   2.638   5.881  10.590 -0.0632 -0.6581  0.1507
19871TIP3    H181104   2.714   5.835  10.555 -1.1740 -1.0600 -1.9222
19871TIP3    H281105   2.640   5.967  10.546 -0.1810 -0.2302  0.9655
19872TIP3   OH281106   6.446   1.887   3.066 -0.4030  0.1875 -0.5311
19872TIP3    H181107   6.435   1.911   3.158 -0.9057  1.1236 -0.8214
19872TIP3    H281108   6.473   1.968   3.023 -1.4274  0.0813 -1.4162
19873TIP3   OH281109   4.766   1.466   2.933  0.3066 -0.1069 -0.6064
19873TIP3    H181110   4.850   1.433   2.900 -0.7938 -0.7461 -3.0679
19873TIP3    H281111   4.755   1.550   2.889  0.3381  0.7302  0.9368
19874TIP3   OH281112   4.623   3.271   4.073 -0.1812  0.1801  0.7600
19874TIP3    H181113   4.640   3.270   3.979  0.0998  0.8923  0.8003
19874TIP3    H281114   4.620   3.364   4.097  2.2958  0.0538  1.8914
19875TIP3   OH281115   1.212   5.165  14.201  0.0970 -0.5911  0.5927
19875TIP3    H181116   1.285   5.154  14.140  1.0643 -1.3836  1.8255
19875TIP3    H281117   1.203   5.260  14.211 -0.4312 -0.4308 -1.1479
19876TIP3   OH281118   5.827   1.947   2.802  0.0446 -0.1565  0.6247
19876TIP3    H181119   5.853   1.944   2.710  0.1722 -0.7117  0.6709
19876TIP3    H281120   5.833   1.856   2.831 -1.4081 -0.2148  0.8006
19877TIP3   OH281121   1.262   5.305  14.528  0.1394 -0.4112 -0.4807
19877TIP3    H181122   1.211   5.361  14.586  0.9428  0.8952 -0.9852
19877TIP3    H281123   1.197   5.266  14.470 -0.3304  1.4090 -1.2782
19878TIP3   OH281124   0.740   3.767   0.579 -0.1663 -0.2160 -0.2055
19878TIP3    H181125   0.829   3.750   0.610  0.7911  2.1349 -1.4075
19878TIP3    H281126   0.738   3.861   0.561 -2.2476 -0.5475 -2.2089
19879TIP3   OH281127   3.023   0.009  15.470  0.3925 -0.3489 -0.3821
19879TIP3    H181128   3.091   0.050  15.417 -0.6326  2.5051  0.3136
19879TIP3    H281129   2.961  -0.027  15.407  1.0544 -0.3340 -1.0554
19880TIP3   OH281130   3.024   4.795  12.757  1.1033  0.6652 -0.6397
19880TIP3    H181131   3.098   4.810  12.698  2.1858 -0.9177  0.2305
19880TIP3    H281132   3.061   4.808  12.845 -0.0114  1.1690 -0.2290
19881TIP3   OH281133   4.924   5.534  11.576  0.2349 -0.0881  0.3544
19881TIP3    H181134   4.995   5.522  11.514  1.2636 -1.6400  1.7373
19881TIP3    H281135   4.845   5.511  11.528  0.6256  1.6220 -1.1952
19882TIP3   OH281136   4.984   3.813   3.142 -0.4532  0.6290  0.2915
19882TIP3    H181137   4.926   3.883   3.112 -1.1099 -0.9917 -2.5296
19882TIP3    H281138   5.059   3.816   3.083  0.3856  0.0654  1.2819
19883TIP3   OH281139   5.363   6.545   3.362 -0.0394  0.0398  0.4054
19883TIP3    H181140   5.401   6.461   3.386  0.5082  0.5219  1.2799
19883TIP3    H281141   5.279   6.523   3.321  0.6257 -0.9775 -0.4457
19884TIP3   OH281142   3.735   6.418  15.830  0.2302  0.7718  0.3171
19884TIP3    H181143   3.792   6.373  15.769  1.9005  1.2495  1.4686
19884TIP3    H281144   3.790   6.484  15.872 -1.1281  1.1789  1.5778
19885TIP3   OH281145   3.673   5.508   0.659 -0.1659  0.5967  0.0986
19885TIP3    H181146   3.586   5.469   0.672 -0.7893  2.1839  0.9330
19885TIP3    H281147   3.655   5.597   0.628  1.0828  1.6330  2.1557
19886TIP3   OH281148   3.212   5.796  13.712  0.0707 -0.0976 -0.4023
19886TIP3    H181149   3.144   5.845  13.759 -0.4058 -1.2501  0.1723
19886TIP3    H281150   3.222   5.842  13.629 -2.4952 -0.6664 -1.1453
19887TIP3   OH281151   3.423   3.463  13.035  0.2989  0.4327 -0.0231
19887TIP3    H181152   3.337   3.423  13.051  0.4745  0.6854  1.6844
19887TIP3    H281153   3.415   3.503  12.948 -1.0067 -0.3328 -0.2755
19888TIP3   OH281154   1.845   1.125   5.307 -0.0110  0.7032 -0.5867
19888TIP3    H181155   1.849   1.097   5.398  1.6139 -1.8390 -1.3189
19888TIP3    H281156   1.919   1.185   5.297  0.0897  0.6274 -0.3129
19889TIP3   OH281157   3.452   5.447  14.916  0.1102  0.1856 -0.0695
19889TIP3    H181158   3.541   5.412  14.923 -0.3456 -1.2804 -1.1558
19889TIP3    H281159   3.403   5.399  14.983 -0.3419 -0.6709 -1.0060
19890TIP3   OH281160   3.287   0.209   4.313  0.5639  0.5768  0.5169
19890TIP3    H181161   3.306   0.253   4.230  0.1199  0.2084  0.2103
19890TIP3    H281162   3.209   0.254   4.346  0.0325 -0.0563  0.1377
19891TIP3   OH281163   1.806   6.703   4.209  0.3008  0.0039 -0.2410
19891TIP3    H181164   1.782   6.749   4.290  3.3240 -0.7005  1.1874
19891TIP3    H281165   1.853   6.625   4.239  1.3072 -0.3886 -2.6707
19892TIP3   OH281166   2.883   4.846   1.067 -0.1121  0.7731  0.0532
19892TIP3    H181167   2.853   4.846   1.158  0.4833 -0.9704  0.2817
19892TIP3    H281168   2.828   4.780   1.024 -0.2565  1.4448 -0.8230
19893TIP3   OH281169   4.198   0.663  13.975  0.2420  0.2635 -0.1199
19893TIP3    H181170   4.195   0.603  14.050  0.6416 -3.0613 -2.5323
19893TIP3    H281171   4.153   0.741  14.005  0.3851 -0.8677  3.5542
19894TIP3   OH281172   4.161   0.282   1.007  0.8968 -0.5196  0.3469
19894TIP3    H181173   4.095   0.285   1.075  0.1849  0.0612 -0.3548
19894TIP3    H281174   4.167   0.189   0.984 -0.0860 -0.5132  0.0303
19895TIP3   OH281175   2.962   5.251   1.815 -0.0331  0.0133  0.1961
19895TIP3    H181176   2.889   5.304   1.783 -0.7428 -1.1804 -0.2156
19895TIP3    H281177   3.036   5.278   1.761 -0.2871  0.8204  0.2266
19896TIP3   OH281178   5.200   1.995  12.339  0.0300 -0.1851 -0.0457
19896TIP3    H181179   5.189   2.052  12.416 -1.6482  0.6922 -0.8850
19896TIP3    H281180   5.237   2.052  12.272 -0.2947 -0.4431 -0.4524
19897TIP3   OH281181   4.974   3.210   1.176 -0.1065 -0.5674 -0.2149
19897TIP3    H181182   5.053   3.254   1.144 -0.8017  0.8857 -0.0015
19897TIP3    H281183   4.906   3.276   1.170 -0.6863 -0.8167  2.4938
19898TIP3   OH281184   5.916   6.240  13.619 -0.3164 -0.2776 -0.1004
19898TIP3    H181185   5.967   6.268  13.543  0.2409  0.3032  0.4701
19898TIP3    H281186   5.827   6.270  13.600  0.2074  1.8117  0.3861
19899TIP3   OH281187   2.557   1.166   4.248  0.0591 -0.9253 -0.2429
19899TIP3    H181188   2.554   1.261   4.236  1.6978 -0.5187  2.0158
19899TIP3    H281189   2.628   1.137   4.191  2.5892 -0.0787  2.2339
19900TIP3   OH281190   5.152   1.375   0.700 -0.0808  0.2259 -0.3784
19900TIP3    H181191   5.145   1.455   0.648 -1.1630  0.3888 -0.0088
19900TIP3    H281192   5.221   1.324   0.657 -1.2636  0.1292 -2.2797
19901TIP3   OH281193   4.034   6.493   3.791  0.5064 -0.4764  0.4129
19901TIP3    H181194   4.081   6.532   3.865  1.1080  1.8509 -1.0741
19901TIP3    H281195   3.976   6.563   3.761  0.3085 -1.3317 -1.3099
19902TIP3   OH281196   6.222   4.008   4.839  0.0816  0.0069  0.0136
19902TIP3    H181197   6.185   3.962   4.914  2.1094 -0.7463  0.6366
19902TIP3    H281198   6.213   4.101   4.861 -2.6815 -0.0366 -0.5693
19903TIP3   OH281199   0.446   4.477   5.373 -0.3882 -0.4352 -0.0743
19903TIP3    H181200   0.428   4.568   5.351  1.6681 -0.1940 -0.9566
19903TIP3    H281201   0.474   4.480   5.465  1.2100  0.0932 -0.5473
19904TIP3   OH281202   2.342   5.815  12.103 -0.5703 -0.5083  0.0325
19904TIP3    H181203   2.301   5.734  12.072  0.1967 -0.4042 -1.3090
19904TIP3    H281204   2.424   5.787  12.143 -0.7374 -0.4719  0.4062
19905TIP3   OH281205   1.639   0.896  16.733 -0.2285  0.1053 -0.0084
19905TIP3    H181206   1.692   0.944  16.796 -0.1492 -1.6086  1.3303
19905TIP3    H281207   1.551   0.896  16.771 -0.1085 -1.2379  0.3186
19906TIP3   OH281208   2.209   3.636  14.259 -0.1157  0.8903  0.1361
19906TIP3    H181209   2.120   3.613  14.286  0.2228 -0.7840 -0.0402
19906TIP3    H281210   2.250   3.670  14.338 -0.5728  0.5651  0.5186
19907TIP3   OH281211   1.890   6.775   5.720  0.1957 -0.0764  0.0357
19907TIP3    H181212   1.913   6.835   5.791 -0.2623  0.6887 -0.4546
19907TIP3    H281213   1.971   6.726   5.703  1.1928  1.7745 -0.8927
19908TIP3   OH281214   3.026   3.733   0.207  0.4006 -0.5325 -0.6122
19908TIP3    H181215   3.065   3.733   0.120  1.5988  0.7954 -0.1181
19908TIP3    H281216   2.932   3.720   0.192  0.6968 -1.2250 -2.0206
19909TIP3   OH281217   2.025   2.257   3.701  0.0486 -0.0677  0.2550
19909TIP3    H181218   2.008   2.285   3.611 -0.7990  0.7302  0.6490
19909TIP3    H281219   2.090   2.320   3.733  0.1067 -0.1542  0.3077
19910TIP3   OH281220   2.581   2.410  12.521 -0.1813 -0.6877  0.0708
19910TIP3    H181221   2.489   2.386  12.515 -1.0487  2.1701  0.6669
19910TIP3    H281222   2.592   2.484  12.462  1.3526 -0.0191  1.1042
19911TIP3   OH281223   4.851   5.916   1.069  0.1337  0.6483  0.9410
19911TIP3    H181224   4.833   5.988   1.009  1.8135  0.5550  0.2732
19911TIP3    H281225   4.933   5.939   1.111  1.2752 -1.2931 -0.0489
19912TIP3   OH281226   1.205   3.319  11.104  0.3781 -0.5285  0.0708
19912TIP3    H181227   1.119   3.278  11.106  0.6611 -1.1694 -0.5041
19912TIP3    H281228   1.215   3.346  11.012 -0.0225  1.3119  0.5266
19913TIP3   OH281229   3.568   3.252  13.141  0.2992 -0.0116  0.8379
19913TIP3    H181230   3.517   3.324  13.103  0.1736 -0.6916 -0.3406
19913TIP3    H281231   3.630   3.227  13.072  0.0678 -1.2863  1.0582
19914TIP3   OH281232   2.519   3.994   4.254  0.1754  0.3742  0.4664
19914TIP3    H181233   2.575   4.011   4.178 -0.1898  1.0394  0.3442
19914TIP3    H281234   2.430   4.004   4.221  0.0222  1.3444  1.1200
19915TIP3   OH281235   6.639   2.520  13.269  0.3669 -0.5296  0.4116
19915TIP3    H181236   6.564   2.491  13.320 -0.4447  1.3404  0.3817
19915TIP3    H281237   6.600   2.568  13.195  1.5726 -0.3334 -0.1206
19916TIP3   OH281238   2.607   2.648   1.723 -0.9605  0.2563  0.0561
19916TIP3    H181239   2.515   2.633   1.703 -0.5115 -1.6294 -0.7555
19916TIP3    H281240   2.616   2.624   1.815 -1.3291  0.7726  0.2337
19917TIP3   OH281241   4.904   4.399   3.524  0.2049 -0.4815  0.1407
19917TIP3    H181242   4.833   4.463   3.516  0.4496 -0.0399  1.2024
19917TIP3    H281243   4.920   4.368   3.435 -0.5960  0.2079 -0.2519
19918TIP3   OH281244   0.760   2.027  15.309  0.0887  0.2643 -0.4106
19918TIP3    H181245   0.747   2.086  15.234 -2.4507 -0.3667 -0.5583
19918TIP3    H281246   0.786   1.944  15.269 -2.6709 -0.4949 -0.8322
19919TIP3   OH281247   1.072   1.688   0.121  0.3172 -0.0971  0.3843
19919TIP3    H181248   1.045   1.597   0.130  0.0395 -0.0494  0.0468
19919TIP3    H281249   1.016   1.737   0.181  1.6570 -0.3499  1.9287
19920TIP3   OH281250   6.220   0.076  16.366 -0.1068 -0.1920  0.6631
19920TIP3    H181251   6.178   0.042  16.287  1.1429  1.2134 -0.6880
19920TIP3    H281252   6.224   0.001  16.425  0.6492 -1.8625 -1.3520
19921TIP3   OH281253   1.330   5.955   3.385  0.0356  0.7126  0.2660
19921TIP3    H181254   1.287   5.995   3.460  0.0924  2.3534 -0.5307
19921TIP3    H281255   1.419   5.938   3.415  0.0256  1.2574  0.6253
19922TIP3   OH281256   2.969   6.023   3.023 -0.0950 -0.3441  0.7401
19922TIP3    H181257   3.014   6.044   2.942  0.2923  1.4872  1.3827
19922TIP3    H281258   3.012   5.943   3.054 -0.3911 -1.1937 -0.9084
19923TIP3   OH281259   2.995   0.014  14.098 -0.6695  0.3336 -0.0122
19923TIP3    H181260   2.985   0.007  14.193  0.4515 -0.8269  0.0540
19923TIP3    H281261   2.986  -0.075  14.066 -1.6560  0.7945 -1.0873
19924TIP3   OH281262   3.781   5.910   0.978 -0.0418 -0.0287  0.5959
19924TIP3    H181263   3.786   5.820   0.944  1.4392  0.2123  0.1008
19924TIP3    H281264   3.698   5.943   0.944 -0.0433 -0.8247 -0.2395
19925TIP3   OH281265   6.424   1.506  16.789 -0.5287 -0.0739 -0.0274
19925TIP3    H181266   6.336   1.512  16.753 -0.7491  2.5667  0.7175
19925TIP3    H281267   6.482   1.517  16.714 -0.8175 -1.3249 -0.4484
19926TIP3   OH281268   6.545   4.312   4.277 -0.2583 -0.2289 -0.2727
19926TIP3    H181269   6.498   4.229   4.280 -1.3596  0.3962  0.5257
19926TIP3    H281270   6.541   4.340   4.186  0.0769 -1.0061 -0.5356
19927TIP3   OH281271   3.329   1.463  12.774 -0.5483  0.3559 -0.5706
19927TIP3    H181272   3.279   1.538  12.808 -1.4040  0.2008 -1.4512
19927TIP3    H281273   3.330   1.400  12.846  0.1421  1.1719  0.1667
19928TIP3   OH281274   4.923   6.417   4.092 -0.1213  0.3051 -0.8963
19928TIP3    H181275   4.907   6.415   3.997 -0.4942 -1.9633 -0.8308
19928TIP3    H281276   4.935   6.510   4.112 -3.6058  1.2889 -2.5559
19929TIP3   OH281277   0.972   2.140   4.645  0.1500 -0.1057 -0.0326
19929TIP3    H181278   1.006   2.157   4.558 -1.2380  0.0621 -0.5688
19929TIP3    H281279   1.012   2.057   4.671  1.0567  0.1561 -0.5478
19930TIP3   OH281280   5.185   5.921   2.434 -0.4780  0.0129 -0.5509
19930TIP3    H181281   5.169   5.962   2.350  1.8306 -1.4413 -1.8268
19930TIP3    H281282   5.277   5.941   2.454 -0.9679  0.3596  1.6876
19931TIP3   OH281283   1.789   0.729  14.489 -0.1364 -0.1796 -0.6776
19931TIP3    H181284   1.866   0.770  14.449 -1.0533  1.3279 -0.9911
19931TIP3    H281285   1.715   0.767  14.442 -1.1627  0.1699  1.1298
19932TIP3   OH281286   4.857   4.951   4.280  0.2458 -0.0574 -0.5247
19932TIP3    H181287   4.945   4.960   4.242 -0.4954  0.4721 -2.2410
19932TIP3    H281288   4.863   4.994   4.365  1.8682 -0.8432 -0.2106
19933TIP3   OH281289   4.044   2.263   0.504  0.1883 -0.4508 -0.6100
19933TIP3    H181290   4.082   2.193   0.451 -1.0874 -2.8547  1.3765
19933TIP3    H281291   3.949   2.248   0.498 -0.1792  1.5912 -0.6514
19934TIP3   OH281292   2.074   3.077   4.375  0.1736 -0.2585  0.6048
19934TIP3    H181293   1.983   3.076   4.345  0.5842 -1.1054 -0.6894
19934TIP3    H281294   2.080   3.006   4.439  0.2743 -1.2095 -0.4434
19935TIP3   OH281295   6.296   6.162   0.901  0.0617  0.4410  0.2828
19935TIP3    H181296   6.209   6.168   0.940  0.3064  0.1947  0.8880
19935TIP3    H281297   6.344   6.102   0.958  0.4258  0.0351 -0.4317
19936TIP3   OH281298   5.846   0.945  14.112 -0.2565  0.6398 -0.0628
19936TIP3    H181299   5.896   0.865  14.095 -0.5758  0.5089 -0.3945
19936TIP3    H281300   5.912   1.010  14.136 -0.1182 -0.1056  1.6733
19937TIP3   OH281301   5.003   5.885  14.669 -0.5534  0.1961  0.4189
19937TIP3    H181302   5.001   5.907  14.575  1.1230  2.6493  0.8737
19937TIP3    H281303   4.924   5.927  14.704 -0.1365  0.9939  0.4154
19938TIP3   OH281304   2.358   1.325   5.277  0.4409 -0.4624 -0.5186
19938TIP3    H181305   2.453   1.340   5.283  0.4689 -0.3645 -1.1289
19938TIP3    H281306   2.342   1.315   5.183 -0.3929  1.0883 -0.5714
19939TIP3   OH281307   3.443   0.137  14.290 -0.1545 -0.1239  0.2106
19939TIP3    H181308   3.504   0.199  14.250  0.9060  0.1269  2.0816
19939TIP3    H281309   3.356   0.169  14.266  0.4019  0.0946 -1.6673
19940TIP3   OH281310   3.040   4.477   3.615 -0.4673 -0.5134  0.2772
19940TIP3    H181311   3.032   4.463   3.521  3.1761  0.3221 -0.3043
19940TIP3    H281312   3.129   4.448   3.636 -0.5904  0.8356  3.1398
19941TIP3   OH281313   0.266   0.500   4.499  0.4343  0.3366  0.0408
19941TIP3    H181314   0.268   0.590   4.467  0.2902  0.2757 -0.1429
19941TIP3    H281315   0.231   0.506   4.588 -1.8912  0.2288 -0.7998
19942TIP3   OH281316   4.376   0.602  10.807 -0.1330 -0.7506 -0.0425
19942TIP3    H181317   4.285   0.581  10.831 -0.6686  0.4087 -0.9762
19942TIP3    H281318   4.428   0.537  10.854 -1.3931 -0.9643  1.1244
19943TIP3   OH281319   0.655   5.987   0.837 -0.3202  0.2337  1.0477
19943TIP3    H181320   0.715   6.008   0.766  0.3709 -0.7673  1.3109
19943TIP3    H281321   0.568   5.997   0.799  0.0330  0.3571  0.2569
19944TIP3   OH281322   4.277   4.832  11.292  0.6347 -0.3699 -0.2802
19944TIP3    H181323   4.351   4.822  11.232 -0.1196  1.6025 -1.6640
19944TIP3    H281324   4.200   4.830  11.235 -0.6021 -3.6765  1.2413
19945TIP3   OH281325   2.485   6.006   5.712  0.2127  0.6960 -0.2827
19945TIP3    H181326   2.494   6.089   5.758  1.5883 -0.1654  1.1311
19945TIP3    H281327   2.461   5.944   5.781  0.9528 -0.3816 -0.9587
19946TIP3   OH281328   2.281   2.016  13.158  0.2852  0.4867  0.0934
19946TIP3    H181329   2.322   2.038  13.242 -1.4339 -3.0386  2.0844
19946TIP3    H281330   2.187   2.026  13.174 -0.1596 -1.5323 -0.8807
19947TIP3   OH281331   3.223   0.965  12.828 -0.3565  0.2197  0.2197
19947TIP3    H181332   3.163   1.023  12.781 -0.8780  0.7151  1.4505
19947TIP3    H281333   3.166   0.897  12.864  0.2505 -1.1347 -1.2359
19948TIP3   OH281334   3.049   5.108  12.998  0.5260  0.1419 -0.4304
19948TIP3    H181335   3.030   5.016  13.016  0.2582 -0.0338 -1.5432
19948TIP3    H281336   2.964   5.147  12.978  0.4735  0.9139  1.1474
19949TIP3   OH281337   6.133   3.412  12.063  0.1940 -0.1160  0.5102
19949TIP3    H181338   6.144   3.436  11.971 -1.5290  1.6637  0.6905
19949TIP3    H281339   6.059   3.352  12.063  1.0236 -1.1664  0.6342
19950TIP3   OH281340   2.737   5.063   2.278  0.0943  0.3765 -0.1420
19950TIP3    H181341   2.827   5.061   2.308  0.1619 -0.8381 -0.3648
19950TIP3    H281342   2.739   5.113   2.197  0.2592  1.8764  0.7634
19951TIP3   OH281343   3.694   4.703   0.587  0.1925  0.3972 -0.0258
19951TIP3    H181344   3.628   4.647   0.630 -0.3412  0.8721 -0.2086
19951TIP3    H281345   3.752   4.642   0.542 -0.2366 -0.0248 -0.0120
19952TIP3   OH281346   5.110   6.511  14.556  0.6886  0.3441  0.3796
19952TIP3    H181347   5.113   6.415  14.556  1.4295  0.3512  1.6623
19952TIP3    H281348   5.020   6.532  14.580  0.6908 -0.0413  0.7497
19953TIP3   OH281349   6.632   5.530  13.610 -0.3168 -0.2764 -0.3285
19953TIP3    H181350   6.687   5.472  13.664  0.4414  0.0212 -0.7642
19953TIP3    H281351   6.612   5.603  13.668  0.0588 -0.2103 -0.2753
19954TIP3   OH281352   6.067   6.597   3.272 -0.1328  0.2230  0.3151
19954TIP3    H181353   6.073   6.570   3.364  0.8942 -2.8457 -0.5173
19954TIP3    H281354   5.975   6.620   3.260 -0.8777 -1.7468  1.5994
19955TIP3   OH281355   1.648   1.413   2.377  0.8089  0.0848 -0.2347
19955TIP3    H181356   1.716   1.471   2.411  0.7194 -0.3319  0.6900
19955TIP3    H281357   1.575   1.423   2.439  0.4035 -0.2393 -0.6480
19956TIP3   OH281358   5.154   3.073  15.387  0.0764  0.2183  0.0683
19956TIP3    H181359   5.123   2.990  15.424  1.9789 -0.0489  1.1411
19956TIP3    H281360   5.205   3.047  15.310 -0.6161  0.5314 -0.5153
19957TIP3   OH281361   1.977   3.572  11.568  0.1476 -0.2017 -0.2043
19957TIP3    H181362   1.947   3.506  11.505 -0.2888  1.2553 -1.5737
19957TIP3    H281363   2.067   3.591  11.542 -0.0202  0.3761 -0.3797
19958TIP3   OH281364   4.652   5.473  13.940  0.4627 -0.1404  0.4431
19958TIP3    H181365   4.565   5.433  13.949  0.5260 -0.2282  0.7033
19958TIP3    H281366   4.699   5.444  14.019  0.8847 -0.4898  0.0681
19959TIP3   OH281367   4.324   3.660  15.281  0.5316  0.2943  0.0966
19959TIP3    H181368   4.255   3.611  15.236  1.0287  0.4297 -0.8474
19959TIP3    H281369   4.377   3.697  15.210 -0.7310  3.5550  0.6623
19960TIP3   OH281370   3.138   2.473  15.696 -0.0587 -0.7363  0.2465
19960TIP3    H181371   3.088   2.397  15.725 -0.2510 -0.9114 -0.5249
19960TIP3    H281372   3.229   2.445  15.702 -0.1205 -0.9655  0.1533
19961TIP3   OH281373   0.107   1.523  14.676  0.1011 -0.1105  0.5173
19961TIP3    H181374   0.023   1.476  14.676  0.6117 -1.1036 -1.0416
19961TIP3    H281375   0.145   1.504  14.761 -0.6816 -0.7200  0.7448
19962TIP3   OH281376   3.737   1.922   1.558  0.4309 -0.2496 -0.0503
19962TIP3    H181377   3.803   1.958   1.500 -0.3371  2.5782  0.6728
19962TIP3    H281378   3.684   1.864   1.503  1.9114 -0.5183 -1.2360
19963TIP3   OH281379   5.475   2.562  10.924 -0.1285 -0.0443 -0.1847
19963TIP3    H181380   5.556   2.537  10.880 -0.8329  0.6771 -1.9733
19963TIP3    H281381   5.429   2.617  10.861 -1.9617 -0.3364  0.8208
19964TIP3   OH281382   0.231   0.066   5.220 -0.0084 -0.1220 -0.3571
19964TIP3    H181383   0.212  -0.025   5.240  0.3475 -0.2277 -0.4985
19964TIP3    H281384   0.286   0.063   5.142  0.6989  0.1750  0.1247
19965TIP3   OH281385   4.494   0.095  15.551  0.2666 -0.0884 -0.6889
19965TIP3    H181386   4.410   0.136  15.532 -0.0776 -1.0062 -1.2035
19965TIP3    H281387   4.559   0.160  15.525 -0.2702  1.0058  0.5657
19966TIP3   OH281388   6.737   3.020  13.610  0.5109  0.2977  0.0964
19966TIP3    H181389   6.699   2.935  13.629 -1.9163  1.4137  0.6310
19966TIP3    H281390   6.777   3.010  13.523 -0.7806 -1.0593 -0.3866
19967TIP3   OH281391   3.189   1.807   1.063 -0.3848  0.0980 -0.5386
19967TIP3    H181392   3.098   1.818   1.036 -0.7027  0.1497  0.4940
19967TIP3    H281393   3.193   1.718   1.098 -0.4937  0.6756  1.0291
19968TIP3   OH281394   6.657   3.936  15.230 -0.4774  0.4332 -0.0355
19968TIP3    H181395   6.600   3.887  15.171 -0.6015  0.4709  0.0519
19968TIP3    H281396   6.671   3.877  15.304  1.5720 -0.5540 -1.1246
19969TIP3   OH281397   2.559   6.758  16.864 -0.1201 -0.1233 -0.4168
19969TIP3    H181398   2.653   6.776  16.870 -0.3158  0.6091  1.0045
19969TIP3    H281399   2.554   6.669  16.828  1.0552  0.3593 -1.8957
19970TIP3   OH281400   5.239   5.932   0.549 -0.5648  0.4229 -0.0317
19970TIP3    H181401   5.262   5.998   0.614 -1.2364  0.7766 -0.1457
19970TIP3    H281402   5.323   5.900   0.516 -0.2148  0.1560  1.0782
19971TIP3   OH281403   1.410   2.227   0.447  0.1040  0.0174  0.4112
19971TIP3    H181404   1.354   2.303   0.462 -0.4631  0.1404 -2.0066
19971TIP3    H281405   1.457   2.216   0.530 -1.7678  1.3172  1.7296
19972TIP3   OH281406   1.229   4.413   5.626 -0.0724 -0.8201 -0.2607
19972TIP3    H181407   1.307   4.410   5.683 -0.9288 -1.1916  0.9328
19972TIP3    H281408   1.230   4.500   5.588  0.7325 -0.6950  0.0253
19973TIP3   OH281409   0.778   4.606   3.172 -0.0219  0.0637 -0.3514
19973TIP3    H181410   0.735   4.625   3.255 -0.6309 -0.2817 -0.5786
19973TIP3    H281411   0.863   4.647   3.179 -0.5385  1.1098 -0.0457
19974TIP3   OH281412   3.615   2.242   5.369 -0.3434 -0.2096  0.2169
19974TIP3    H181413   3.565   2.170   5.331  0.9489 -0.5844 -0.8749
19974TIP3    H281414   3.553   2.314   5.375 -0.8834 -0.4475 -1.6778
19975TIP3   OH281415   6.772   4.877   6.142 -0.0252 -0.3506 -0.1782
19975TIP3    H181416   6.778   4.967   6.175 -0.2558 -0.8263  1.2481
19975TIP3    H281417   6.840   4.871   6.076  1.8005  0.1380  1.5501
19976TIP3   OH281418   4.388   5.420   4.826 -0.2645  0.0807 -0.0920
19976TIP3    H181419   4.461   5.482   4.832 -1.7129  1.9792 -1.0734
19976TIP3    H281420   4.399   5.379   4.740  0.3525 -0.6133  0.3058
19977TIP3   OH281421   1.017   3.727   1.900 -0.3986  0.1371  0.0539
19977TIP3    H181422   0.957   3.705   1.972  0.8738 -1.7157  0.6477
19977TIP3    H281423   1.001   3.658   1.835  1.4000 -0.7205  0.4662
19978TIP3   OH281424   4.046   0.691  16.870 -0.4884 -0.6327  0.4042
19978TIP3    H181425   4.087   0.669  16.953 -1.2291 -2.4883  0.3379
19978TIP3    H281426   3.953   0.672  16.883 -0.7656 -0.0466 -0.5702
19979TIP3   OH281427   6.286   0.309  13.021 -0.3091  0.8144 -0.0318
19979TIP3    H181428   6.261   0.331  13.111 -3.4780 -2.0492  0.0180
19979TIP3    H281429   6.348   0.377  12.996 -0.0296  2.3152  3.9441
19980TIP3   OH281430   5.178   5.207   5.969 -0.1551 -0.0258  0.2758
19980TIP3    H181431   5.154   5.238   6.056  1.0703  0.5246  0.4353
19980TIP3    H281432   5.192   5.286   5.918  3.6850 -0.1439  0.8741
19981TIP3   OH281433   0.555   0.675  15.796  0.7539 -0.0247  0.1015
19981TIP3    H181434   0.561   0.584  15.767 -0.7803 -0.2570  0.4462
19981TIP3    H281435   0.466   0.702  15.772  1.3992  1.6005 -0.5958
19982TIP3   OH281436   2.817   0.428   4.878  0.6122  0.6799 -0.7047
19982TIP3    H181437   2.878   0.488   4.919 -1.0766  2.2622 -0.4100
19982TIP3    H281438   2.773   0.480   4.811 -0.5459 -0.3524 -0.7854
19983TIP3   OH281439   5.697   2.334  13.083 -0.1988 -0.4961 -0.0387
19983TIP3    H181440   5.651   2.392  13.023  1.7907  0.3052 -0.8889
19983TIP3    H281441   5.740   2.269  13.027  1.7797  0.3321  0.4087
19984TIP3   OH281442   4.185   6.782  13.412 -0.0735  0.4566 -0.8732
19984TIP3    H181443   4.160   6.740  13.494 -0.5252  2.1594 -0.0892
19984TIP3    H281444   4.219   6.711  13.358 -0.0163 -0.7500  0.6779
19985TIP3   OH281445   5.198   5.758   4.412 -0.5097 -0.1385 -0.0768
19985TIP3    H181446   5.161   5.711   4.337  0.8939 -1.7195  0.1699
19985TIP3    H281447   5.210   5.691   4.479  1.9343  0.4341  0.1543
19986TIP3   OH281448   2.935   6.606   5.342 -0.4545  0.6463 -0.0758
19986TIP3    H181449   2.989   6.678   5.375 -0.4871  0.2643  0.8395
19986TIP3    H281450   2.995   6.531   5.339 -0.3968  0.7171 -1.1101
19987TIP3   OH281451   4.126   4.155   1.241  0.2601 -0.1735  0.1815
19987TIP3    H181452   4.174   4.098   1.300  1.7465  1.2701  0.4296
19987TIP3    H281453   4.153   4.128   1.153  0.5100 -0.2237  0.2750
19988TIP3   OH281454   6.127   2.830   3.754  0.1831 -0.1110 -0.3076
19988TIP3    H181455   6.102   2.917   3.783 -1.1165 -0.3655 -0.5862
19988TIP3    H281456   6.118   2.775   3.832 -0.9754 -0.3541 -0.5980
19989TIP3   OH281457   3.990   3.801   4.370 -0.6030  0.2723  0.2553
19989TIP3    H181458   3.913   3.855   4.386 -1.0916 -1.1980  3.8513
19989TIP3    H281459   4.059   3.841   4.422 -0.1498 -0.8353  0.5522
19990TIP3   OH281460   4.569   4.842   2.988  0.6002  0.0616 -0.2885
19990TIP3    H181461   4.584   4.936   2.989  1.4265 -0.0406 -1.2382
19990TIP3    H281462   4.634   4.806   3.048 -0.5855  0.1879  1.1066
19991TIP3   OH281463   3.223   0.338  14.624 -0.6104  0.0630 -0.0707
19991TIP3    H181464   3.317   0.337  14.607 -0.3059 -2.4974  1.2432
19991TIP3    H281465   3.188   0.269  14.567 -1.8937  1.6615 -1.2924
19992TIP3   OH281466   0.533   2.910   1.052  0.1984 -0.1210 -0.3038
19992TIP3    H181467   0.514   2.886   1.143 -1.3374 -2.3316 -1.1379
19992TIP3    H281468   0.456   2.957   1.022  0.1244 -0.5811 -0.8514
19993TIP3   OH281469   0.635   1.045  11.797 -0.9580 -0.1946  0.1264
19993TIP3    H181470   0.726   1.063  11.822 -0.7474 -1.4743  0.3798
19993TIP3    H281471   0.591   1.129  11.803  0.4514  0.6787 -1.0740
19994TIP3   OH281472   0.453   4.769  15.633  0.0639 -0.1537  0.1657
19994TIP3    H181473   0.491   4.751  15.720  1.3273 -1.6442 -0.6403
19994TIP3    H281474   0.492   4.853  15.608  0.0554  0.0610  0.8349
19995TIP3   OH281475   6.007   4.504  10.656  0.0426  0.3281 -0.0028
19995TIP3    H181476   6.017   4.409  10.650 -0.7073  0.1280  1.6723
19995TIP3    H281477   5.926   4.523  10.609 -2.2800 -0.4608  3.3508
19996TIP3   OH281478   1.886   4.187  17.134 -0.1584  0.6527  0.6738
19996TIP3    H181479   1.814   4.123  17.132  0.1447  0.3082  0.7025
19996TIP3    H281480   1.873   4.241  17.056  0.4403 -0.3903 -0.1730
19997TIP3   OH281481   6.465   4.422   4.937  0.1306 -0.2771 -0.2772
19997TIP3    H181482   6.428   4.397   5.022  2.5846 -0.8540  0.7067
19997TIP3    H281483   6.393   4.409   4.875 -0.9296 -2.6123  1.2908
19998TIP3   OH281484   4.414   5.766   1.227 -0.0233 -0.4806 -0.0866
19998TIP3    H181485   4.385   5.852   1.197  1.3756  0.4036  0.9454
19998TIP3    H281486   4.489   5.745   1.171  0.8001 -0.1512  0.8778
19999TIP3   OH281487   6.290   2.649   1.498  0.0340  0.2222 -0.6697
19999TIP3    H181488   6.371   2.611   1.531 -0.3151 -1.5064 -1.6922
19999TIP3    H281489   6.247   2.685   1.576  1.3151  0.3373  0.0215
20000TIP3   OH281490   5.943   0.842   0.748 -0.1635  0.3827  0.3678
20000TIP3    H181491   5.988   0.761   0.727  1.6189  1.2993  0.4452
20000TIP3    H281492   5.961   0.901   0.675 -0.0382  1.2301  1.0507
20001TIP3   OH281493   3.898   2.753  15.586  0.4020 -0.2436 -0.0020
20001TIP3    H181494   3.890   2.793  15.500  2.6677 -0.3942 -0.3369
20001TIP3    H281495   3.850   2.812  15.645 -0.5307  0.2592 -1.2241
20002TIP3   OH281496   1.527   6.034  11.529  0.3161  0.0258  0.5542
20002TIP3    H181497   1.440   5.998  11.514 -0.3157  0.3736  2.9087
20002TIP3    H281498   1.569   5.971  11.588  1.3226  0.3168  0.1648
20003TIP3   OH281499   0.718   4.878  12.603  0.2113 -0.1463  0.2565
20003TIP3    H181500   0.700   4.860  12.695  0.3849  0.5535  0.4310
20003TIP3    H281501   0.813   4.876  12.596  0.2491  0.8503  0.3210
20004TIP3   OH281502   6.429   6.297  14.421 -0.3444  0.4039  0.2190
20004TIP3    H181503   6.484   6.299  14.499  1.0552  0.6340 -0.7300
20004TIP3    H281504   6.365   6.228  14.439 -1.7157  2.1639  2.5937
20005TIP3   OH281505   1.695   4.202   1.151  0.3053 -0.4488  0.0969
20005TIP3    H181506   1.671   4.292   1.172  4.5174  0.5713  1.4400
20005TIP3    H281507   1.757   4.210   1.078  0.3198 -2.3530 -0.1591
20006TIP3   OH281508   1.250   0.537  11.845  0.1934  0.2479  0.2968
20006TIP3    H181509   1.274   0.512  11.934  1.0413  1.7304  0.5088
20006TIP3    H281510   1.260   0.456  11.795  0.6956 -0.3729  1.3537
20007TIP3   OH281511   2.734   5.750   0.691 -0.0984  0.3522 -0.1295
20007TIP3    H181512   2.740   5.679   0.755  0.1980  1.2544  0.8805
20007TIP3    H281513   2.808   5.736   0.633  0.3778  0.2300  0.4905
20008TIP3   OH281514   2.920   1.778  16.545  0.3320  0.3137 -0.7850
20008TIP3    H181515   2.958   1.745  16.464  0.5558  1.9717 -1.3876
20008TIP3    H281516   2.935   1.708  16.609  0.5692 -0.8151 -2.0489
20009TIP3   OH281517   5.405   5.284  14.706  0.1197  0.2190  0.6799
20009TIP3    H181518   5.491   5.278  14.746  1.4889 -0.5566 -2.1129
20009TIP3    H281519   5.400   5.373  14.672 -0.3937  0.3956  1.1907
20010TIP3   OH281520   6.689   5.145  11.833  0.1898 -0.1077  0.6188
20010TIP3    H181521   6.664   5.171  11.922 -1.2678 -0.0117  0.2059
20010TIP3    H281522   6.710   5.228  11.790  1.0576 -0.1679  0.8955
20011TIP3   OH281523   3.307   4.813  16.033  0.1352 -0.0867  0.0107
20011TIP3    H181524   3.272   4.767  16.109  0.2657  2.5185  1.7687
20011TIP3    H281525   3.252   4.891  16.025  2.5831  1.7554 -0.0037
20012TIP3   OH281526   6.096   1.710   4.249  0.7264  0.3116  0.7138
20012TIP3    H181527   6.080   1.799   4.280  1.1619  1.6159 -2.3753
20012TIP3    H281528   6.189   1.707   4.230  0.7261 -0.8131  0.8113
20013TIP3   OH281529   4.244   0.445  11.713 -0.1220 -0.3516  0.2756
20013TIP3    H181530   4.165   0.393  11.730 -1.6193  1.2706 -1.2058
20013TIP3    H281531   4.222   0.532  11.746  1.1521  0.0876  0.0211
20014TIP3   OH281532   5.081   2.016  15.588  0.0025  0.0535  0.3016
20014TIP3    H181533   5.174   2.038  15.591 -0.2211  1.3316 -1.0440
20014TIP3    H281534   5.078   1.922  15.608  1.4784  0.1598  1.2047
20015TIP3   OH281535   4.048   5.538  15.828 -0.2687 -0.1359 -0.7334
20015TIP3    H181536   4.122   5.579  15.872  0.7125 -0.2275 -2.1990
20015TIP3    H281537   4.039   5.453  15.871  2.0113 -1.1032 -1.9718
20016TIP3   OH281538   5.748   3.610   2.629  0.4558  0.2571  0.0855
20016TIP3    H181539   5.682   3.651   2.685  0.8868  1.2169 -0.0902
20016TIP3    H281540   5.811   3.571   2.690 -0.9103 -1.7994  0.2713
20017TIP3   OH281541   6.275   6.034  16.603 -0.2273 -0.9655 -0.3449
20017TIP3    H181542   6.181   6.015  16.599 -0.4829  0.0768  0.2984
20017TIP3    H281543   6.306   5.987  16.681  0.0828 -2.3802 -1.2692
20018TIP3   OH281544   1.125   0.570  16.536  0.2796 -0.2333  0.2181
20018TIP3    H181545   1.096   0.581  16.445 -0.6546  0.6246  0.5997
20018TIP3    H281546   1.167   0.653  16.558 -0.5749  0.0279  0.9309
20019TIP3   OH281547   1.405   2.638   4.019 -0.0593 -0.2707  0.7865
20019TIP3    H181548   1.376   2.570   3.959  1.3899 -0.1002 -0.1544
20019TIP3    H281549   1.489   2.668   3.983 -0.0017  1.0568  1.9315
20020TIP3   OH281550   4.590   5.160  16.525  0.0659  0.5904  0.1026
20020TIP3    H181551   4.603   5.229  16.460  0.9522  1.2862  0.9988
20020TIP3    H281552   4.535   5.200  16.592 -2.3385 -0.6638 -1.0066
20021TIP3   OH281553   3.860   5.250  12.294 -0.3109  0.3791  0.0746
20021TIP3    H181554   3.851   5.157  12.315 -0.5772  0.3861 -0.0045
20021TIP3    H281555   3.782   5.291  12.333 -1.4786  0.2223 -1.9487
20022TIP3   OH281556   5.824   3.046  11.199 -0.4316 -0.3460  0.1995
20022TIP3    H181557   5.911   3.012  11.216 -0.5344 -1.5068 -1.3418
20022TIP3    H281558   5.781   2.978  11.147 -1.6126  0.9590 -0.6278
20023TIP3   OH281559   0.919   5.565  13.806  0.4480 -0.4124 -0.7619
20023TIP3    H181560   0.988   5.514  13.764  0.0839  0.0428 -1.9593
20023TIP3    H281561   0.864   5.595  13.734 -0.1163  0.5362  0.0335
20024TIP3   OH281562   2.850   1.769  12.594 -0.3681 -0.1892 -0.6880
20024TIP3    H181563   2.827   1.677  12.607 -1.7695 -0.2255 -2.8602
20024TIP3    H281564   2.786   1.818  12.646 -0.1178 -0.4172 -0.1583
20025TIP3   OH281565   4.509   0.642  14.668 -0.4288  0.3370 -0.3583
20025TIP3    H181566   4.436   0.630  14.607 -0.7849 -0.0101  0.1338
20025TIP3    H281567   4.470   0.633  14.755 -0.3201  2.8307  0.0228
20026TIP3   OH281568   2.668   6.082  13.121  0.3812 -0.8216  0.1340
20026TIP3    H181569   2.592   6.136  13.096  1.3321 -0.1346 -1.3959
20026TIP3    H281570   2.700   6.122  13.201  0.5827  0.4432 -0.5471
20027TIP3   OH281571   2.440   3.535  15.289 -0.2583  0.2832  0.2195
20027TIP3    H181572   2.438   3.546  15.384  0.3179 -2.0649  0.5551
20027TIP3    H281573   2.359   3.489  15.269  0.5308 -1.0073 -0.1264
20028TIP3   OH281574   2.351   6.065  14.742  0.2358  0.0910 -0.1137
20028TIP3    H181575   2.302   6.080  14.661  1.7161  0.4589 -0.9710
20028TIP3    H281576   2.423   6.128  14.739 -1.6312  2.7613  3.2419
20029TIP3   OH281577   6.667   2.788  12.208 -0.6181  0.2056  0.7397
20029TIP3    H181578   6.630   2.724  12.269 -0.8056 -0.6911 -0.2830
20029TIP3    H281579   6.730   2.838  12.261 -0.7460 -0.5685  1.6550
20030TIP3   OH281580   2.261   4.629   0.192 -0.0585 -0.0692  0.4285
20030TIP3    H181581   2.320   4.557   0.174 -0.2192 -0.0419 -0.2628
20030TIP3    H281582   2.311   4.708   0.168 -0.9500 -0.1308 -1.9864
20031TIP3   OH281583   3.331   5.452  11.881 -0.1244 -0.0614 -0.2532
20031TIP3    H181584   3.321   5.356  11.884  1.3262 -0.3076 -1.7701
20031TIP3    H281585   3.393   5.472  11.951  0.8094 -0.4563 -0.9463
20032TIP3   OH281586   0.521   2.342  15.543 -0.1510 -0.0736  0.5827
20032TIP3    H181587   0.443   2.383  15.506  0.1342  1.5508  1.6864
20032TIP3    H281588   0.495   2.252  15.562 -1.2663 -0.0047 -0.4989
20033TIP3   OH281589   1.099   2.039  10.924  0.4689  0.2626 -0.4303
20033TIP3    H181590   1.134   2.077  10.844 -1.0785 -2.5330 -2.5948
20033TIP3    H281591   1.134   1.950  10.926 -3.2539 -1.4134 -0.7507
20034TIP3   OH281592   2.107   0.382   3.304  0.6852  0.0331 -0.3481
20034TIP3    H181593   2.073   0.389   3.393  1.0422  2.9651 -0.3328
20034TIP3    H281594   2.029   0.370   3.249  0.1373  1.1024  0.1597
20035TIP3   OH281595   4.317   3.934  16.862  0.1335  0.6328 -0.2142
20035TIP3    H181596   4.295   3.975  16.945 -2.5033  0.7819 -0.9155
20035TIP3    H281597   4.375   3.997  16.819 -1.9073  2.5861 -0.2551
20036TIP3   OH281598   0.275   4.907   4.879 -0.0610  0.5082 -0.1407
20036TIP3    H181599   0.369   4.915   4.860 -0.1651  0.8941 -0.5089
20036TIP3    H281600   0.265   4.818   4.912  0.5394  0.6750  0.5038
20037TIP3   OH281601   1.637   2.494   0.439  0.4299  0.0566  0.6052
20037TIP3    H181602   1.671   2.565   0.384 -0.9421  0.3685  0.1336
20037TIP3    H281603   1.548   2.480   0.408 -0.7001  0.7737  3.2256
20038TIP3   OH281604   6.372   2.859  10.708  0.7547 -0.6339  0.1613
20038TIP3    H181605   6.353   2.910  10.629 -3.5681  1.5269  2.2686
20038TIP3    H281606   6.462   2.882  10.731  1.5551 -0.0557 -3.1028
20039TIP3   OH281607   4.778   1.236   2.087 -1.0153  0.1315  0.0685
20039TIP3    H181608   4.704   1.292   2.110 -1.5135 -0.9900  1.3756
20039TIP3    H281609   4.739   1.149   2.077 -0.2924  0.0027 -2.0594
20040TIP3   OH281610   5.072   2.950   1.659 -0.4830  0.2440 -0.2069
20040TIP3    H181611   5.134   2.883   1.687 -0.9078 -0.8344 -1.7186
20040TIP3    H281612   5.034   2.983   1.740 -1.4281 -2.4863  0.5797
20041TIP3   OH281613   5.480   2.372   6.677 -0.0911  1.0495  0.1556
20041TIP3    H181614   5.431   2.334   6.604 -0.2027  4.7192 -1.8625
20041TIP3    H281615   5.563   2.324   6.677 -1.0246 -0.6805 -0.7169
20042TIP3   OH281616   0.187   3.164  15.852  0.1466 -0.4203 -0.0437
20042TIP3    H181617   0.159   3.252  15.831  1.2849  0.2855  1.2296
20042TIP3    H281618   0.111   3.109  15.834 -0.1295  0.5870 -2.2428
20043TIP3   OH281619   1.093   1.977   3.029  0.1833 -0.2147  0.0953
20043TIP3    H181620   1.063   1.923   3.102  1.0577  0.5210  1.0255
20043TIP3    H281621   1.189   1.973   3.033  0.2787  1.5144  0.2988
20044TIP3   OH281622   4.607   6.251   2.405  0.2041  0.0485 -0.0389
20044TIP3    H181623   4.633   6.160   2.393 -0.5288 -0.2708  0.7860
20044TIP3    H281624   4.553   6.271   2.328 -0.8666 -0.6699  0.5116
20045TIP3   OH281625   5.523   6.562   0.917 -0.4662  0.0259  0.2107
20045TIP3    H181626   5.592   6.517   0.967 -1.4707 -1.7335  0.0941
20045TIP3    H281627   5.565   6.583   0.833  0.0662 -0.6968  0.2804
20046TIP3   OH281628   2.909   6.020  10.530 -0.0561 -0.0525  0.1665
20046TIP3    H181629   2.984   5.963  10.545 -0.9376 -1.1523  0.5808
20046TIP3    H281630   2.868   6.031  10.616 -1.2089 -0.7190 -0.2662
20047TIP3   OH281631   3.941   1.371   1.954 -0.0836  0.3152  0.0941
20047TIP3    H181632   3.965   1.393   2.044 -1.1317  2.1501 -0.0365
20047TIP3    H281633   3.940   1.454   1.908 -0.5548 -0.4781 -1.3893
20048TIP3   OH281634   3.247   1.292  15.689  0.1848 -0.0207  0.3748
20048TIP3    H181635   3.191   1.237  15.744  1.0868 -3.3181 -1.7544
20048TIP3    H281636   3.334   1.253  15.695  0.6474  0.4281 -2.1322
20049TIP3   OH281637   5.286   6.409  11.571  0.2980  0.0586  0.4661
20049TIP3    H181638   5.322   6.343  11.512 -0.7391 -0.4798  0.4192
20049TIP3    H281639   5.224   6.361  11.625  0.9702  0.6147  1.7730
20050TIP3   OH281640   6.653   2.921  11.039  0.3126 -0.2408  0.6786
20050TIP3    H181641   6.636   3.014  11.028  0.8040  0.0385  2.1321
20050TIP3    H281642   6.645   2.885  10.951 -0.3674  1.0836  0.1672
20051TIP3   OH281643   3.678   1.769  14.017 -0.2550 -0.2884  0.1400
20051TIP3    H181644   3.651   1.858  14.041 -1.4110 -0.3409 -0.8783
20051TIP3    H281645   3.742   1.782  13.947 -1.2119 -0.2594 -0.7525
20052TIP3   OH281646   2.706   0.068  14.734  0.4755 -0.3177  0.1572
20052TIP3    H181647   2.730  -0.025  14.731  1.3518 -0.0822 -0.8210
20052TIP3    H281648   2.635   0.077  14.671  0.5140 -0.2970  0.1160
20053TIP3   OH281649   4.494   1.149  10.701 -0.1929 -0.5310  0.4883
20053TIP3    H181650   4.441   1.201  10.640 -0.4030 -1.3632 -0.0584
20053TIP3    H281651   4.579   1.194  10.704 -0.5843  0.2243  0.5665
20054TIP3   OH281652   0.648   5.353  12.023 -0.1375  0.2822  0.6203
20054TIP3    H181653   0.567   5.359  12.073 -0.2919  0.6024  0.3379
20054TIP3    H281654   0.666   5.443  11.995 -0.6726 -0.0497 -0.8639
20055TIP3   OH281655   5.874   5.878  14.702  0.5516  0.2030 -0.2545
20055TIP3    H181656   5.969   5.892  14.713  0.4997  0.3016  0.1061
20055TIP3    H281657   5.866   5.832  14.619  0.8928  0.4923 -0.4550
20056TIP3   OH281658   0.830   2.973  16.240  0.1678 -0.6907 -0.2874
20056TIP3    H181659   0.792   3.059  16.260  0.9186 -0.6496  1.0944
20056TIP3    H281660   0.920   2.993  16.215 -0.3083 -0.8952 -2.3251
20057TIP3   OH281661   5.482   2.158  17.038 -0.0248 -0.0378 -0.1070
20057TIP3    H181662   5.539   2.090  17.003 -1.5202 -1.1446 -0.4724
20057TIP3    H281663   5.463   2.214  16.963  0.3362  0.1800 -0.0424
20058TIP3   OH281664   3.581   5.692  15.131  0.0984  0.0702  0.2153
20058TIP3    H181665   3.587   5.601  15.100 -0.7551 -0.1613  0.6719
20058TIP3    H281666   3.613   5.688  15.221 -0.1360  0.1718  0.3055
20059TIP3   OH281667   1.262   4.959   6.066  0.0317 -0.0217 -0.6755
20059TIP3    H181668   1.293   4.940   6.154  0.9436  0.3093 -0.9141
20059TIP3    H281669   1.327   4.920   6.008 -2.0215 -2.8783 -1.3121
20060TIP3   OH281670   6.758   6.526   0.003 -0.2178 -0.1225 -0.6712
20060TIP3    H181671   6.772   6.431  -0.000 -0.6784 -0.1825 -0.8896
20060TIP3    H281672   6.663   6.537  -0.004 -0.0242  0.4725 -3.3883
20061TIP3   OH281673   6.031   6.231   1.000  0.0301 -0.0399 -0.0860
20061TIP3    H181674   5.947   6.186   1.000 -0.4876  0.8422  1.7828
20061TIP3    H281675   6.024   6.293   0.927 -0.4511 -0.7850 -0.6925
20062TIP3   OH281676   5.417   4.775  16.738 -0.4703 -0.0713 -0.1633
20062TIP3    H181677   5.348   4.817  16.789 -0.1505 -0.6205  0.7575
20062TIP3    H281678   5.384   4.686  16.721 -1.1675  0.5120 -2.1412
20063TIP3   OH281679   5.242   4.173   2.233 -0.2781  0.2376  0.4618
20063TIP3    H181680   5.331   4.137   2.238  0.0463  0.7199 -1.1577
20063TIP3    H281681   5.191   4.103   2.192 -0.2462  0.6081 -0.2157
20064TIP3   OH281682   3.698   1.303  12.655 -0.4935 -0.8070 -0.5110
20064TIP3    H181683   3.758   1.361  12.608 -0.7090 -0.1955 -0.0413
20064TIP3    H281684   3.627   1.286  12.594 -0.9375  0.2515 -0.2993
20065TIP3   OH281685   3.369   1.243  13.952  0.7000 -0.0105 -0.2350
20065TIP3    H181686   3.426   1.312  13.918  0.3621  1.0264  1.2186
20065TIP3    H281687   3.334   1.200  13.874  1.1212  1.2919 -1.1646
20066TIP3   OH281688   4.698   0.423   0.571  0.0186 -0.5534  0.0614
20066TIP3    H181689   4.666   0.445   0.659 -0.0927  1.4342 -0.4372
20066TIP3    H281690   4.630   0.368   0.533 -2.2466  2.4176 -0.4640
20067TIP3   OH281691   3.845   4.968  11.635 -0.0440  0.1319  0.0395
20067TIP3    H181692   3.859   4.882  11.596 -0.9494  0.2708 -0.6242
20067TIP3    H281693   3.775   5.007  11.583 -0.7132  0.6585  1.2888
20068TIP3   OH281694   2.508   6.340   5.937  0.3217  0.1793  0.1769
20068TIP3    H181695   2.539   6.429   5.956 -1.4083  0.5499  1.4335
20068TIP3    H281696   2.413   6.345   5.946  0.1584 -1.7279 -0.1263
20069TIP3   OH281697   2.564   6.266  14.098  0.0981  0.3789  0.4655
20069TIP3    H181698   2.479   6.310  14.099  0.4067  1.0666 -0.6987
20069TIP3    H281699   2.608   6.303  14.021  1.0168 -0.7882  0.4104
20070TIP3   OH281700   1.999   2.078   0.624  0.0999  0.1027  0.6867
20070TIP3    H181701   1.965   1.996   0.660 -0.2579 -0.1411 -0.1917
20070TIP3    H281702   1.953   2.089   0.541 -1.0296  2.0144  1.4952
20071TIP3   OH281703   5.695   5.271   4.137 -0.3901  0.2347  0.1990
20071TIP3    H181704   5.685   5.359   4.101  0.2346  0.3992  0.4185
20071TIP3    H281705   5.772   5.277   4.193 -0.9032 -0.2135  0.9573
20072TIP3   OH281706   3.653   2.917   3.365 -0.4838  0.0569  0.0326
20072TIP3    H181707   3.605   2.861   3.426 -1.1379  2.0323  1.4007
20072TIP3    H281708   3.586   2.952   3.306 -0.7299  2.4171  1.6285
20073TIP3   OH281709   1.014   5.053  13.700 -0.8037 -0.1794  0.6123
20073TIP3    H181710   1.032   4.977  13.645 -0.3149 -0.9934  1.8736
20073TIP3    H281711   0.930   5.033  13.742 -2.3463  1.4213 -1.4451
20074TIP3   OH281712   2.464   5.277  16.498  0.1306  0.1525  0.6065
20074TIP3    H181713   2.439   5.368  16.482  0.2047  0.1466  0.4507
20074TIP3    H281714   2.441   5.232  16.417  0.8166  0.1854  0.3819
20075TIP3   OH281715   3.747   6.770  15.598  0.0085 -0.2584  0.0443
20075TIP3    H181716   3.698   6.850  15.617 -0.6376 -0.2627 -1.3997
20075TIP3    H281717   3.781   6.784  15.509 -1.0314 -1.9884 -0.6706
20076TIP3   OH281718   3.844   1.588  17.021  0.1681 -0.3229  0.4032
20076TIP3    H181719   3.790   1.512  17.045 -0.1616 -0.2593 -0.1224
20076TIP3    H281720   3.823   1.654  17.087 -1.9051  0.4009 -0.8705
20077TIP3   OH281721   2.593   0.491  12.055 -0.0079 -0.6287 -0.2032
20077TIP3    H181722   2.547   0.408  12.060  2.9201 -2.3255  2.4485
20077TIP3    H281723   2.543   0.550  12.111 -0.4655 -1.5906  0.4334
20078TIP3   OH281724   5.803   0.894   4.415  0.0998  0.1467  0.1236
20078TIP3    H181725   5.787   0.802   4.392 -0.1148 -0.0866  1.1608
20078TIP3    H281726   5.716   0.929   4.435  0.3162  0.2571  0.8719
20079TIP3   OH281727   6.474   0.820   3.043  0.5305 -0.1928  0.0733
20079TIP3    H181728   6.397   0.794   3.092  0.2146  0.1188 -0.2512
20079TIP3    H281729   6.529   0.741   3.040  0.9486  0.0040  1.6363
20080TIP3   OH281730   2.409   5.839   6.354  0.3714  0.2064  0.0083
20080TIP3    H181731   2.407   5.927   6.316 -0.3186  0.6139  0.9444
20080TIP3    H281732   2.353   5.786   6.297 -0.2501  0.6884  0.1673
20081TIP3   OH281733   6.464   6.477  14.912 -0.1060  0.3137  0.3789
20081TIP3    H181734   6.408   6.452  14.838 -1.4517  0.5705  1.2822
20081TIP3    H281735   6.508   6.557  14.883  0.1113 -0.1165 -0.4997
20082TIP3   OH281736   4.731   3.796  12.513 -0.1120  0.0276 -0.1201
20082TIP3    H181737   4.795   3.725  12.522  0.7905  1.0078  1.7069
20082TIP3    H281738   4.681   3.773  12.434  0.7415 -2.1384 -0.0999
20083TIP3   OH281739   5.677   4.768   5.777  0.1764  0.2627 -0.7511
20083TIP3    H181740   5.694   4.693   5.719  1.1700  0.2638 -0.4885
20083TIP3    H281741   5.764   4.794   5.808 -0.3044  0.5306  0.4134
20084TIP3   OH281742   5.504   6.713   2.809 -0.2033  0.4351 -0.0775
20084TIP3    H181743   5.435   6.709   2.742  0.4762 -2.5321 -0.7363
20084TIP3    H281744   5.568   6.774   2.772 -0.4601 -0.1244 -1.5378
20085TIP3   OH281745   1.618   3.217  12.069 -0.1761 -0.5013 -0.3856
20085TIP3    H181746   1.622   3.234  11.975 -0.3523 -0.0218 -0.3067
20085TIP3    H281747   1.678   3.144  12.083 -0.5941 -0.9607 -0.9573
20086TIP3   OH281748   3.890   4.475   3.077  0.5749  0.2043  0.4367
20086TIP3    H181749   3.946   4.417   3.129 -1.2053 -1.4575  0.6119
20086TIP3    H281750   3.931   4.476   2.990  0.6826 -1.2832  0.4470
20087TIP3   OH281751   3.650   5.743  13.246  0.1444 -0.0326  0.3843
20087TIP3    H181752   3.696   5.709  13.323  0.5263 -0.5820 -0.0732
20087TIP3    H281753   3.617   5.665  13.202 -0.9989  0.3379  0.5525
20088TIP3   OH281754   1.672   1.267   3.813  0.4397  0.0978 -0.3948
20088TIP3    H181755   1.698   1.331   3.880 -2.2872  1.2470 -0.3159
20088TIP3    H281756   1.743   1.203   3.813  2.1700  1.8633  1.1847
20089TIP3   OH281757   6.407   2.510  16.058  0.1333  0.0496 -0.3216
20089TIP3    H181758   6.492   2.540  16.091 -0.8458  0.6663  1.7335
20089TIP3    H281759   6.343   2.571  16.094 -1.2308 -0.3759 -1.8567
20090TIP3   OH281760   1.419   6.659   5.319 -0.5760  0.0742  0.0232
20090TIP3    H181761   1.506   6.633   5.290  0.2128  1.7201  0.7737
20090TIP3    H281762   1.408   6.617   5.404  1.3601  3.1363  2.0057
20091TIP3   OH281763   0.271   3.550  11.142 -0.3518  0.6341  0.2559
20091TIP3    H181764   0.247   3.642  11.129 -2.0701 -0.0299 -1.8537
20091TIP3    H281765   0.314   3.524  11.060 -0.6873 -0.6754  0.4713
20092TIP3   OH281766   1.784   3.980  10.615  0.7637 -0.9078  0.0069
20092TIP3    H181767   1.774   4.036  10.538 -2.5711 -2.1801 -0.6508
20092TIP3    H281768   1.804   4.040  10.687  2.1218  0.5021 -1.4856
20093TIP3   OH281769   4.484   4.183   4.619 -0.5214  0.1894  0.0471
20093TIP3    H181770   4.486   4.149   4.708  0.8719  0.4668  0.1417
20093TIP3    H281771   4.396   4.220   4.610  0.0699  2.3470  2.1617
20094TIP3   OH281772   0.772   4.913  14.988 -0.3211  0.4293  0.1493
20094TIP3    H181773   0.702   4.847  14.983  0.8929 -0.9653  0.8422
20094TIP3    H281774   0.806   4.919  14.899 -2.0602  2.0209 -0.4761
20095TIP3   OH281775   0.411   6.629  16.291  0.0721  0.9789  0.0352
20095TIP3    H181776   0.340   6.598  16.347 -0.5104  0.2082 -1.0819
20095TIP3    H281777   0.402   6.578  16.211  0.9912  1.9117 -0.6908
20096TIP3   OH281778   3.968   3.398  16.356 -0.0028  0.4867 -0.1840
20096TIP3    H181779   4.063   3.407  16.365  0.0181  0.1371 -0.0578
20096TIP3    H281780   3.953   3.304  16.353 -0.2250  0.5410 -1.4554
20097TIP3   OH281781   1.721   2.816  13.395  0.0328 -0.0648  0.6498
20097TIP3    H181782   1.703   2.822  13.489 -0.0523 -0.3421  0.6532
20097TIP3    H281783   1.648   2.861  13.354  0.7325  1.2039  0.7602
20098TIP3   OH281784   1.008   4.710   0.228  0.2002 -0.0883  0.3299
20098TIP3    H181785   1.089   4.666   0.203  0.0679  0.2822 -0.8563
20098TIP3    H281786   1.023   4.802   0.205 -0.4987  0.0044  0.2146
20099TIP3   OH281787   3.160   3.430  15.525 -0.1677  0.2444  0.0866
20099TIP3    H181788   3.111   3.457  15.447 -0.3427 -0.9977 -0.2496
20099TIP3    H281789   3.151   3.504  15.585 -1.2491  0.6329 -0.5155
20100TIP3   OH281790   0.943   1.271  14.725  0.2057  0.0406 -0.2371
20100TIP3    H181791   0.912   1.193  14.678  0.0555 -1.1402  1.6932
20100TIP3    H281792   1.038   1.263  14.724  0.1857 -1.3988  1.7304
20101TIP3   OH281793   3.557   6.809   3.470  0.1335 -0.1759 -0.1356
20101TIP3    H181794   3.484   6.869   3.454  1.0725  1.2382  0.6818
20101TIP3    H281795   3.557   6.796   3.565  0.1605 -1.2155 -0.2632
20102TIP3   OH281796   5.564   3.063  13.174  0.2665 -0.2511 -0.2009
20102TIP3    H181797   5.543   2.979  13.133  1.3597 -0.6247 -0.0138
20102TIP3    H281798   5.571   3.044  13.267  2.7816 -0.4688 -0.3709
20103TIP3   OH281799   4.800   4.533   1.024 -0.3250 -0.3943  0.5552
20103TIP3    H181800   4.727   4.530   1.086 -1.7428 -0.8591 -1.0383
20103TIP3    H281801   4.814   4.442   0.999  0.0981 -0.1952  0.0607
20104TIP3   OH281802   2.498   2.589   0.667 -0.3188  0.2339  0.1262
20104TIP3    H181803   2.581   2.564   0.628  0.0420  0.6981  0.5861
20104TIP3    H281804   2.477   2.673   0.627  0.1560  0.8150  1.0642
20105TIP3   OH281805   0.908   2.535  14.734  0.1094 -0.1235 -0.1932
20105TIP3    H181806   0.843   2.465  14.744  0.2264 -0.4497 -1.4795
20105TIP3    H281807   0.882   2.602  14.797 -0.3944 -1.0420  0.6007
20106TIP3   OH281808   4.801   1.224  15.712 -0.2702  0.2477 -0.2850
20106TIP3    H181809   4.875   1.280  15.686 -0.8084  0.4626 -1.4308
20106TIP3    H281810   4.747   1.280  15.767  0.8303 -0.1743  1.3072
20107TIP3   OH281811   6.661   6.581   0.305 -0.1979  0.3243 -0.3163
20107TIP3    H181812   6.659   6.490   0.332  0.7280  0.5321  0.5080
20107TIP3    H281813   6.732   6.587   0.242  0.8800  0.7787  0.8942
20108TIP3   OH281814   5.823   3.234  14.535 -0.0879  0.0537  0.2806
20108TIP3    H181815   5.782   3.319  14.517 -0.9443 -0.6799 -1.3617
20108TIP3    H281816   5.834   3.193  14.450  0.6684 -1.3565  1.0138
20109TIP3   OH281817   5.123   1.505  13.474  0.1527  0.0522 -0.5594
20109TIP3    H181818   5.102   1.478  13.384  0.2488 -0.2488 -0.4914
20109TIP3    H281819   5.081   1.591  13.483 -1.4267 -0.6999 -0.2919
20110TIP3   OH281820   2.645   0.054   4.989  0.4318  0.9256  0.3341
20110TIP3    H181821   2.710   0.088   5.050  1.9497 -1.1885  0.0155
20110TIP3    H281822   2.670   0.092   4.904  0.6688  0.8961  0.3891
20111TIP3   OH281823   3.126   6.318   2.496  0.5761  0.3172  0.3248
20111TIP3    H181824   3.210   6.338   2.536  0.4316  0.2428  0.6641
20111TIP3    H281825   3.148   6.261   2.422  0.8084  0.1545  0.5168
20112TIP3   OH281826   6.203   6.040  13.709 -0.4221  0.2315  0.3247
20112TIP3    H181827   6.188   5.959  13.661  0.5951  0.3661 -0.2387
20112TIP3    H281828   6.142   6.036  13.782 -2.2282  0.1392 -1.1080
20113TIP3   OH281829   3.429   2.763   5.194 -0.3527  0.3733 -0.7636
20113TIP3    H181830   3.510   2.715   5.175 -0.3983  1.0668 -2.9468
20113TIP3    H281831   3.444   2.851   5.159 -2.1585  0.4159 -1.5219
20114TIP3   OH281832   5.444   2.650   3.155  0.2464  0.1679 -0.2220
20114TIP3    H181833   5.500   2.645   3.077  0.4651 -0.0702 -0.0556
20114TIP3    H281834   5.367   2.699   3.127 -0.0687 -0.6370 -0.8236
20115TIP3   OH281835   2.215   4.929  11.950 -0.2610  0.5676 -0.0127
20115TIP3    H181836   2.280   4.860  11.951  0.8444  1.4852 -1.9634
20115TIP3    H281837   2.247   4.993  12.013 -0.2705  0.1650  0.4015
20116TIP3   OH281838   2.103   0.551  14.578 -0.1397  0.0303  0.2926
20116TIP3    H181839   2.015   0.520  14.600  0.1990 -0.8471  0.4433
20116TIP3    H281840   2.161   0.483  14.610  0.6753  1.0448  1.0380
20117TIP3   OH281841   1.834   0.910  10.911  0.1881  0.9260 -0.2254
20117TIP3    H181842   1.768   0.930  10.844 -0.5509 -0.4424  0.0600
20117TIP3    H281843   1.812   0.822  10.941  2.5593  0.1267 -0.6027
20118TIP3   OH281844   4.501   2.238  16.540  0.1595 -0.4115 -0.0667
20118TIP3    H181845   4.533   2.176  16.474  0.3637  0.3364 -0.6929
20118TIP3    H281846   4.544   2.321  16.518 -2.5969  0.8236 -1.3620
20119TIP3   OH281847   3.195   3.772   4.787  0.0045  0.5487 -0.2069
20119TIP3    H181848   3.127   3.746   4.849 -0.1817  1.8542  0.1526
20119TIP3    H281849   3.204   3.696   4.729 -1.1699  0.0422  0.2392
20120TIP3   OH281850   4.607   0.958  11.635  0.3926  0.1291 -0.1818
20120TIP3    H181851   4.636   0.956  11.544  0.8607 -0.0993 -0.0322
20120TIP3    H281852   4.534   1.021  11.636 -0.2688 -0.6063 -0.8899
20121TIP3   OH281853   5.356   3.175  17.122  0.2284 -0.2877  0.1773
20121TIP3    H181854   5.435   3.222  17.148 -0.3525 -0.0334  1.5209
20121TIP3    H281855   5.302   3.171  17.201 -0.7074 -1.2712 -0.4781
20122TIP3   OH281856   1.653   6.355   5.364  0.3619 -0.1285  0.3817
20122TIP3    H181857   1.741   6.352   5.326  0.2136 -1.0081  0.0872
20122TIP3    H281858   1.637   6.448   5.380  0.6849  0.2122 -1.1392
20123TIP3   OH281859   4.737   6.119   5.393  0.0195 -0.0488 -0.6663
20123TIP3    H181860   4.788   6.039   5.379 -0.6009 -0.1959 -2.2265
20123TIP3    H281861   4.803   6.188   5.397  0.5323 -0.5742  0.2668
20124TIP3   OH281862   6.177   5.169   2.705  0.1845  0.4222 -0.1281
20124TIP3    H181863   6.251   5.154   2.645 -0.3242  0.5023 -0.7927
20124TIP3    H281864   6.135   5.248   2.671 -0.6192 -0.0236 -0.1918
20125TIP3   OH281865   3.533   0.945   0.916 -0.4266  0.1912  0.0602
20125TIP3    H181866   3.466   1.005   0.948  0.3321  0.5234  1.0770
20125TIP3    H281867   3.585   0.997   0.855 -1.4705 -0.2572 -1.2687
20126TIP3   OH281868   1.510   1.755  13.477 -0.7768  0.1961 -0.2578
20126TIP3    H181869   1.452   1.786  13.547 -0.4592 -0.9242  0.5340
20126TIP3    H281870   1.489   1.811  13.402 -1.0340  1.5269  0.7543
20127TIP3   OH281871   5.535   3.324   1.413 -0.5155  0.5305  0.3256
20127TIP3    H181872   5.586   3.344   1.335 -0.6319 -0.5668 -0.0492
20127TIP3    H281873   5.592   3.269   1.466  0.1880  2.5589  1.8216
20128TIP3   OH281874   3.290   2.249  15.023  1.0806  0.1858 -0.4955
20128TIP3    H181875   3.342   2.313  15.072 -0.8091  2.4706 -1.3050
20128TIP3    H281876   3.245   2.300  14.956 -4.0460 -1.0087  1.5347
20129TIP3   OH281877   4.108   3.687  17.158  0.2410 -0.3837  0.0923
20129TIP3    H181878   4.022   3.645  17.163  0.0310 -0.0315 -0.4508
20129TIP3    H281879   4.126   3.717  17.247 -0.3479 -0.1741  0.1434
20130TIP3   OH281880   6.035   2.641   5.301 -0.3322  0.2337  0.3008
20130TIP3    H181881   5.940   2.635   5.297 -0.3580  1.0611 -0.9203
20130TIP3    H281882   6.052   2.713   5.362 -0.5203  0.5532 -0.0177
20131TIP3   OH281883   6.275   1.845  15.034 -0.0501  0.1717 -0.1719
20131TIP3    H181884   6.302   1.911  14.971  2.6424  0.5809  1.2778
20131TIP3    H281885   6.241   1.773  14.981 -0.0457  1.4099 -1.9239
20132TIP3   OH281886   3.890   0.146  11.215  0.1183  0.1098 -0.9926
20132TIP3    H181887   3.911   0.167  11.306 -0.1302  0.8859 -1.1062
20132TIP3    H281888   3.807   0.190  11.199 -1.1045 -2.0076 -0.8671
20133TIP3   OH281889   0.179   0.961  16.570  0.4027  0.0661  0.2251
20133TIP3    H181890   0.251   0.941  16.630 -0.4061  0.9231  1.5470
20133TIP3    H281891   0.199   0.913  16.490  0.7243 -2.4410  1.7086
20134TIP3   OH281892   3.946   6.561  16.462 -0.0754  0.2744  0.2035
20134TIP3    H181893   3.942   6.554  16.366 -1.2532 -1.7116  0.3358
20134TIP3    H281894   4.036   6.539  16.484  0.3040  1.1334 -0.4663
20135TIP3   OH281895   3.601   1.161   2.662 -0.2172 -0.0325 -0.2278
20135TIP3    H181896   3.543   1.084   2.654  0.4968 -0.5864 -0.1591
20135TIP3    H281897   3.633   1.158   2.752  0.9483 -0.4906 -0.6360
20136TIP3   OH281898   6.440   5.005  14.388  0.1603  0.6900 -0.4171
20136TIP3    H181899   6.445   5.062  14.464 -0.3276  1.0734 -0.6635
20136TIP3    H281900   6.348   4.979  14.383  0.6039 -1.3050  0.5319
20137TIP3   OH281901   5.779   1.676  16.592 -0.0048 -0.0070  0.1581
20137TIP3    H181902   5.735   1.664  16.676  0.8363  0.7780  0.7166
20137TIP3    H281903   5.714   1.720  16.537 -0.4857 -0.3438  0.4506
20138TIP3   OH281904   1.191   1.916  12.581 -0.1438 -0.0272 -0.3561
20138TIP3    H181905   1.236   1.834  12.559  1.8192  0.9165 -0.1115
20138TIP3    H281906   1.098   1.896  12.572  0.2796 -2.2766 -0.2842
20139TIP3   OH281907   5.633   0.753  12.634 -0.2806  0.4429  0.3815
20139TIP3    H181908   5.570   0.705  12.580 -0.7977  1.5193 -0.0171
20139TIP3    H281909   5.718   0.724  12.602 -0.5703 -0.4005  0.3400
20140TIP3   OH281910   1.491   0.289  12.731 -0.2503  0.8415  0.2352
20140TIP3    H181911   1.561   0.228  12.754 -0.5992 -0.1689 -1.2436
20140TIP3    H281912   1.410   0.239  12.744 -0.4845  0.0575 -3.1952
20141TIP3   OH281913   2.761   2.951   3.441  0.7208  0.0247 -0.2845
20141TIP3    H181914   2.700   3.025   3.438  0.6704  0.0436  0.7422
20141TIP3    H281915   2.839   2.986   3.483  1.3813 -0.0544 -1.4219
20142TIP3   OH281916   0.244   3.156  13.358  0.2451  0.1753 -0.0908
20142TIP3    H181917   0.251   3.085  13.421  0.5173  0.7874  0.5898
20142TIP3    H281918   0.305   3.223  13.390 -0.2257  0.8405 -0.5463
20143TIP3   OH281919   4.073   1.379  13.608  0.3101  0.4446 -0.3770
20143TIP3    H181920   4.047   1.401  13.519 -0.5713  1.2383  0.0624
20143TIP3    H281921   3.997   1.332  13.644  0.2600  1.0215  0.2813
20144TIP3   OH281922   6.768   0.628   0.896  0.8744  0.2267  0.0767
20144TIP3    H181923   6.833   0.608   0.963 -1.2532 -2.3090  1.6017
20144TIP3    H281924   6.759   0.547   0.846 -2.4086 -0.3116  1.2497
20145TIP3   OH281925   4.701   6.619   3.280 -0.1220  0.2618 -0.4317
20145TIP3    H181926   4.681   6.713   3.275 -0.7137  0.1455 -0.3785
20145TIP3    H281927   4.664   6.584   3.199 -2.4013 -0.3536  0.7941
20146TIP3   OH281928   0.359   1.522  16.689 -0.0250 -0.0098 -0.4603
20146TIP3    H181929   0.413   1.533  16.611  0.1058  0.5707 -0.2920
20146TIP3    H281930   0.422   1.515  16.761 -0.0017 -3.0607 -0.6204
20147TIP3   OH281931   2.169   6.033  12.132 -0.0165  0.6668  0.3795
20147TIP3    H181932   2.131   5.971  12.070 -0.6176  1.7125 -0.3301
20147TIP3    H281933   2.263   6.016  12.128 -0.1433  0.0465 -0.0803
20148TIP3   OH281934   2.717   5.536   4.289  0.1197 -0.1194  0.2199
20148TIP3    H181935   2.714   5.618   4.240  0.6699 -0.0879  0.2287
20148TIP3    H281936   2.759   5.559   4.372 -2.8443  0.3301  1.7293
20149TIP3   OH281937   4.205   5.473  16.823 -0.5716 -0.5429 -0.0939
20149TIP3    H181938   4.187   5.564  16.800 -0.3016 -0.6091 -0.5802
20149TIP3    H281939   4.257   5.478  16.903  0.8543 -0.2091 -1.0168
20150TIP3   OH281940   1.431   3.387   1.271  0.3279  0.0517  0.4780
20150TIP3    H181941   1.484   3.335   1.212 -0.0034 -0.1580  0.3623
20150TIP3    H281942   1.472   3.473   1.272 -1.4568  1.0723 -2.5581
20151TIP3   OH281943   5.518   4.462   2.894  0.1438 -0.4210  0.1124
20151TIP3    H181944   5.522   4.514   2.975 -0.2303  0.0937 -0.1905
20151TIP3    H281945   5.556   4.519   2.828 -0.0448 -0.6312 -0.1767
20152TIP3   OH281946   6.222   4.795   6.248  0.0015  0.3828  0.2225
20152TIP3    H181947   6.131   4.817   6.233 -0.1170  0.6032  1.2004
20152TIP3    H281948   6.232   4.707   6.212 -0.3657  0.7110 -0.6926
20153TIP3   OH281949   6.291   1.724   1.006 -0.0643 -0.0059 -0.1923
20153TIP3    H181950   6.334   1.755   0.926  1.8875  1.5979  1.3567
20153TIP3    H281951   6.342   1.763   1.077 -2.1340 -0.7894  1.8551
20154TIP3   OH281952   1.074   0.099   0.251 -0.9107 -0.4213  0.1988
20154TIP3    H181953   1.141   0.038   0.282  1.2517  0.4863 -2.2717
20154TIP3    H281954   1.033   0.055   0.176  1.0525  1.1408 -1.9724
20155TIP3   OH281955   4.318   6.814  14.251  0.6896  0.3513  0.1527
20155TIP3    H181956   4.224   6.832  14.250  0.8490  1.2318  0.2346
20155TIP3    H281957   4.329   6.754  14.325  0.0689 -0.5572 -0.4624
20156TIP3   OH281958   6.506   5.178  16.555 -0.0519 -0.0126  0.0571
20156TIP3    H181959   6.596   5.147  16.554  0.5431  1.5391  1.4567
20156TIP3    H281960   6.503   5.244  16.486 -0.0150  0.1861  0.2438
20157TIP3   OH281961   0.546   4.412  12.449  0.4784  0.2229  0.1179
20157TIP3    H181962   0.507   4.409  12.362  0.3986 -0.3629  0.1679
20157TIP3    H281963   0.620   4.473  12.441  0.8166 -0.2603 -0.5051
20158TIP3   OH281964   1.775   4.364  16.950  0.1342 -0.4390 -0.1142
20158TIP3    H181965   1.687   4.372  16.913  0.5304  1.5687 -0.7241
20158TIP3    H281966   1.834   4.381  16.876  0.9872  0.8339  0.8216
20159TIP3   OH281967   4.451   0.038   5.387  0.1064 -0.6225  0.6549
20159TIP3    H181968   4.394  -0.002   5.453 -0.2436  1.8843  2.0069
20159TIP3    H281969   4.526   0.071   5.437 -0.2727  1.5266 -0.0776
20160TIP3   OH281970   2.796   2.240   2.434 -0.1222 -0.2533  0.0627
20160TIP3    H181971   2.787   2.146   2.444 -2.2186 -0.2034 -0.9582
20160TIP3    H281972   2.877   2.261   2.481  2.1194 -2.9440 -2.2504
20161TIP3   OH281973   2.837   6.484   0.763 -0.2910 -0.3673  0.1044
20161TIP3    H181974   2.901   6.530   0.709  0.0520  0.3532  1.0792
20161TIP3    H281975   2.830   6.397   0.724 -1.3456  0.6444 -2.0958
20162TIP3   OH281976   1.641   2.093   2.001  0.0124  0.0464 -0.6143
20162TIP3    H181977   1.625   2.051   1.916 -1.0950 -1.7497  0.4238
20162TIP3    H281978   1.673   2.022   2.057 -2.2177  0.4464  1.3051
20163TIP3   OH281979   0.206   5.770  13.386  0.0787  0.2275  0.2141
20163TIP3    H181980   0.265   5.751  13.313 -0.7426  2.4814 -1.1430
20163TIP3    H281981   0.236   5.855  13.419 -0.1586 -0.3122  1.9224
20164TIP3   OH281982   3.546   4.422   1.509  0.1824 -0.0351 -0.3881
20164TIP3    H181983   3.607   4.439   1.581 -0.1810  1.3847 -0.3860
20164TIP3    H281984   3.594   4.448   1.430 -0.5312  1.4876 -0.3509
20165TIP3   OH281985   6.651   3.735  12.853 -0.1542  0.1658 -0.0503
20165TIP3    H181986   6.622   3.649  12.822 -0.1030  0.5599 -1.2115
20165TIP3    H281987   6.729   3.716  12.905 -0.1124 -0.4827 -0.3365
20166TIP3   OH281988   2.468   5.016   4.803 -0.7709  0.0720 -0.2371
20166TIP3    H181989   2.386   5.004   4.852 -0.3731 -0.9907  0.2030
20166TIP3    H281990   2.535   4.976   4.858  0.1211  1.2763 -0.4158
20167TIP3   OH281991   6.599   4.562  16.743  0.5515 -0.4004  0.1940
20167TIP3    H181992   6.573   4.647  16.779  1.1371 -0.2960  0.3944
20167TIP3    H281993   6.650   4.522  16.814  2.0462 -0.0356 -0.6378
20168TIP3   OH281994   0.743   5.382  14.446 -0.0866 -0.0176 -0.2655
20168TIP3    H181995   0.703   5.344  14.524 -0.5274  1.6545  0.3709
20168TIP3    H281996   0.761   5.307  14.389  0.5039 -1.3042  1.5355
20169TIP3   OH281997   2.464   2.144   0.144  0.7084  0.3626 -0.1384
20169TIP3    H181998   2.489   2.052   0.149  0.1885  0.2240 -0.0121
20169TIP3    H281999   2.530   2.190   0.196 -0.0907 -0.1492  1.3910
20170TIP3   OH282000   0.289   5.836  11.768 -0.0849  0.1382  0.9250
20170TIP3    H182001   0.377   5.829  11.733 -0.5478 -1.6822 -0.0083
20170TIP3    H282002   0.232   5.829  11.692 -1.0574 -1.3241  1.7339
20171TIP3   OH282003   1.805   5.401   4.853  0.1146  0.4578 -0.1848
20171TIP3    H182004   1.730   5.420   4.911 -0.4920 -1.8183 -0.1302
20171TIP3    H282005   1.791   5.458   4.777 -2.8303 -1.2293 -1.0700
20172TIP3   OH282006   6.766   4.048   4.325  0.4996 -0.0143  0.4641
20172TIP3    H182007   6.679   4.022   4.295  0.2245  0.9507  0.3936
20172TIP3    H282008   6.801   4.101   4.253  0.6265  0.6671  1.0174
20173TIP3   OH282009   4.462   2.225   4.329  0.1265  0.1657  0.2388
20173TIP3    H182010   4.427   2.238   4.417 -0.6942 -2.6018  0.4126
20173TIP3    H282011   4.548   2.186   4.343 -0.9669 -2.5303 -0.0917
20174TIP3   OH282012   4.864   4.775   2.087 -0.3474 -0.0719  0.2252
20174TIP3    H182013   4.914   4.714   2.032 -1.7536  0.1347 -1.3737
20174TIP3    H282014   4.773   4.747   2.076 -0.6348 -0.7215  3.4138
20175TIP3   OH282015   0.290   4.694  12.161 -0.2650  0.2647  0.1565
20175TIP3    H182016   0.243   4.731  12.087 -0.7138  0.1497  0.3785
20175TIP3    H282017   0.314   4.769  12.214  2.3838  0.6163 -1.4007
20176TIP3   OH282018   5.238   3.409  16.752  0.3086  0.6030  0.2791
20176TIP3    H182019   5.330   3.384  16.756  0.0163 -0.4642  0.6922
20176TIP3    H282020   5.239   3.504  16.737  1.4643  0.5753  0.1095
20177TIP3   OH282021   0.554   5.178   0.912  0.7360  0.1632  0.0091
20177TIP3    H182022   0.522   5.088   0.910  2.3755 -0.4970  1.3266
20177TIP3    H282023   0.586   5.194   0.823  3.1317 -1.6543  0.4492
20178TIP3   OH282024   5.074   3.362  11.655 -0.2456 -0.3057 -0.1929
20178TIP3    H182025   5.034   3.354  11.568  0.4574  2.1288 -0.8042
20178TIP3    H282026   5.017   3.424  11.702 -0.1422 -0.9501  0.8181
20179TIP3   OH282027   2.265   3.567   1.953 -0.0932 -0.6399  0.4799
20179TIP3    H182028   2.280   3.661   1.946 -1.5562 -0.3525  1.0140
20179TIP3    H282029   2.295   3.544   2.041 -1.4802 -0.3188  1.0437
20180TIP3   OH282030   1.746   1.074   5.599 -0.5160  0.2047 -0.3694
20180TIP3    H182031   1.790   1.014   5.659 -1.1724 -0.3638 -0.4416
20180TIP3    H282032   1.654   1.045   5.599 -1.1988  2.1886  0.8157
20181TIP3   OH282033   1.143   6.664   4.881  0.6916  0.0426 -0.0020
20181TIP3    H182034   1.180   6.624   4.960  2.1033 -1.5989 -1.4323
20181TIP3    H282035   1.087   6.597   4.844 -2.1512  1.7334  0.9271
20182TIP3   OH282036   1.713   5.287  11.217 -0.2773 -0.4274 -0.3077
20182TIP3    H182037   1.798   5.330  11.228 -0.9888  0.5476  1.9340
20182TIP3    H282038   1.702   5.279  11.123  1.8482  0.3497 -0.6693
20183TIP3   OH282039   2.383   0.741   5.063 -0.2258  0.2139 -0.6085
20183TIP3    H182040   2.343   0.827   5.050 -1.6012 -0.3511 -0.2667
20183TIP3    H282041   2.475   0.753   5.038  0.0183  2.1932  1.0202
20184TIP3   OH282042   1.254   2.158   5.922 -0.0438 -0.1598  0.0388
20184TIP3    H182043   1.289   2.071   5.941  0.7798 -0.5662 -2.7985
20184TIP3    H282044   1.159   2.149   5.937  0.2050 -1.0745  1.2437
20185TIP3   OH282045   5.466   6.554  14.177 -0.9939  0.9886 -0.0678
20185TIP3    H182046   5.515   6.473  14.165 -1.7529 -0.0903  3.1201
20185TIP3    H282047   5.533   6.622  14.180  0.3196 -0.2545  2.5993
20186TIP3   OH282048   1.324   5.935  16.755  0.5757 -0.3368 -0.5526
20186TIP3    H182049   1.322   6.016  16.806  3.3812 -1.2402  1.1973
20186TIP3    H282050   1.311   5.964  16.664  0.6593  1.9527  0.1008
20187TIP3   OH282051   6.726   1.691   4.514 -0.1343 -0.6312 -0.8188
20187TIP3    H182052   6.654   1.693   4.451 -0.0216 -1.1767 -0.9658
20187TIP3    H282053   6.724   1.602   4.550  2.3103 -1.6455 -2.9519
20188TIP3   OH282054   1.226   4.006   3.432 -0.4778 -0.6740 -0.2943
20188TIP3    H182055   1.272   3.966   3.506  2.0487 -0.5123 -1.6720
20188TIP3    H282056   1.219   3.936   3.367 -0.5011 -0.2012 -0.8117
20189TIP3   OH282057   6.711   2.051  10.301 -0.0179 -0.4656 -0.4033
20189TIP3    H182058   6.694   2.143  10.278 -1.8726 -0.4339  0.9133
20189TIP3    H282059   6.627   2.007  10.292  0.6491 -1.8537 -0.1222
20190TIP3   OH282060   3.927   0.582  12.094  0.2498 -0.3578  0.1855
20190TIP3    H182061   3.869   0.657  12.081  1.0615  0.6652  2.0967
20190TIP3    H282062   3.869   0.514  12.128  0.0841  0.6647  2.1031
20191TIP3   OH282063   4.147   6.315   0.235  0.6312  0.5493 -0.4044
20191TIP3    H182064   4.099   6.261   0.173 -0.6184 -0.4982  1.3749
20191TIP3    H282065   4.196   6.252   0.288 -1.0372  1.0453  1.8691
20192TIP3   OH282066   4.846   5.039  15.643 -0.4335 -0.5374  0.3816
20192TIP3    H182067   4.760   5.041  15.600 -0.5494 -0.5589  0.6085
20192TIP3    H282068   4.848   4.954  15.687  0.4417 -1.3171 -1.1009
20193TIP3   OH282069   5.631   3.326   2.579 -0.2776 -0.2514  0.1440
20193TIP3    H182070   5.688   3.402   2.593  0.9749 -0.7933 -1.7136
20193TIP3    H282071   5.610   3.295   2.667  1.6347  0.4740  0.8928
20194TIP3   OH282072   5.830   5.199  15.354  0.3362  0.6684  0.1473
20194TIP3    H182073   5.758   5.256  15.381  0.2829 -0.3202  2.3834
20194TIP3    H282074   5.868   5.168  15.437  2.5146  0.1327 -0.9738
20195TIP3   OH282075   6.792   1.179   0.913 -0.1080 -0.1040 -0.8398
20195TIP3    H182076   6.723   1.116   0.891 -0.4178 -0.4126  0.9240
20195TIP3    H282077   6.853   1.174   0.839 -1.1450 -1.0149 -1.6557
20196TIP3   OH282078   0.140   2.447  12.332 -0.3911 -0.3250 -0.5674
20196TIP3    H182079   0.174   2.359  12.313  0.7257  0.0994 -0.5721
20196TIP3    H282080   0.133   2.489  12.246 -2.7628 -1.0189 -0.7935
20197TIP3   OH282081   2.720   2.543   5.387  0.1713  0.1573 -0.3115
20197TIP3    H182082   2.725   2.506   5.475 -1.1446 -1.2437 -0.7748
20197TIP3    H282083   2.664   2.620   5.397  0.8177  0.5670  0.2322
20198TIP3   OH282084   0.946   6.359  15.822 -0.3172 -0.2566 -0.3552
20198TIP3    H182085   0.999   6.289  15.860  0.3309  0.1444 -0.4916
20198TIP3    H282086   0.898   6.317  15.751 -0.5918 -0.7426  0.1169
20199TIP3   OH282087   0.401   3.887  14.519  0.1503 -0.0888  0.4359
20199TIP3    H182088   0.485   3.905  14.478 -1.3064 -0.8531 -3.3267
20199TIP3    H282089   0.391   3.792  14.512 -1.4493  0.0985 -0.3140
20200TIP3   OH282090   3.222   2.411  14.530  0.1581 -0.2580  0.1445
20200TIP3    H182091   3.172   2.330  14.523  0.0380 -0.2790  1.0276
20200TIP3    H282092   3.308   2.391  14.493  0.4955 -1.1372  1.3214
20201TIP3   OH282093   0.493   6.197  12.116  0.5227  0.2787  0.2095
20201TIP3    H182094   0.443   6.220  12.194  0.8143 -0.0068  0.4867
20201TIP3    H282095   0.428   6.190  12.047  0.3183  0.9651  0.3319
20202TIP3   OH282096   4.727   2.387  11.064 -0.4466  0.5621  0.5009
20202TIP3    H182097   4.696   2.476  11.053  0.8039  0.8764 -0.7687
20202TIP3    H282098   4.709   2.366  11.156 -0.8888  2.0547  0.7721
20203TIP3   OH282099   1.263   5.190   0.261  0.8504 -0.4713  0.4111
20203TIP3    H182100   1.189   5.161   0.314 -0.3881 -1.5007 -1.7392
20203TIP3    H282101   1.276   5.282   0.286 -0.7363 -0.4454  1.2770
20204TIP3   OH282102   3.301   3.954  13.747  0.4691 -0.0273  0.4728
20204TIP3    H182103   3.354   3.919  13.675  0.4272  2.1768 -0.7115
20204TIP3    H282104   3.240   4.015  13.705 -0.4002  0.3898  2.2469
20205TIP3   OH282105   0.026   0.949  16.230 -0.7078 -0.1833 -0.0344
20205TIP3    H182106   0.056   0.882  16.169 -0.7861 -0.2806  0.0341
20205TIP3    H282107  -0.020   0.901  16.298  1.4557 -0.3531  1.4184
20206TIP3   OH282108   6.021   3.432  11.494 -0.0304 -0.1526  0.5382
20206TIP3    H182109   5.973   3.396  11.419 -0.4045 -1.9811  1.5966
20206TIP3    H282110   6.036   3.356  11.551  3.5580  0.3954  0.5947
20207TIP3   OH282111   5.226   4.830   4.364  0.1644  0.6640  0.7323
20207TIP3    H182112   5.226   4.734   4.366 -3.1499  0.5739  1.3215
20207TIP3    H282113   5.278   4.855   4.441  1.7407 -0.6107  0.1291
20208TIP3   OH282114   0.248   5.424   4.806 -0.0859 -0.1570 -0.4113
20208TIP3    H182115   0.281   5.514   4.800 -0.2593 -0.1591 -1.7053
20208TIP3    H282116   0.165   5.432   4.852 -0.0089  0.3193 -0.3477
20209TIP3   OH282117   4.314   0.106  11.473 -0.5773 -0.2024  0.2770
20209TIP3    H182118   4.386   0.166  11.455 -0.6448 -0.1157  0.3016
20209TIP3    H282119   4.355   0.019  11.473 -0.6529 -0.2403 -0.7289
20210TIP3   OH282120   1.749   6.691   0.818  0.4653 -0.3119  0.0642
20210TIP3    H182121   1.794   6.766   0.858  0.4094 -0.7118  0.8793
20210TIP3    H282122   1.813   6.656   0.756  0.0515  1.1540 -1.2694
20211TIP3   OH282123   1.464   5.078  11.967  0.3367  0.0756 -0.6487
20211TIP3    H182124   1.541   5.073  12.024 -0.2304 -0.4012  0.0912
20211TIP3    H282125   1.430   5.167  11.979 -0.1255 -0.2162  0.2174
20212TIP3   OH282126   5.448   6.757  10.526  0.0380  0.1793 -0.3524
20212TIP3    H182127   5.482   6.822  10.587  0.1396  0.5688 -0.8119
20212TIP3    H282128   5.356   6.746  10.551  0.3550 -0.4691  0.5483
20213TIP3   OH282129   5.229   5.666  13.519  0.3809 -0.1032  0.0195
20213TIP3    H182130   5.311   5.712  13.534  0.1791  0.5915 -0.9193
20213TIP3    H282131   5.196   5.646  13.607  1.9674 -1.1928  0.4128
20214TIP3   OH282132   6.540   1.653  17.011  0.0590  0.0973  0.5108
20214TIP3    H182133   6.512   1.584  16.951  1.0042  0.7174 -0.6957
20214TIP3    H282134   6.505   1.733  16.972 -0.0717  0.4305  1.2932
20215TIP3   OH282135   5.580   2.460   0.153 -0.3898 -0.5670  0.0110
20215TIP3    H182136   5.500   2.511   0.162  0.0355  0.1164 -0.0511
20215TIP3    H282137   5.561   2.396   0.084 -1.2624 -1.1705  0.7859
20216TIP3   OH282138   4.240   4.677  10.954 -0.2086 -0.6474  0.2073
20216TIP3    H182139   4.295   4.636  10.887 -0.3690  0.2030 -0.4680
20216TIP3    H282140   4.300   4.698  11.026 -0.2543 -2.7202  0.9016
20217TIP3   OH282141   3.381   2.359   4.540 -0.2367 -0.0287  0.1798
20217TIP3    H182142   3.286   2.369   4.549 -0.4671 -1.6761 -0.1207
20217TIP3    H282143   3.415   2.372   4.629 -0.9590 -1.3543  0.6701
20218TIP3   OH282144   1.298   6.533  15.051 -0.4597  0.1673  0.9012
20218TIP3    H182145   1.386   6.566  15.070  0.1300 -0.4540 -0.6006
20218TIP3    H282146   1.292   6.453  15.102  1.3915 -1.8943 -1.8352
20219TIP3   OH282147   2.299   3.164  14.644  0.7799  0.6442 -0.0471
20219TIP3    H182148   2.220   3.119  14.675  0.7055  0.1687 -0.8742
20219TIP3    H282149   2.267   3.222  14.575  1.0943  0.7820 -0.0761
20220TIP3   OH282150   0.188   3.062   2.715 -0.1254 -0.1029 -0.0084
20220TIP3    H182151   0.274   3.093   2.685 -0.9756  0.3941 -2.0872
20220TIP3    H282152   0.152   3.135   2.766  0.3912 -0.0610  0.3037
20221TIP3   OH282153   6.475   1.077  11.196  0.3123 -0.2481 -0.0847
20221TIP3    H182154   6.542   1.132  11.156  0.4760  1.3261  2.2364
20221TIP3    H282155   6.392   1.118  11.171  0.3613 -0.0209  0.1259
20222TIP3   OH282156   6.376   5.275  10.835  0.1037  0.2607 -0.0327
20222TIP3    H182157   6.335   5.189  10.823 -1.3276  1.0232 -0.9980
20222TIP3    H282158   6.467   5.263  10.808 -0.0192 -0.9969  0.0533
20223TIP3   OH282159   6.515   4.876   4.230  0.1401  0.1917 -0.3367
20223TIP3    H182160   6.547   4.922   4.152 -0.5751  1.8910  0.3121
20223TIP3    H282161   6.420   4.892   4.229 -0.1818 -1.5715 -0.2366
20224TIP3   OH282162   2.801   2.149  13.214  0.3785 -0.2585 -0.1601
20224TIP3    H182163   2.848   2.220  13.258  0.0624  0.0334 -0.2954
20224TIP3    H282164   2.770   2.094  13.286  0.8579 -0.4133 -0.0637
20225TIP3   OH282165   3.966   5.377   1.384  0.0175 -0.2402 -0.0274
20225TIP3    H182166   3.945   5.415   1.299 -1.7444 -1.8180 -0.3667
20225TIP3    H282167   3.916   5.429   1.446 -1.4404 -1.1794 -0.3645
20226TIP3   OH282168   0.079   2.751   0.473  0.4200  0.0715  0.6726
20226TIP3    H182169   0.002   2.702   0.500 -2.5854  3.7255 -0.2774
20226TIP3    H282170   0.097   2.811   0.545 -0.7937  2.4634 -0.8578
20227TIP3   OH282171   1.458   0.689   0.399 -0.2454 -0.0405  0.3635
20227TIP3    H182172   1.537   0.737   0.375 -1.5144  1.7656 -0.4030
20227TIP3    H282173   1.389   0.727   0.344 -1.4146 -2.5147 -0.0263
20228TIP3   OH282174   2.161   1.854   2.768  0.2498 -0.1917 -0.3773
20228TIP3    H182175   2.193   1.858   2.858  2.2696 -1.2872 -0.9972
20228TIP3    H282176   2.240   1.850   2.714 -0.8869  1.0527 -2.2654
20229TIP3   OH282177   2.430   5.260  12.607 -0.2710  0.2143 -0.0656
20229TIP3    H182178   2.390   5.346  12.615 -0.2717  0.3233 -1.0835
20229TIP3    H282179   2.452   5.252  12.514 -1.6307 -1.4726 -0.3074
20230TIP3   OH282180   4.018   4.517   0.794  0.1821  0.4143  0.5954
20230TIP3    H182181   4.023   4.561   0.709 -1.7635  0.7673  0.6225
20230TIP3    H282182   3.961   4.573   0.846  0.7025 -0.2212  1.8755
20231TIP3   OH282183   1.620   1.991   4.462  0.2430  0.2140 -0.2254
20231TIP3    H182184   1.554   2.049   4.502  1.2449  0.7951  0.6258
20231TIP3    H282185   1.597   1.904   4.494 -1.2211  0.1244 -1.4346
20232TIP3   OH282186   3.045   2.939   5.556 -0.0073 -0.7741 -0.1415
20232TIP3    H182187   2.995   2.864   5.523  1.5104 -1.7651 -0.2454
20232TIP3    H282188   3.135   2.922   5.529  0.3763  1.1287 -0.2237
20233TIP3   OH282189   4.011   4.850   2.766  0.2009 -0.3028 -0.0484
20233TIP3    H182190   4.038   4.843   2.674  0.3288  1.7844 -0.2372
20233TIP3    H282191   4.093   4.848   2.815  0.1558 -1.1124 -0.0055
20234TIP3   OH282192   3.956   2.774  11.565  0.2384  0.0618 -0.5831
20234TIP3    H182193   4.037   2.825  11.566 -0.0683  0.5846  1.7214
20234TIP3    H282194   3.936   2.757  11.657 -1.3913 -1.5012 -1.1635
20235TIP3   OH282195   3.079   6.773   6.586 -0.2148 -0.8947  0.0208
20235TIP3    H182196   3.112   6.749   6.673  0.9841 -0.6580 -0.3498
20235TIP3    H282197   3.096   6.867   6.579 -0.2824 -0.9193 -0.4832
20236TIP3   OH282198   4.539   1.882  14.227  0.3174 -0.1274  0.0290
20236TIP3    H182199   4.493   1.941  14.168 -0.7808 -2.3668 -1.5262
20236TIP3    H282200   4.625   1.869  14.185 -0.0714 -0.8942 -0.5643
20237TIP3   OH282201   1.437   1.756  14.680  0.1139  0.4989 -0.1638
20237TIP3    H182202   1.380   1.828  14.706 -0.1330 -0.9367  3.9749
20237TIP3    H282203   1.525   1.788  14.697  0.0383  0.1083  1.0485
20238TIP3   OH282204   0.622   3.724   3.980 -0.7895 -0.1047 -0.3043
20238TIP3    H182205   0.688   3.790   3.999 -2.3792  1.4210  0.2139
20238TIP3    H282206   0.599   3.687   4.066 -0.7311 -0.5093 -0.4583
20239TIP3   OH282207   5.151   3.273  15.057 -0.3720 -0.3196 -0.0916
20239TIP3    H182208   5.095   3.210  15.012 -1.7485 -1.2140  2.6759
20239TIP3    H282209   5.139   3.255  15.150  0.8359  2.6613  0.7713
20240TIP3   OH282210   1.790   4.620   2.581  0.4440 -0.3566  0.0495
20240TIP3    H182211   1.754   4.709   2.589 -0.0265 -0.5215 -0.1876
20240TIP3    H282212   1.727   4.564   2.626  0.4897 -0.6285 -0.2208
20241TIP3   OH282213   2.296   5.938  16.059 -0.2547 -0.1609 -0.7764
20241TIP3    H182214   2.299   5.888  16.141  0.6533  0.6198 -0.3161
20241TIP3    H282215   2.373   5.909  16.011 -0.0427  0.3509 -0.7565
20242TIP3   OH282216   1.805   5.250  12.662 -0.2215 -0.3121  0.1894
20242TIP3    H182217   1.759   5.175  12.701  0.1713 -0.3678  0.5657
20242TIP3    H282218   1.816   5.311  12.735 -0.1118 -0.0987 -0.0041
20243TIP3   OH282219   5.281   5.167  13.108  0.0235 -0.3255 -0.4359
20243TIP3    H182220   5.306   5.230  13.040 -0.0009 -0.1340 -0.2705
20243TIP3    H282221   5.346   5.181  13.178 -0.1890 -0.2412 -0.2544
20244TIP3   OH282222   3.741   4.774   2.632 -0.1987  0.1886 -0.2193
20244TIP3    H182223   3.817   4.826   2.657 -0.2938  0.4556 -0.4781
20244TIP3    H282224   3.669   4.811   2.683 -0.1309 -0.1582  0.1352
20245TIP3   OH282225   6.511   1.926  14.125  0.3533 -0.0358 -0.1338
20245TIP3    H182226   6.477   1.953  14.039  1.8624  0.9939 -0.4466
20245TIP3    H282227   6.600   1.961  14.128  0.0395  0.7305  2.2387
20246TIP3   OH282228   4.117   1.593  15.333 -0.2722  0.6430 -1.0213
20246TIP3    H182229   4.022   1.595  15.330 -0.2712  0.4273 -1.2001
20246TIP3    H282230   4.141   1.509  15.293 -0.0007  0.7855 -1.1624
20247TIP3   OH282231   3.121   1.490   4.397  0.4455  0.1241  0.5293
20247TIP3    H182232   3.037   1.506   4.356  1.2710  1.5212 -0.6999
20247TIP3    H282233   3.121   1.396   4.415 -1.4898  0.1558  0.8881
20248TIP3   OH282234   4.025   2.829   2.352 -0.0967 -0.1415 -0.4793
20248TIP3    H182235   3.949   2.884   2.367  0.0579  0.4390 -1.6700
20248TIP3    H282236   4.100   2.887   2.369  0.0744 -0.5808  0.2634
20249TIP3   OH282237   0.433   5.841  14.342 -0.1231 -0.2743  0.0772
20249TIP3    H182238   0.389   5.762  14.311  0.4506  0.0872 -1.8423
20249TIP3    H282239   0.493   5.864  14.271  0.6062  1.2070  1.1097
20250TIP3   OH282240   6.579   4.356  12.058  0.0968  0.6286  0.0597
20250TIP3    H182241   6.599   4.265  12.039  1.0680  0.7284  0.5310
20250TIP3    H282242   6.622   4.373  12.142  2.4291  2.3140 -1.3407
20251TIP3   OH282243   0.932   0.517   3.876 -0.2812  0.0514  0.3020
20251TIP3    H182244   0.871   0.480   3.812 -0.0220 -0.6684  0.4554
20251TIP3    H282245   0.902   0.607   3.890 -0.9103 -0.0903 -0.1129
20252TIP3   OH282246   3.050   3.361  13.884 -0.3538 -1.1472  0.2860
20252TIP3    H182247   2.978   3.341  13.824 -1.2211 -0.2007  0.9748
20252TIP3    H282248   3.041   3.454  13.903  0.2458 -1.2979  1.4410
20253TIP3   OH282249   6.543   4.199  14.308  0.1436  0.1896 -0.4363
20253TIP3    H182250   6.467   4.247  14.276  0.4706  1.1611  0.2267
20253TIP3    H282251   6.552   4.225  14.400  0.7768 -0.5592 -0.2745
20254TIP3   OH282252   2.536   1.536  11.580  0.0655 -0.6933  0.3030
20254TIP3    H182253   2.565   1.453  11.619  0.3154 -0.6196  0.2794
20254TIP3    H282254   2.535   1.597  11.653  0.3448 -0.6022  0.2311
20255TIP3   OH282255   3.811   4.782   2.947 -0.4281 -0.3071  0.3912
20255TIP3    H182256   3.878   4.756   2.883 -0.4427  1.3326 -0.3210
20255TIP3    H282257   3.861   4.805   3.025  0.2074  3.4219 -0.9250
20256TIP3   OH282258   4.902   0.033  14.540 -0.0254  0.1515  0.2849
20256TIP3    H182259   4.851   0.069  14.467 -0.7085 -1.5589 -0.1540
20256TIP3    H282260   4.989   0.070  14.530 -0.9347  2.5800  0.6088
20257TIP3   OH282261   1.823   5.067   4.337 -0.3158 -0.3885 -0.1679
20257TIP3    H182262   1.911   5.104   4.329 -1.1808  1.8567 -0.1387
20257TIP3    H282263   1.780   5.088   4.254 -1.3641  0.2441  0.4961
20258TIP3   OH282264   5.513   4.427  13.006 -0.1594 -0.0395  0.1703
20258TIP3    H182265   5.553   4.347  12.971 -0.8203  0.1923 -1.2314
20258TIP3    H282266   5.575   4.459  13.071  0.0170 -1.8122  0.9530
20259TIP3   OH282267   2.225   1.960   0.392 -0.6057 -0.3185  0.5635
20259TIP3    H182268   2.321   1.966   0.392 -0.5333 -0.7054 -1.1133
20259TIP3    H282269   2.195   2.042   0.431  0.4085  0.2049  0.2870
20260TIP3   OH282270   1.334   4.462   4.484  0.2275 -0.5927 -0.1487
20260TIP3    H182271   1.316   4.386   4.540 -0.6302  0.1965  0.6880
20260TIP3    H282272   1.348   4.425   4.397 -1.2830 -1.6486  0.0118
20261TIP3   OH282273   5.927   4.406  14.356 -0.0942 -0.3971 -0.2128
20261TIP3    H182274   5.927   4.395  14.260 -2.2551 -0.5798 -0.2255
20261TIP3    H282275   6.014   4.441  14.375  0.5931 -0.8785 -2.1782
20262TIP3   OH282276   4.951   2.690   0.395 -0.5318  0.2858 -0.2429
20262TIP3    H182277   5.021   2.716   0.454 -0.9776  2.5488 -0.5893
20262TIP3    H282278   4.943   2.596   0.406  3.2928 -0.2895 -0.9934
20263TIP3   OH282279   5.956   1.520   1.954 -0.1792 -0.3014  0.1810
20263TIP3    H182280   5.862   1.536   1.955  0.0036  0.9446 -1.0844
20263TIP3    H282281   5.968   1.445   2.014 -1.7870  0.3828  1.4162
20264TIP3   OH282282   2.722   0.100   3.922 -0.7200 -0.1083 -0.1050
20264TIP3    H182283   2.717   0.025   3.982 -1.3439  0.0191  0.0114
20264TIP3    H282284   2.772   0.067   3.847  0.1657 -0.2371  0.5236
20265TIP3   OH282285   5.794   3.034   3.082 -0.9577 -0.4528 -0.2905
20265TIP3    H182286   5.832   2.983   3.154 -1.4764 -1.1785 -0.5160
20265TIP3    H282287   5.751   3.108   3.125  0.0179 -0.0494  0.0243
20266TIP3   OH282288   1.657   0.539  15.517 -0.2804  0.1782  0.3729
20266TIP3    H182289   1.632   0.465  15.460 -1.6296  1.1067 -0.2878
20266TIP3    H282290   1.743   0.514  15.551 -0.4997 -1.4992 -0.1809
20267TIP3   OH282291   0.024   6.795   1.390  0.2858  0.2786 -0.1865
20267TIP3    H182292   0.049   6.708   1.360  0.9759  0.2569  0.4501
20267TIP3    H282293  -0.007   6.783   1.479  1.5312  0.8470  0.3460
20268TIP3   OH282294   4.782   3.133  14.318 -0.2551 -0.0012  0.3371
20268TIP3    H182295   4.722   3.202  14.345  1.0740  1.7680 -0.9531
20268TIP3    H282296   4.869   3.168  14.336  0.4730 -1.9249  0.8757
20269TIP3   OH282297   2.998   2.892   5.197  0.7035 -0.5123  0.4095
20269TIP3    H182298   3.027   2.982   5.208 -0.2704 -0.2076  0.5737
20269TIP3    H282299   3.011   2.874   5.103 -1.5184  0.7117 -0.2152
20270TIP3   OH282300   3.348   5.549  16.038 -0.3153 -0.3222 -0.3046
20270TIP3    H182301   3.367   5.632  16.083 -1.3853  0.3145 -0.9783
20270TIP3    H282302   3.299   5.575  15.960 -1.1279 -1.6337 -0.2633
20271TIP3   OH282303   6.283   1.262  14.347  0.2484  0.4596  0.1776
20271TIP3    H182304   6.312   1.326  14.282 -1.1908  1.2508  0.2783
20271TIP3    H282305   6.297   1.305  14.431 -0.4257  0.5091  0.2632
20272LIG     O182306   3.460   3.272  16.574 -0.1086  0.9794  0.4424
20272LIG     O282307   3.474   3.191  17.028 -0.0388  0.3749  0.0877
20272LIG     N182308   3.427   3.401  16.961  1.1140 -0.3548  0.0925
20272LIG     N282309   3.388   3.559  16.650  0.3135 -1.0830 -0.1416
20272LIG     N382310   3.487   3.233  16.802 -0.0616 -0.1385 -0.4258
20272LIG     N482311   3.342   3.613  16.864 -0.0617  0.6107 -0.1061
20272LIG     C182312   3.411   3.444  16.724 -0.1797 -0.8002  0.5018
20272LIG     C282313   3.401   3.486  16.857 -0.0004 -0.3501  0.4929
20272LIG     C382314   3.454   3.315  16.688  0.2735 -0.3602 -0.3509
20272LIG     C482315   3.469   3.271  16.937 -0.1447  0.3397  0.3463
20272LIG     C582316   3.342   3.652  16.738 -0.2909 -0.2544 -0.3422
20272LIG     C682317   3.404   3.447  17.103 -0.3934 -0.3204 -0.2641
20272LIG     C782318   3.402   3.563  16.508 -0.2270 -0.6166  0.2929
20272LIG     C882319   3.528   3.094  16.776 -0.0814  0.4359 -0.8260
20272LIG     H182320   3.304   3.750  16.711 -0.7343  0.4971  2.5955
20272LIG     H282321   3.388   3.557  17.102  0.9248 -0.0617 -3.5698
20272LIG     H382322   3.494   3.423  17.163 -0.4796  2.4937  1.1782
20272LIG     H482323   3.317   3.397  17.151  0.5610 -0.2246  1.6789
20272LIG     H582324   3.511   3.562  16.490 -0.2986  0.5130 -0.2490
20272LIG     H682325   3.365   3.657  16.462 -1.2270 -2.2616 -2.5099
20272LIG     H782326   3.362   3.479  16.447  0.3557 -1.2374  0.7505
20272LIG     H882327   3.448   3.033  16.821  0.1131 -0.6105 -1.8459
20272LIG     H982328   3.621   3.055  16.823 -1.5508 -1.2679  0.7923
20272LIG    H1082329   3.535   3.066  16.668 -2.4452  0.9876 -1.1703
   6.82796   6.82796  17.31575
